Title
82322
    1SAPS     N    1   4.844   5.799  10.829  0.4757  0.6175  0.4244
    1SAPS   HN1    2   4.783   5.715  10.820  2.5702 -0.8837 -0.4829
    1SAPS   HN2    3   4.830   5.864  10.749 -1.9637 -1.6004 -1.0798
    1SAPS   HN3    4   4.942   5.768  10.819 -0.5431 -2.3332 -1.7169
    1SAPS   C12    5   4.822   5.873  10.955 -0.1395  0.4156 -0.2814
    1SAPS  H12A    6   4.725   5.921  10.951 -0.2436  0.1281 -1.5942
    1SAPS   C13    7   4.852   5.791  11.083  0.2065 -0.3917  0.7147
    1SAPS  O13A    8   4.895   5.670  11.074  0.0179 -0.2313 -0.0029
    1SAPS  O13B    9   4.843   5.853  11.192  0.5444 -0.3240  0.0279
    1SAPS   C11   10   4.924   5.981  10.946 -0.0602 -0.5334  0.7915
    1SAPS  H11A   11   5.020   5.944  10.905 -1.3821 -1.3781 -1.7641
    1SAPS  H11B   12   4.947   6.030  11.043  1.9287 -0.3292  0.2706
    1SAPS     P   13   4.900   6.236  10.839 -0.1462 -0.3710  0.0924
    1SAPS   O13   14   4.789   6.302  10.908 -0.0386 -0.0832 -0.3241
    1SAPS   O14   15   5.035   6.272  10.884 -0.2240  0.1962  0.1325
    1SAPS   O12   16   4.881   6.078  10.847 -0.0511 -0.5574  0.5098
    1SAPS   O11   17   4.891   6.261  10.684  0.1471  0.4623  0.0789
    1SAPS    C1   18   4.953   6.180  10.587  0.1283  0.4055  0.4183
    1SAPS    HA   19   5.060   6.208  10.580 -0.2320  1.5675 -0.8818
    1SAPS    HB   20   4.936   6.071  10.600  2.1745 -0.0147 -0.1455
    1SAPS    C2   21   4.895   6.214  10.447  0.0864  0.4303  0.7356
    1SAPS    HS   22   4.936   6.142  10.373 -0.0179 -0.2317  1.3122
    1SAPS   O21   23   4.932   6.346  10.405 -0.3539 -0.5485  0.6235
    1SAPS   C21   24   5.048   6.373  10.349 -0.4853 -0.1469  0.6204
    1SAPS   O22   25   5.132   6.287  10.332 -0.7086 -0.0333 -0.2110
    1SAPS   C22   26   5.061   6.512  10.296  0.3354 -0.2971 -0.6910
    1SAPS   H2R   27   5.009   6.574  10.373  1.8378 -0.9085  0.8970
    1SAPS   H2S   28   5.168   6.542  10.296  0.3115  0.0825  1.9513
    1SAPS    C3   29   4.742   6.203  10.444  1.1298 -0.2761  0.6538
    1SAPS    HX   30   4.695   6.289  10.496 -2.6948 -1.1782 -1.0210
    1SAPS    HY   31   4.719   6.113  10.506 -0.2464  0.5797  1.4336
    1SAPS   O31   32   4.681   6.186  10.318 -0.0735  0.3851 -0.6363
    1SAPS   C31   33   4.659   6.291  10.248  0.0230  0.3055 -0.2377
    1SAPS   O32   34   4.672   6.402  10.289 -0.0327  0.0532 -0.7795
    1SAPS   C32   35   4.617   6.256  10.105  0.9806 -0.5101  0.5349
    1SAPS   H2X   36   4.509   6.270  10.083  1.4288 -0.9852 -2.2404
    1SAPS   H2Y   37   4.608   6.146  10.093 -0.5179 -0.1528 -2.3076
    1SAPS   C23   38   5.001   6.532  10.160 -0.3919 -0.0375  0.1761
    1SAPS   H3R   39   4.893   6.515  10.182 -0.5243  2.5530  2.0105
    1SAPS   H3S   40   5.028   6.461  10.080 -0.2435  2.1879 -1.8662
    1SAPS   C24   41   5.018   6.668  10.109  0.4677  0.6796 -0.1868
    1SAPS   H4R   42   5.120   6.692  10.070  0.4615 -0.2669 -0.8321
    1SAPS   H4S   43   5.006   6.749  10.184  1.4560  1.7751 -1.1613
    1SAPS   C25   44   4.925   6.695   9.995  0.2975  0.4744  0.6733
    1SAPS   H5R   45   4.820   6.701  10.029 -0.1557  0.1125 -0.5880
    1SAPS   C26   46   4.945   6.695   9.866  0.7384  0.3958  0.0545
    1SAPS   H6R   47   4.855   6.709   9.804  0.7006  1.5316  0.3464
    1SAPS   C27   48   5.076   6.682   9.793 -0.0522  0.0287 -0.0830
    1SAPS   H7R   49   5.083   6.599   9.720  0.0281 -0.6587  0.6853
    1SAPS   H7S   50   5.156   6.647   9.863  0.5886  2.0902  0.2682
    1SAPS   C28   51   5.121   6.811   9.735 -0.4552 -1.0040  0.1806
    1SAPS   H8R   52   5.133   6.898   9.801  0.1698 -1.1504  0.2731
    1SAPS   C29   53   5.125   6.841   9.603 -0.8240  0.3069  0.0122
    1SAPS   H9R   54   5.152   6.945   9.582 -0.4459 -0.0232 -1.2318
    1SAPS  C210   55   5.078   6.752   9.490 -0.2533 -0.1054 -0.0445
    1SAPS  H10R   56   5.071   6.649   9.530  0.4774 -0.5864 -1.1146
    1SAPS  H10S   57   5.144   6.754   9.401  1.2398 -1.4035  0.9902
    1SAPS  C211   58   4.937   6.790   9.444 -0.0751 -0.8867 -0.3231
    1SAPS  H11R   59   4.860   6.776   9.522 -2.0637 -4.2784 -2.6257
    1SAPS  C212   60   4.899   6.840   9.322 -0.4132  0.3102 -0.2740
    1SAPS  H12R   61   4.791   6.839   9.297  0.1433 -0.8503 -2.9887
    1SAPS  C213   62   4.991   6.884   9.207  0.3063  0.2036  0.1971
    1SAPS  H13R   63   5.089   6.914   9.249 -0.5886  1.7126  1.3047
    1SAPS  H13S   64   4.943   6.975   9.165  0.6082  0.7223  0.9618
    1SAPS  C214   65   5.002   6.777   9.104  0.7805 -0.1801 -0.7243
    1SAPS  H14R   66   4.953   6.681   9.127  0.3534  0.2535  0.2207
    1SAPS  C215   67   5.049   6.786   8.979  0.4538 -0.2102  0.2586
    1SAPS  H15R   68   5.057   6.703   8.907  0.3890  1.4443 -1.7545
    1SAPS  C216   69   5.101   6.900   8.907 -0.1418 -0.3542  0.3839
    1SAPS  H16R   70   5.204   6.878   8.873  0.0364 -1.7286  1.6848
    1SAPS  H16S   71   5.117   6.999   8.955 -0.5002  1.4177 -2.9133
    1SAPS  C217   72   5.004   6.940   8.784  0.4220  0.7639  0.4353
    1SAPS  H17R   73   5.000   6.853   8.716 -1.6480 -0.1374  1.6106
    1SAPS  H17S   74   5.060   7.021   8.733  1.4176 -1.0616 -1.5152
    1SAPS  C218   75   4.861   7.002   8.811  0.3666  0.2085 -0.6901
    1SAPS  H18R   76   4.876   7.101   8.858 -0.6883  1.8673 -3.5945
    1SAPS  H18S   77   4.817   6.930   8.883  0.7630  0.4641 -0.1855
    1SAPS  C219   78   4.764   7.017   8.687 -0.2768 -0.3231 -0.2646
    1SAPS  H19R   79   4.800   7.098   8.621  1.0494  0.0468  0.8637
    1SAPS  H19S   80   4.661   7.033   8.727 -0.3206 -1.5991  0.1945
    1SAPS  C220   81   4.754   6.888   8.605  0.7704 -0.2915  0.7430
    1SAPS  H20R   82   4.850   6.861   8.555 -0.1781  0.2991 -1.5290
    1SAPS  H20S   83   4.676   6.890   8.526  1.0994 -1.9169  0.3415
    1SAPS  H20T   84   4.714   6.810   8.673 -2.5072 -0.3675 -1.0930
    1SAPS   C33   85   4.691   6.332   9.992  0.8919  0.3984  0.1360
    1SAPS   H3X   86   4.704   6.434  10.034  1.2584 -0.2264  1.6105
    1SAPS   H3Y   87   4.617   6.345   9.910  0.4405  2.3346  0.8028
    1SAPS   C34   88   4.821   6.271   9.937 -0.5099  0.1360 -0.2996
    1SAPS   H4X   89   4.889   6.243  10.020 -0.2495  1.7289  0.0583
    1SAPS   H4Y   90   4.881   6.335   9.868  0.2328  0.8186  0.9396
    1SAPS   C35   91   4.788   6.135   9.854 -0.0639  0.3061 -0.1721
    1SAPS   H5X   92   4.712   6.084   9.917  0.0515 -0.2403 -0.4719
    1SAPS   H5Y   93   4.880   6.072   9.863 -1.9006 -2.2146  2.5319
    1SAPS   C36   94   4.744   6.134   9.707  0.8138 -0.4433 -0.3285
    1SAPS   H6X   95   4.829   6.139   9.636  0.2926 -0.6334 -0.9830
    1SAPS   H6Y   96   4.672   6.219   9.707  2.0729  0.6585  0.2216
    1SAPS   C37   97   4.663   6.005   9.679 -0.2359 -0.0236 -0.0861
    1SAPS   H7X   98   4.572   6.004   9.744 -0.4234 -0.3164 -0.3511
    1SAPS   H7Y   99   4.734   5.925   9.709  0.1867  1.0283  1.9269
    1SAPS   C38  100   4.621   5.993   9.536 -0.0623  0.0879  0.5411
    1SAPS   H8X  101   4.557   6.078   9.504  1.6687  1.5362  0.7610
    1SAPS   H8Y  102   4.553   5.905   9.536 -0.7294  0.5918  1.0993
    1SAPS   C39  103   4.731   5.944   9.437  0.2475 -0.5178  0.1374
    1SAPS   H9X  104   4.752   5.838   9.460 -0.5903 -1.4789 -2.9676
    1SAPS   H9Y  105   4.816   6.016   9.437 -0.5338  0.4302  0.6668
    1SAPS  C310  106   4.673   5.940   9.297  0.3363 -0.4444  0.5137
    1SAPS  H10X  107   4.751   5.932   9.218 -0.6443 -0.0302 -0.5329
    1SAPS  H10Y  108   4.633   6.041   9.274  0.4318 -1.2273 -3.8868
    1SAPS  C311  109   4.560   5.834   9.279  0.2230 -0.0906 -0.7654
    1SAPS  H11X  110   4.474   5.890   9.322  0.5704  0.2391 -0.4877
    1SAPS  H11Y  111   4.572   5.736   9.330 -1.9891 -0.7793 -1.4801
    1SAPS  C312  112   4.531   5.789   9.136 -0.7620  0.5137  0.2264
    1SAPS  H12X  113   4.432   5.738   9.142 -0.4072 -0.2122  0.0373
    1SAPS  H12Y  114   4.604   5.709   9.112 -2.2440 -0.7456 -0.2858
    1SAPS  C313  115   4.534   5.901   9.030  0.1251 -0.3016 -0.0637
    1SAPS  H13X  116   4.632   5.954   9.031 -0.8142  1.5191  1.4233
    1SAPS  H13Y  117   4.456   5.976   9.057  0.9118  1.8320 -3.0788
    1SAPS  C314  118   4.487   5.860   8.885 -0.3026  0.0912  0.2316
    1SAPS  H14X  119   4.472   5.953   8.825  0.2813 -0.2969 -0.5353
    1SAPS  H14Y  120   4.398   5.794   8.895  0.6843 -1.3132 -0.0628
    1SAPS  C315  121   4.599   5.783   8.806 -0.0176 -0.2056 -1.1316
    1SAPS  H15X  122   4.610   5.678   8.840  0.6917 -1.0147 -3.6125
    1SAPS  H15Y  123   4.700   5.830   8.806  0.0889 -0.4275 -0.7784
    1SAPS  C316  124   4.565   5.781   8.653 -0.4518 -0.0590 -0.1276
    1SAPS  H16X  125   4.456   5.797   8.644 -0.3725  1.7980  1.4137
    1SAPS  H16Y  126   4.599   5.682   8.617  1.8082  0.3335  0.7447
    1SAPS  C317  127   4.642   5.892   8.575 -0.2106  0.3705 -0.3560
    1SAPS  H17X  128   4.746   5.854   8.577 -0.2535  0.2739  1.6513
    1SAPS  H17Y  129   4.613   5.988   8.623 -0.7288 -0.2529  0.6004
    1SAPS  C318  130   4.604   5.896   8.425 -0.6783  0.1877  0.4104
    1SAPS  H18X  131   4.637   5.795   8.391 -1.0070 -0.2025  1.2118
    1SAPS  H18Y  132   4.651   5.980   8.371 -2.4203  1.8963  1.4091
    1SAPS  H18Z  133   4.498   5.921   8.404 -0.7736 -1.0836 -0.7290
    2SAPS     N  134   5.258   5.389  10.724  0.0925 -0.3306  0.4914
    2SAPS   HN1  135   5.245   5.359  10.822  1.8637  1.2111  1.2472
    2SAPS   HN2  136   5.306   5.480  10.716  0.7899 -0.7857 -0.8243
    2SAPS   HN3  137   5.169   5.404  10.671  0.3879  1.7383  0.5068
    2SAPS   C12  138   5.347   5.292  10.664 -0.2487 -0.2073  0.2461
    2SAPS  H12A  139   5.333   5.273  10.558 -1.2906 -2.7466  0.7571
    2SAPS   C13  140   5.492   5.325  10.684 -0.2268  0.1330  1.2597
    2SAPS  O13A  141   5.530   5.435  10.740 -0.0803  0.0994  0.3885
    2SAPS  O13B  142   5.583   5.247  10.639  0.0455  0.0178  0.0822
    2SAPS   C11  143   5.325   5.146  10.726  1.0945 -1.1100  0.3215
    2SAPS  H11A  144   5.375   5.142  10.824 -0.4364 -1.7224  1.1167
    2SAPS  H11B  145   5.376   5.079  10.653 -0.1917  0.6744 -2.4154
    2SAPS     P  146   5.137   4.974  10.784  0.4627 -0.3238  0.4134
    2SAPS   O13  147   5.232   4.916  10.875 -0.3168 -0.4921 -0.1928
    2SAPS   O14  148   4.994   4.978  10.826 -0.4967  0.5865 -0.2927
    2SAPS   O12  149   5.182   5.116  10.737 -0.7938  0.8366  0.0570
    2SAPS   O11  150   5.154   4.893  10.642  0.3616  0.2077 -0.2102
    2SAPS    C1  151   5.077   4.942  10.531  0.3421 -0.0526 -0.5662
    2SAPS    HA  152   4.977   4.898  10.549  0.6820  0.1878  2.5356
    2SAPS    HB  153   5.078   5.052  10.520  1.7569  0.2803  1.9766
    2SAPS    C2  154   5.135   4.884  10.400 -0.2632  0.0513  0.1116
    2SAPS    HS  155   5.123   4.773  10.406 -1.1828  0.1548  0.2555
    2SAPS   O21  156   5.268   4.930  10.392  0.3274 -0.1301  0.0565
    2SAPS   C21  157   5.351   4.843  10.333  0.4712 -0.8058 -0.2840
    2SAPS   O22  158   5.324   4.725  10.306 -0.7701  0.0899  0.3586
    2SAPS   C22  159   5.491   4.905  10.317 -0.1024 -0.5526  0.5531
    2SAPS   H2R  160   5.512   4.949  10.418  0.9889 -1.8270  0.8940
    2SAPS   H2S  161   5.559   4.821  10.294 -1.0602 -1.1631 -0.1250
    2SAPS    C3  162   5.055   4.922  10.273  0.4722 -0.4355  0.0019
    2SAPS    HX  163   5.059   5.033  10.274  1.3840 -0.4636  0.4550
    2SAPS    HY  164   4.949   4.893  10.288 -0.0041  2.6450  4.3963
    2SAPS   O31  165   5.120   4.879  10.151  0.0189 -0.2777  0.8986
    2SAPS   C31  166   5.092   4.746  10.124  0.3319 -0.1986 -0.8419
    2SAPS   O32  167   5.029   4.677  10.206  0.3971 -0.0574 -0.1845
    2SAPS   C32  168   5.153   4.710   9.995  0.6556 -0.6465 -0.1177
    2SAPS   H2X  169   5.264   4.709  10.004  0.6624 -2.7343  0.0912
    2SAPS   H2Y  170   5.128   4.784   9.917  1.6472  0.1285  0.2822
    2SAPS   C23  171   5.489   5.018  10.212 -0.3854 -0.3161  0.2372
    2SAPS   H3R  172   5.592   5.055  10.193  0.1953 -1.1829  1.5548
    2SAPS   H3S  173   5.435   5.110  10.244 -1.7346 -0.8558 -0.4123
    2SAPS   C24  174   5.440   4.983  10.075 -0.4854 -0.6701 -0.3426
    2SAPS   H4R  175   5.452   5.078  10.017  0.7384 -0.6018  0.0026
    2SAPS   H4S  176   5.331   4.966  10.062 -1.2972  3.1257  0.1322
    2SAPS   C25  177   5.536   4.879  10.010  0.2064 -0.1530  0.5300
    2SAPS   H5R  178   5.613   4.841  10.078  0.7895  0.3126  0.1394
    2SAPS   C26  179   5.551   4.860   9.878 -0.0251  0.3687  0.0261
    2SAPS   H6R  180   5.628   4.783   9.862  1.3406  1.3674  1.4741
    2SAPS   C27  181   5.479   4.934   9.772 -0.3035 -0.7044  0.1157
    2SAPS   H7R  182   5.546   5.002   9.715 -1.6253  4.0778  3.6817
    2SAPS   H7S  183   5.398   5.003   9.803 -0.1552 -0.6636  0.4168
    2SAPS   C28  184   5.417   4.848   9.669 -0.0441  0.0871 -0.0396
    2SAPS   H8R  185   5.408   4.742   9.695  1.0961  0.0136  0.1189
    2SAPS   C29  186   5.380   4.877   9.543 -0.2869  0.6897  0.0643
    2SAPS   H9R  187   5.340   4.798   9.479 -0.2565 -1.2824  2.3299
    2SAPS  C210  188   5.407   5.009   9.477 -0.5399  0.0414 -0.2291
    2SAPS  H10R  189   5.498   5.002   9.413  0.2482  1.5484  0.6493
    2SAPS  H10S  190   5.432   5.082   9.556 -0.0142  0.5650 -0.8606
    2SAPS  C211  191   5.300   5.072   9.397  0.0295 -0.0053  0.5431
    2SAPS  H11R  192   5.252   5.149   9.460  0.3958 -1.2825  2.4617
    2SAPS  C212  193   5.285   5.072   9.268  0.2831  0.2708  0.4395
    2SAPS  H12R  194   5.198   5.122   9.223 -0.5011 -1.9918 -0.7044
    2SAPS  C213  195   5.342   4.978   9.159 -0.0084  0.1290  0.0565
    2SAPS  H13R  196   5.278   4.990   9.069  1.3287  0.9959 -0.7975
    2SAPS  H13S  197   5.340   4.872   9.193  0.0697  0.3323  0.7112
    2SAPS  C214  198   5.490   5.008   9.132 -0.3848 -0.0003 -0.6813
    2SAPS  H14R  199   5.522   5.102   9.179 -0.4168 -0.5318  0.4484
    2SAPS  C215  200   5.561   4.939   9.040  0.1287 -0.0382 -0.2048
    2SAPS  H15R  201   5.669   4.961   9.039 -0.0974  1.2956 -2.4356
    2SAPS  C216  202   5.514   4.822   8.964 -0.3228 -0.6283  0.1319
    2SAPS  H16R  203   5.429   4.774   9.017 -1.2190  2.1482  1.4286
    2SAPS  H16S  204   5.598   4.750   8.966  0.9295  0.8020  1.3632
    2SAPS  C217  205   5.489   4.849   8.825  0.0719 -0.2584 -0.0966
    2SAPS  H17R  206   5.579   4.899   8.784  1.7556 -2.6494  0.4401
    2SAPS  H17S  207   5.398   4.910   8.808  0.8236  1.1140  0.7155
    2SAPS  C218  208   5.474   4.711   8.747 -0.1062 -0.2169  0.5081
    2SAPS  H18R  209   5.432   4.644   8.826 -0.5040 -0.3163  0.2158
    2SAPS  H18S  210   5.579   4.677   8.742  1.4228  3.8583  1.2219
    2SAPS  C219  211   5.410   4.729   8.611 -0.4904  0.9131 -0.2806
    2SAPS  H19R  212   5.452   4.820   8.563 -0.6452  0.8009 -0.6278
    2SAPS  H19S  213   5.304   4.761   8.611 -0.2221  1.9370 -1.9425
    2SAPS  C220  214   5.435   4.609   8.514  0.0162  0.5184  0.4753
    2SAPS  H20R  215   5.545   4.606   8.501 -0.3402 -0.0325 -3.8966
    2SAPS  H20S  216   5.401   4.627   8.410  1.2487 -0.4585 -0.1101
    2SAPS  H20T  217   5.389   4.521   8.564  0.6575  1.1076  2.1905
    2SAPS   C33  218   5.101   4.569   9.960 -0.1039  0.1800 -0.9242
    2SAPS   H3X  219   4.991   4.567   9.944 -0.5690 -0.9351  1.8866
    2SAPS   H3Y  220   5.122   4.502  10.046  2.0252  1.2632 -0.5400
    2SAPS   C34  221   5.181   4.508   9.842 -0.3130 -0.3126 -0.6485
    2SAPS   H4X  222   5.150   4.401   9.838 -0.9918 -0.3310  2.4377
    2SAPS   H4Y  223   5.288   4.516   9.868 -0.3240  0.6312 -0.8348
    2SAPS   C35  224   5.149   4.584   9.711 -0.0089 -0.4534 -0.0643
    2SAPS   H5X  225   5.180   4.690   9.718  1.2602 -0.6956 -1.4050
    2SAPS   H5Y  226   5.040   4.577   9.695 -0.0291 -1.4361  0.4064
    2SAPS   C36  227   5.230   4.528   9.592 -0.5918 -0.6457 -0.3192
    2SAPS   H6X  228   5.239   4.417   9.595  3.8684 -0.4601  1.6930
    2SAPS   H6Y  229   5.336   4.560   9.597 -0.8037  0.0710 -0.3973
    2SAPS   C37  230   5.169   4.563   9.456 -1.0462  0.4952 -0.2870
    2SAPS   H7X  231   5.183   4.671   9.432 -1.6736  0.7210  0.3340
    2SAPS   H7Y  232   5.061   4.538   9.447 -0.7269 -0.8288 -0.6847
    2SAPS   C38  233   5.236   4.491   9.334  0.0117 -0.3422 -0.4228
    2SAPS   H8X  234   5.254   4.382   9.339  0.7660 -0.4008 -3.0084
    2SAPS   H8Y  235   5.343   4.522   9.339  0.9102 -3.2962  1.9226
    2SAPS   C39  236   5.159   4.530   9.207  0.3023 -0.4967 -0.2333
    2SAPS   H9X  237   5.176   4.635   9.177 -1.7302 -0.0675 -0.0284
    2SAPS   H9Y  238   5.051   4.515   9.228  0.2571 -2.0138 -1.4507
    2SAPS  C310  239   5.198   4.450   9.084  0.0555  0.1772 -0.4537
    2SAPS  H10X  240   5.201   4.340   9.104  0.0362  0.0881 -0.9263
    2SAPS  H10Y  241   5.297   4.484   9.047  0.2749 -0.1043 -0.1354
    2SAPS  C311  242   5.102   4.464   8.968 -0.8423 -0.6447 -0.3532
    2SAPS  H11X  243   5.106   4.574   8.955  2.4164 -0.4815  1.0804
    2SAPS  H11Y  244   5.000   4.424   8.988 -0.4054 -1.7257 -0.2200
    2SAPS  C312  245   5.158   4.404   8.839  0.4350 -0.1989 -0.0877
    2SAPS  H12X  246   5.195   4.302   8.863  0.2249 -0.3722 -0.4763
    2SAPS  H12Y  247   5.252   4.455   8.810 -2.0656  2.6653 -4.1988
    2SAPS  C313  248   5.073   4.427   8.708  0.4719  0.0633  0.4847
    2SAPS  H13X  249   4.977   4.376   8.728 -0.8124  1.9687 -0.4664
    2SAPS  H13Y  250   5.125   4.382   8.621 -1.6637  0.3907 -1.0265
    2SAPS  C314  251   5.039   4.576   8.681  0.0118 -0.5344 -0.1652
    2SAPS  H14X  252   5.122   4.644   8.709 -1.5942  1.6318 -0.3407
    2SAPS  H14Y  253   4.965   4.600   8.761  0.2697  2.0830 -0.6224
    2SAPS  C315  254   4.993   4.603   8.536  0.2733  0.3225 -0.2022
    2SAPS  H15X  255   5.091   4.624   8.487  0.3611 -1.2290 -0.7535
    2SAPS  H15Y  256   4.928   4.693   8.534 -0.5223 -0.2342  0.1220
    2SAPS  C316  257   4.927   4.485   8.455  0.1396  0.2410  0.9532
    2SAPS  H16X  258   4.849   4.441   8.521  0.7440  1.8510  2.8219
    2SAPS  H16Y  259   5.003   4.408   8.428 -1.6695 -1.5355  0.6180
    2SAPS  C317  260   4.879   4.519   8.319 -0.4119 -0.0037 -0.4354
    2SAPS  H17X  261   4.873   4.425   8.260  0.5041  0.3706 -1.1464
    2SAPS  H17Y  262   4.959   4.582   8.272  0.4650 -0.8443 -0.0969
    2SAPS  C318  263   4.742   4.588   8.308  0.0061  0.0717 -0.4349
    2SAPS  H18X  264   4.663   4.519   8.344  0.3363 -0.4142 -0.6331
    2SAPS  H18Y  265   4.712   4.612   8.204 -2.3221 -0.8602 -0.0289
    2SAPS  H18Z  266   4.745   4.688   8.355 -2.3958 -0.0709  0.1457
    3SAPS     N  267   3.154   0.536  10.796 -0.9269  0.3097 -0.0112
    3SAPS   HN1  268   3.122   0.500  10.704 -1.2706  0.9835 -0.1649
    3SAPS   HN2  269   3.081   0.598  10.838 -0.0616  1.2365  0.1864
    3SAPS   HN3  270   3.236   0.599  10.781 -0.6327 -0.4113 -1.4865
    3SAPS   C12  271   3.172   0.417  10.879  0.0257 -0.4012 -0.5300
    3SAPS  H12A  272   3.266   0.368  10.857  0.1188  0.0912 -1.2473
    3SAPS   C13  273   3.164   0.443  11.030  0.0213  0.2755 -0.3363
    3SAPS  O13A  274   3.172   0.559  11.085 -0.0315  0.3940 -0.3225
    3SAPS  O13B  275   3.185   0.344  11.102 -0.2806  0.4314  0.1366
    3SAPS   C11  276   3.057   0.316  10.847 -0.7844  0.1873 -1.0688
    3SAPS  H11A  277   2.961   0.359  10.883 -0.3929 -1.4659  2.4383
    3SAPS  H11B  278   3.069   0.230  10.917 -1.1297  1.6018  0.7939
    3SAPS     P  279   2.954   0.172  10.666  0.3416  0.4917 -0.0231
    3SAPS   O13  280   3.017   0.042  10.653  0.4025  0.5115  0.2788
    3SAPS   O14  281   2.848   0.181  10.768 -0.3645  0.0823 -0.0761
    3SAPS   O12  282   3.071   0.268  10.716 -0.4684 -0.4560 -0.4579
    3SAPS   O11  283   2.908   0.226  10.534 -0.0543  0.2688 -0.0239
    3SAPS    C1  284   2.996   0.225  10.417 -0.3406 -0.0971 -0.0262
    3SAPS    HA  285   3.079   0.151  10.417  1.8858  2.2773 -0.6945
    3SAPS    HB  286   2.930   0.190  10.334 -2.4288 -0.4669  1.6955
    3SAPS    C2  287   3.062   0.364  10.390  0.3051 -0.4771 -0.4418
    3SAPS    HS  288   3.126   0.388  10.478 -1.9352  0.3381  1.0506
    3SAPS   O21  289   2.959   0.461  10.358 -0.2787  0.1076 -0.1372
    3SAPS   C21  290   2.908   0.523  10.464 -0.3374 -0.5494 -0.0263
    3SAPS   O22  291   2.962   0.526  10.572  0.2798  0.2990  1.2096
    3SAPS   C22  292   2.772   0.587  10.431  0.1549  0.1547 -0.2526
    3SAPS   H2R  293   2.693   0.534  10.487 -1.6038  1.9748 -0.8922
    3SAPS   H2S  294   2.774   0.693  10.465  0.0563 -0.0374  0.3607
    3SAPS    C3  295   3.156   0.364  10.268  0.4090  0.6686 -0.4788
    3SAPS    HX  296   3.206   0.460  10.246  0.3214  0.6027 -0.9657
    3SAPS    HY  297   3.095   0.334  10.181 -0.8330  1.1590  0.1917
    3SAPS   O31  298   3.251   0.256  10.280 -0.1850  0.3270 -0.4256
    3SAPS   C31  299   3.360   0.287  10.349  0.0347 -0.6906  0.9453
    3SAPS   O32  300   3.390   0.398  10.386 -0.1506  0.3804  0.4582
    3SAPS   C32  301   3.453   0.166  10.373  0.2337 -0.5158 -0.3104
    3SAPS   H2X  302   3.434   0.099  10.287 -1.1558  0.7065 -1.0008
    3SAPS   H2Y  303   3.431   0.118  10.472  0.7290  0.3271  0.2161
    3SAPS   C23  304   2.730   0.609  10.284 -0.2719  0.0109  0.1663
    3SAPS   H3R  305   2.722   0.511  10.231 -2.7558  0.0538  0.3301
    3SAPS   H3S  306   2.811   0.666  10.234  0.4711 -1.7268 -0.6908
    3SAPS   C24  307   2.592   0.670  10.250 -0.2489  0.3756 -0.0466
    3SAPS   H4R  308   2.510   0.643  10.321  1.1235  0.8266  1.7798
    3SAPS   H4S  309   2.573   0.649  10.143  0.3374  4.4445 -1.1149
    3SAPS   C25  310   2.613   0.818  10.263  0.2729  0.5143 -0.4590
    3SAPS   H5R  311   2.616   0.849  10.369  1.9181  0.4120 -0.4517
    3SAPS   C26  312   2.653   0.906  10.169 -0.2097  0.5360  0.3122
    3SAPS   H6R  313   2.678   1.011  10.190 -0.7028  0.9939 -1.2191
    3SAPS   C27  314   2.676   0.875  10.026  0.4951 -0.1706  0.2087
    3SAPS   H7R  315   2.696   0.767  10.013 -0.6236 -0.1998 -1.9028
    3SAPS   H7S  316   2.773   0.924  10.006  1.1667 -0.3627  2.7029
    3SAPS   C28  317   2.567   0.912   9.919 -0.0212  0.4212  0.2719
    3SAPS   H8R  318   2.490   0.835   9.905  1.2849 -0.4997 -2.7885
    3SAPS   C29  319   2.563   1.026   9.841 -0.4246 -0.0842  0.5817
    3SAPS   H9R  320   2.477   1.047   9.776 -1.6008  3.0967  2.9278
    3SAPS  C210  321   2.653   1.145   9.838  0.0619  0.3673  0.4361
    3SAPS  H10R  322   2.744   1.118   9.896 -0.2282 -0.2057  0.6354
    3SAPS  H10S  323   2.595   1.228   9.884  0.6216  1.8607 -1.4460
    3SAPS  C211  324   2.690   1.189   9.696 -0.6989 -0.0751  0.0352
    3SAPS  H11R  325   2.662   1.125   9.611  2.2919 -0.2241 -0.9907
    3SAPS  C212  326   2.768   1.295   9.672 -0.7052 -0.5645  0.6997
    3SAPS  H12R  327   2.790   1.324   9.568 -0.0713  1.5163  1.3775
    3SAPS  C213  328   2.827   1.381   9.768  0.2473  0.0422 -0.3506
    3SAPS  H13R  329   2.926   1.415   9.730 -0.1416  1.0788 -0.4855
    3SAPS  H13S  330   2.852   1.311   9.850 -0.3548 -0.9710 -1.0176
    3SAPS  C214  331   2.753   1.493   9.830 -0.3060  0.3111 -0.4741
    3SAPS  H14R  332   2.685   1.549   9.765 -1.9607  0.6272  1.4281
    3SAPS  C215  333   2.739   1.512   9.962  0.2132  0.0338  0.1693
    3SAPS  H15R  334   2.674   1.593  10.001 -1.4244 -0.5816 -1.1612
    3SAPS  C216  335   2.812   1.446  10.075 -0.4149  0.3764 -0.2271
    3SAPS  H16R  336   2.848   1.525  10.144  0.6760  0.5011 -0.9273
    3SAPS  H16S  337   2.911   1.408  10.042 -0.4322 -0.9002  1.0651
    3SAPS  C217  338   2.714   1.348  10.150  0.0750 -1.2873 -0.3364
    3SAPS  H17R  339   2.704   1.254  10.090  0.3942 -0.6219 -1.4550
    3SAPS  H17S  340   2.614   1.396  10.159  2.1621  3.6769 -0.4599
    3SAPS  C218  341   2.741   1.313  10.294  0.1852  0.2988  0.2620
    3SAPS  H18R  342   2.846   1.283  10.314  0.6803  1.6452 -0.1708
    3SAPS  H18S  343   2.679   1.224  10.318 -0.9543  0.0485 -3.0085
    3SAPS  C219  344   2.697   1.416  10.398 -0.4119  0.3730 -0.0176
    3SAPS  H19R  345   2.596   1.459  10.378 -0.2599  2.2533  2.7666
    3SAPS  H19S  346   2.765   1.503  10.410 -0.8790  0.9649 -1.4627
    3SAPS  C220  347   2.703   1.358  10.538 -0.3178  0.1586 -0.1834
    3SAPS  H20R  348   2.663   1.429  10.614  3.2960  0.9651  1.1840
    3SAPS  H20S  349   2.806   1.340  10.575 -0.6082  2.3596  1.9559
    3SAPS  H20T  350   2.647   1.262  10.542  0.6273 -0.3592  2.3520
    3SAPS   C33  351   3.596   0.207  10.394 -0.5189 -0.7346 -0.8246
    3SAPS   H3X  352   3.664   0.121  10.414 -1.2492 -1.2135 -0.3692
    3SAPS   H3Y  353   3.594   0.280  10.477 -2.2778 -0.6694 -0.9032
    3SAPS   C34  354   3.658   0.275  10.271  0.3939 -0.0603  0.1704
    3SAPS   H4X  355   3.576   0.304  10.202 -0.9870 -1.9432  0.9431
    3SAPS   H4Y  356   3.716   0.194  10.222  0.5935  1.6201 -2.5746
    3SAPS   C35  357   3.762   0.391  10.300  0.4992 -0.0336  0.4013
    3SAPS   H5X  358   3.830   0.347  10.376  0.2160 -3.3910 -1.1016
    3SAPS   H5Y  359   3.708   0.482  10.332  1.8756  0.7800  0.4635
    3SAPS   C36  360   3.830   0.444  10.174 -0.4770 -0.8568  0.7575
    3SAPS   H6X  361   3.879   0.540  10.201 -0.7180 -0.2392 -0.8990
    3SAPS   H6Y  362   3.755   0.470  10.097  0.5647  0.9375  0.3052
    3SAPS   C37  363   3.940   0.360  10.105  0.3696 -0.3948 -0.6556
    3SAPS   H7X  364   3.909   0.253  10.100  0.0490 -0.2417 -2.5961
    3SAPS   H7Y  365   4.026   0.356  10.175 -2.4139  3.8624  3.5817
    3SAPS   C38  366   3.970   0.401   9.960  0.1387  0.0926 -0.1578
    3SAPS   H8X  367   4.013   0.504   9.960  2.8443 -0.9167  1.1712
    3SAPS   H8Y  368   3.873   0.397   9.907 -1.1476  3.2836  1.6708
    3SAPS   C39  369   4.074   0.316   9.890 -0.0918 -0.1862 -0.2000
    3SAPS   H9X  370   4.040   0.211   9.895 -2.4454  0.5746  1.9990
    3SAPS   H9Y  371   4.165   0.333   9.951 -0.4451  0.8157  0.0713
    3SAPS  C310  372   4.105   0.351   9.742 -0.5111  0.0711 -0.4091
    3SAPS  H10X  373   4.148   0.453   9.729  2.3732 -1.0773 -0.6804
    3SAPS  H10Y  374   4.006   0.348   9.693 -0.7448  1.1498 -0.0458
    3SAPS  C311  375   4.200   0.250   9.679  0.2472  0.1740  1.0642
    3SAPS  H11X  376   4.165   0.145   9.674  0.3627  0.1514 -3.4144
    3SAPS  H11Y  377   4.300   0.247   9.728 -0.8784 -2.2309  3.4398
    3SAPS  C312  378   4.213   0.279   9.531  0.1360  0.2084 -0.0156
    3SAPS  H12X  379   4.255   0.376   9.499  0.5766 -0.0716 -0.2896
    3SAPS  H12Y  380   4.110   0.269   9.489 -0.6089 -3.3964  2.1839
    3SAPS  C313  381   4.291   0.170   9.473  0.4918  0.7662  0.1348
    3SAPS  H13X  382   4.250   0.068   9.493  0.7765  0.7261  0.5324
    3SAPS  H13Y  383   4.389   0.171   9.525  0.6925 -0.9780 -0.1397
    3SAPS  C314  384   4.310   0.196   9.320 -0.3789 -0.9639  0.1782
    3SAPS  H14X  385   4.378   0.283   9.313 -1.0135 -0.4288  0.5785
    3SAPS  H14Y  386   4.209   0.228   9.287 -1.1624 -1.1581  2.2817
    3SAPS  C315  387   4.372   0.083   9.247 -0.3627 -0.3102  0.3020
    3SAPS  H15X  388   4.318  -0.013   9.250 -2.4016  0.7239 -0.7883
    3SAPS  H15Y  389   4.474   0.058   9.282 -1.0660 -1.7990  1.4067
    3SAPS  C316  390   4.389   0.131   9.097  0.3833  0.8280 -0.0598
    3SAPS  H16X  391   4.445   0.226   9.082  0.6526  1.0833  2.2012
    3SAPS  H16Y  392   4.288   0.137   9.052  0.9113 -0.8440 -1.6215
    3SAPS  C317  393   4.447   0.020   9.007 -0.3017 -0.4756  0.1164
    3SAPS  H17X  394   4.384  -0.068   8.982  2.1470 -2.0312 -0.9659
    3SAPS  H17Y  395   4.534  -0.022   9.060  0.4328  0.3697 -0.3911
    3SAPS  C318  396   4.502   0.070   8.868 -0.0924  0.1210  0.2881
    3SAPS  H18X  397   4.458   0.022   8.777  1.5051 -0.7743 -0.0452
    3SAPS  H18Y  398   4.611   0.051   8.862 -0.0433 -0.0694  1.5788
    3SAPS  H18Z  399   4.487   0.180   8.872  0.7509  0.1975  1.6637
    4SAPS     N  400   6.716   4.693  10.761  0.0385 -0.2294 -0.7594
    4SAPS   HN1  401   6.615   4.677  10.745  0.2494 -0.5188 -1.8222
    4SAPS   HN2  402   6.747   4.787  10.794 -1.0795  0.7666 -2.4096
    4SAPS   HN3  403   6.757   4.659  10.672  1.1960  1.7625 -1.0498
    4SAPS   C12  404   6.770   4.600  10.870 -0.3398  0.1682  0.0591
    4SAPS  H12A  405   6.874   4.624  10.888 -0.6031  2.6207 -1.2911
    4SAPS   C13  406   6.708   4.600  11.013  0.2741 -0.4041  0.1197
    4SAPS  O13A  407   6.606   4.674  11.038  0.0146  0.1448  0.1130
    4SAPS  O13B  408   6.760   4.525  11.102  0.0778 -0.2607 -0.3814
    4SAPS   C11  409   6.773   4.456  10.820 -0.6384 -0.1745  0.2557
    4SAPS  H11A  410   6.667   4.423  10.810 -0.4081 -0.8910  0.1356
    4SAPS  H11B  411   6.824   4.390  10.893 -2.4809 -0.5796  1.2337
    4SAPS     P  412   6.960   4.356  10.648 -0.5194  0.1122 -0.4726
    4SAPS   O13  413   7.074   4.443  10.621  0.5336  0.1596 -0.0008
    4SAPS   O14  414   6.979   4.248  10.752 -0.4001  0.0395 -0.0264
    4SAPS   O12  415   6.839   4.449  10.685 -0.1516 -0.0518 -0.0525
    4SAPS   O11  416   6.918   4.282  10.517 -0.1947  0.4352 -0.1803
    4SAPS    C1  417   6.788   4.304  10.461 -0.5453  0.4964  0.3977
    4SAPS    HA  418   6.704   4.277  10.529 -4.4875  3.2358 -2.9012
    4SAPS    HB  419   6.768   4.410  10.435  0.1095  0.3954 -0.5524
    4SAPS    C2  420   6.761   4.217  10.340 -0.1375 -0.2796 -0.2956
    4SAPS    HS  421   6.765   4.110  10.372 -1.0188 -0.2529 -0.0817
    4SAPS   O21  422   6.857   4.252  10.233 -0.3034 -0.0321  0.0910
    4SAPS   C21  423   6.897   4.152  10.157  0.3103  0.6575  0.1310
    4SAPS   O22  424   6.858   4.036  10.177  0.0804  0.8107  0.1233
    4SAPS   C22  425   6.980   4.198  10.039 -0.2354  0.0442 -0.0890
    4SAPS   H2R  426   7.079   4.223  10.082 -0.1481 -0.7920  0.2163
    4SAPS   H2S  427   6.997   4.118   9.963 -0.5507 -0.6236  0.5367
    4SAPS    C3  428   6.613   4.240  10.293 -0.1895 -0.1168 -0.4026
    4SAPS    HX  429   6.608   4.342  10.250 -4.8528 -0.6303 -1.5509
    4SAPS    HY  430   6.545   4.240  10.381  0.2033  1.1050 -0.0684
    4SAPS   O31  431   6.568   4.159  10.188  0.1389  0.4354 -0.1164
    4SAPS   C31  432   6.530   4.030  10.223  0.6787  0.6360 -0.2300
    4SAPS   O32  433   6.558   3.981  10.331  0.0458 -0.4871 -0.3425
    4SAPS   C32  434   6.468   3.956  10.101 -0.4908  0.5664 -0.2704
    4SAPS   H2X  435   6.416   4.033  10.040  1.5714  1.0978 -1.4842
    4SAPS   H2Y  436   6.398   3.880  10.140 -1.9235  1.7769 -0.3604
    4SAPS   C23  437   6.911   4.312   9.964  0.4091 -0.2286  0.3135
    4SAPS   H3R  438   6.982   4.342   9.884 -0.4907 -0.1951 -0.4901
    4SAPS   H3S  439   6.907   4.400  10.032  0.2350 -1.1856  1.5850
    4SAPS   C24  440   6.771   4.285   9.901  0.0551  0.2682 -0.5483
    4SAPS   H4R  441   6.731   4.380   9.861 -0.5512  0.0038 -0.5755
    4SAPS   H4S  442   6.701   4.265   9.985 -0.0693 -2.6719 -1.2528
    4SAPS   C25  443   6.770   4.174   9.796 -0.0879 -0.4453  0.0221
    4SAPS   H5R  444   6.742   4.076   9.837 -1.9885  0.3701  0.8064
    4SAPS   C26  445   6.810   4.188   9.665  0.1064 -0.3051 -0.7674
    4SAPS   H6R  446   6.795   4.101   9.600  0.5308 -0.6251 -0.4451
    4SAPS   C27  447   6.858   4.311   9.599 -0.0139 -0.2329 -0.5828
    4SAPS   H7R  448   6.869   4.389   9.677  1.6221  0.0112 -1.0154
    4SAPS   H7S  449   6.785   4.348   9.524 -0.2543  1.2245  0.3354
    4SAPS   C28  450   6.993   4.305   9.536 -0.2427  0.0303 -0.7561
    4SAPS   H8R  451   7.075   4.313   9.609 -2.1690 -0.7085  1.6205
    4SAPS   C29  452   7.018   4.298   9.403 -0.6400  0.3571 -0.9163
    4SAPS   H9R  453   7.123   4.291   9.369 -0.3302  0.8606 -0.0993
    4SAPS  C210  454   6.922   4.301   9.295 -0.1326  0.0653  0.1835
    4SAPS  H10R  455   6.819   4.267   9.319  0.7538 -2.6317  0.4897
    4SAPS  H10S  456   6.948   4.213   9.231  0.6354 -0.6607  1.4512
    4SAPS  C211  457   6.930   4.433   9.212 -0.3904  0.5814  0.0945
    4SAPS  H11R  458   6.938   4.528   9.269  1.3884  1.0605 -0.8705
    4SAPS  C212  459   6.935   4.441   9.076  0.3947  0.0656 -0.0083
    4SAPS  H12R  460   6.932   4.542   9.031  0.4038 -0.1461 -0.4870
    4SAPS  C213  461   6.941   4.332   8.978  0.1756  0.1605 -0.3190
    4SAPS  H13R  462   7.019   4.259   9.008  0.2785 -0.3231 -1.6773
    4SAPS  H13S  463   6.986   4.369   8.883 -1.1699  1.7138 -0.3949
    4SAPS  C214  464   6.809   4.268   8.959  0.2869  0.3402  0.1561
    4SAPS  H14R  465   6.750   4.265   9.052 -0.7434 -0.5091 -0.4974
    4SAPS  C215  466   6.755   4.221   8.842  0.4067  0.2113  0.6117
    4SAPS  H15R  467   6.647   4.202   8.834  0.2208  1.2778  0.4830
    4SAPS  C216  468   6.817   4.229   8.709 -0.5179  0.1108 -0.3971
    4SAPS  H16R  469   6.817   4.134   8.652  0.2828  0.8936 -1.7448
    4SAPS  H16S  470   6.927   4.247   8.717 -0.2627 -0.4975 -2.1246
    4SAPS  C217  471   6.772   4.333   8.619  0.4034 -0.3383 -0.4463
    4SAPS  H17R  472   6.807   4.434   8.649  1.2321 -1.3875  2.5448
    4SAPS  H17S  473   6.662   4.347   8.614  0.5879  0.6661 -3.0708
    4SAPS  C218  474   6.813   4.319   8.471  0.1227 -0.6383 -0.1609
    4SAPS  H18R  475   6.769   4.226   8.429  0.6963 -1.3972  0.8671
    4SAPS  H18S  476   6.923   4.307   8.481  0.6728  3.6988  0.6749
    4SAPS  C219  477   6.783   4.440   8.384 -0.3279  0.3314 -0.5727
    4SAPS  H19R  478   6.869   4.456   8.316 -0.6147 -0.4353 -1.1326
    4SAPS  H19S  479   6.775   4.527   8.453  0.0379 -1.0948  1.3380
    4SAPS  C220  480   6.655   4.438   8.297 -0.0633  0.7473  0.2703
    4SAPS  H20R  481   6.661   4.365   8.213 -0.2645 -1.1994  1.8585
    4SAPS  H20S  482   6.634   4.539   8.257  0.8939  0.5532 -0.7897
    4SAPS  H20T  483   6.568   4.397   8.352 -0.1191  1.2505  0.5601
    4SAPS   C33  484   6.582   3.898  10.012 -0.1101  0.1432 -0.0163
    4SAPS   H3X  485   6.649   3.840  10.079 -0.3864  0.8865  0.9125
    4SAPS   H3Y  486   6.634   3.992   9.984  1.1010 -0.4564  0.1568
    4SAPS   C34  487   6.536   3.814   9.889 -0.6655  0.1317 -0.3465
    4SAPS   H4X  488   6.438   3.769   9.915 -0.0626 -0.4605  1.0097
    4SAPS   H4Y  489   6.603   3.728   9.865  0.8847  1.2240 -0.0924
    4SAPS   C35  490   6.514   3.900   9.765 -0.3883 -0.3340  0.4740
    4SAPS   H5X  491   6.579   3.990   9.770  0.4918 -0.9478  0.2069
    4SAPS   H5Y  492   6.408   3.932   9.751  0.2914  1.5891 -0.7743
    4SAPS   C36  493   6.540   3.811   9.640  0.4869  0.6084  0.1412
    4SAPS   H6X  494   6.463   3.732   9.645 -0.4523  1.3681 -1.4036
    4SAPS   H6Y  495   6.639   3.762   9.650  0.6333  0.6415 -0.9922
    4SAPS   C37  496   6.538   3.886   9.507 -0.1198 -0.0834 -0.7788
    4SAPS   H7X  497   6.616   3.965   9.514 -1.4485  1.1640  0.7762
    4SAPS   H7Y  498   6.445   3.944   9.487  0.4871  0.2378 -2.9733
    4SAPS   C38  499   6.563   3.802   9.377  0.2256  0.6287  0.6352
    4SAPS   H8X  500   6.484   3.726   9.392  1.2225 -0.2670  1.5630
    4SAPS   H8Y  501   6.665   3.757   9.384  0.1127  0.5328  2.0506
    4SAPS   C39  502   6.543   3.888   9.256  0.2547 -0.0458  0.7186
    4SAPS   H9X  503   6.614   3.973   9.253  1.0192 -0.6246  1.7229
    4SAPS   H9Y  504   6.442   3.934   9.257  0.4313  0.5634 -1.8679
    4SAPS  C310  505   6.551   3.806   9.129 -0.6026 -0.4198  0.6594
    4SAPS  H10X  506   6.468   3.732   9.124  0.0610 -1.1171 -0.2139
    4SAPS  H10Y  507   6.643   3.743   9.123 -1.1325 -1.2018  0.5053
    4SAPS  C311  508   6.556   3.891   9.002 -0.2045 -0.0910 -0.2653
    4SAPS  H11X  509   6.637   3.967   9.009  0.9676 -1.4147  2.6196
    4SAPS  H11Y  510   6.459   3.945   9.004 -1.0678 -1.6033 -0.0026
    4SAPS  C312  511   6.576   3.813   8.873 -0.9483  0.4325  0.0897
    4SAPS  H12X  512   6.488   3.748   8.852  0.9703 -1.4596 -2.7065
    4SAPS  H12Y  513   6.665   3.747   8.882 -1.1345  0.2229  0.4670
    4SAPS  C313  514   6.598   3.907   8.753  0.3098  1.0071 -0.2738
    4SAPS  H13X  515   6.699   3.952   8.759  0.4583  0.5933  0.4546
    4SAPS  H13Y  516   6.525   3.990   8.759 -1.2785 -0.3142 -0.4890
    4SAPS  C314  517   6.544   3.847   8.616 -0.3243  0.3917  0.0086
    4SAPS  H14X  518   6.443   3.803   8.621  0.2725 -1.0808 -0.4270
    4SAPS  H14Y  519   6.618   3.771   8.581  1.0463  2.7887 -2.8137
    4SAPS  C315  520   6.542   3.959   8.508  0.0155  0.3369 -0.0042
    4SAPS  H15X  521   6.622   4.036   8.516 -0.8641  1.2152  0.5670
    4SAPS  H15Y  522   6.457   4.024   8.538 -0.2085 -0.3301  0.8772
    4SAPS  C316  523   6.539   3.903   8.368  0.6917  0.5642 -0.1849
    4SAPS  H16X  524   6.641   3.874   8.334  0.6228 -1.2188  1.0332
    4SAPS  H16Y  525   6.507   3.976   8.290  0.0839 -0.9274 -1.3809
    4SAPS  C317  526   6.446   3.779   8.343 -0.0300 -0.1635  0.1761
    4SAPS  H17X  527   6.348   3.799   8.391  0.3712  4.6933 -0.4997
    4SAPS  H17Y  528   6.493   3.696   8.401 -2.0087 -1.0509  0.5822
    4SAPS  C318  529   6.431   3.714   8.209 -0.4226 -0.4674  0.4964
    4SAPS  H18X  530   6.532   3.696   8.164 -0.3249  0.4012  0.3536
    4SAPS  H18Y  531   6.353   3.766   8.149  1.9306  0.8517 -1.6065
    4SAPS  H18Z  532   6.393   3.612   8.231 -3.0042  0.3952  0.3994
    5SAPS     N  533   2.338   6.303  10.837  0.1603  0.3924  0.3016
    5SAPS   HN1  534   2.315   6.208  10.800 -1.1583  0.1606  1.6217
    5SAPS   HN2  535   2.331   6.297  10.940  2.4298  0.8655  0.5454
    5SAPS   HN3  536   2.266   6.373  10.809 -0.7391  0.5406  2.7842
    5SAPS   C12  537   2.478   6.346  10.807  0.6805  0.9340  0.3849
    5SAPS  H12A  538   2.489   6.447  10.843  3.3983 -0.3181  3.5691
    5SAPS   C13  539   2.567   6.257  10.900 -0.1027 -0.1581  1.1453
    5SAPS  O13A  540   2.511   6.163  10.968  0.2148  0.3632  0.2679
    5SAPS  O13B  541   2.691   6.270  10.902 -0.1714  0.0215 -0.7910
    5SAPS   C11  542   2.520   6.309  10.659  0.0747 -0.5475 -0.4582
    5SAPS  H11A  543   2.522   6.198  10.655  3.3839 -0.5926 -0.6694
    5SAPS  H11B  544   2.626   6.339  10.643 -0.0759  0.1211 -0.2443
    5SAPS     P  545   2.422   6.496  10.499 -0.1957 -0.2087  0.3106
    5SAPS   O13  546   2.286   6.526  10.458 -0.5014  0.8772  0.2708
    5SAPS   O14  547   2.492   6.596  10.580  0.0418 -0.5465 -0.3521
    5SAPS   O12  548   2.427   6.359  10.565  0.5871  0.0999 -0.2327
    5SAPS   O11  549   2.509   6.477  10.372 -0.1811  0.2392  0.3742
    5SAPS    C1  550   2.613   6.383  10.344 -0.1451  0.5879  0.6308
    5SAPS    HA  551   2.714   6.422  10.367  0.7054 -1.7163  1.0834
    5SAPS    HB  552   2.592   6.289  10.399  5.0097 -0.7884  0.6957
    5SAPS    C2  553   2.610   6.337  10.196 -0.4957 -0.3383 -0.2851
    5SAPS    HS  554   2.692   6.263  10.186  1.2369  1.4644  0.0595
    5SAPS   O21  555   2.635   6.449  10.103 -0.1014 -0.3256 -0.3814
    5SAPS   C21  556   2.761   6.472  10.091  0.2746 -0.2992  0.0487
    5SAPS   O22  557   2.853   6.411  10.146 -0.1050 -0.0648  0.4387
    5SAPS   C22  558   2.773   6.582   9.988  0.1952 -0.3712 -0.1681
    5SAPS   H2R  559   2.672   6.613   9.955  0.2783 -0.2996 -0.3594
    5SAPS   H2S  560   2.814   6.675  10.035 -1.8582  0.4789  0.0368
    5SAPS    C3  561   2.467   6.276  10.154  0.0199 -0.7942 -0.2671
    5SAPS    HX  562   2.380   6.333  10.193  0.0052 -1.2287  0.3654
    5SAPS    HY  563   2.459   6.180  10.210  0.6924 -0.8864 -0.3236
    5SAPS   O31  564   2.468   6.244  10.015  0.2930  0.4258 -0.2128
    5SAPS   C31  565   2.421   6.335   9.929  0.0286  0.6085  0.4671
    5SAPS   O32  566   2.396   6.450   9.946 -0.1924  0.2780 -1.1535
    5SAPS   C32  567   2.404   6.262   9.799  0.0193 -0.5299 -0.4528
    5SAPS   H2X  568   2.337   6.174   9.805  0.2829 -0.8111 -1.4068
    5SAPS   H2Y  569   2.500   6.212   9.771 -1.1309 -1.7823 -2.3471
    5SAPS   C23  570   2.856   6.546   9.866 -0.4324  0.2026 -0.7541
    5SAPS   H3R  571   2.939   6.476   9.891  0.4373  0.5455 -2.5374
    5SAPS   H3S  572   2.907   6.633   9.819  2.1130 -0.5859  0.3741
    5SAPS   C24  573   2.777   6.470   9.753  0.5949  0.2146  1.5247
    5SAPS   H4R  574   2.707   6.394   9.794 -0.8914 -0.7870 -2.3736
    5SAPS   H4S  575   2.848   6.419   9.684 -0.8595 -1.3715  1.1368
    5SAPS   C25  576   2.684   6.570   9.686  0.4492 -0.4884  0.0119
    5SAPS   H5R  577   2.605   6.602   9.756  0.6181 -0.9046  0.3974
    5SAPS   C26  578   2.700   6.635   9.565 -0.1589  0.4972 -0.2688
    5SAPS   H6R  579   2.631   6.717   9.540 -1.2417 -0.5511 -0.8266
    5SAPS   C27  580   2.818   6.612   9.476  0.1823 -0.7949 -0.5013
    5SAPS   H7R  581   2.905   6.592   9.542 -0.5507 -4.1730 -0.3586
    5SAPS   H7S  582   2.838   6.706   9.421  0.2034 -0.5969 -0.1538
    5SAPS   C28  583   2.797   6.494   9.379  0.3372 -0.0047  1.0749
    5SAPS   H8R  584   2.790   6.393   9.422 -0.9213 -1.5508 -2.3876
    5SAPS   C29  585   2.780   6.502   9.241 -0.1048  0.2006 -0.0901
    5SAPS   H9R  586   2.769   6.405   9.190  1.6278 -0.6453  1.0380
    5SAPS  C210  587   2.766   6.627   9.157 -0.6362 -0.2389  0.3997
    5SAPS  H10R  588   2.754   6.723   9.210  0.2451 -1.0675  2.1991
    5SAPS  H10S  589   2.680   6.626   9.087  0.8001 -0.0177 -1.4526
    5SAPS  C211  590   2.882   6.639   9.057  0.1525 -0.7934 -0.4050
    5SAPS  H11R  591   2.931   6.545   9.029 -3.0667 -2.6722 -0.1276
    5SAPS  C212  592   2.926   6.756   9.006  0.2820 -0.3001  0.3972
    5SAPS  H12R  593   2.992   6.756   8.919 -1.8738 -0.8250 -1.3208
    5SAPS  C213  594   2.851   6.887   9.041 -0.5451  0.2434 -0.4088
    5SAPS  H13R  595   2.921   6.963   9.081 -1.3367 -0.8491  3.5404
    5SAPS  H13S  596   2.772   6.881   9.119 -1.1289 -2.2927 -1.1068
    5SAPS  C214  597   2.774   6.934   8.921  0.1813 -1.1492  0.3242
    5SAPS  H14R  598   2.741   6.860   8.847 -1.4743 -0.3185  0.2014
    5SAPS  C215  599   2.772   7.062   8.873  0.6097 -0.1811  0.2602
    5SAPS  H15R  600   2.707   7.078   8.787 -1.4143 -0.4841  1.6684
    5SAPS  C216  601   2.813   7.186   8.942 -0.1468  0.0316  0.1818
    5SAPS  H16R  602   2.812   7.179   9.053  0.0033 -4.4464  0.0624
    5SAPS  H16S  603   2.758   7.270   8.894 -1.8444 -0.5253  1.0838
    5SAPS  C217  604   2.963   7.206   8.916 -0.2422 -0.3721 -0.1393
    5SAPS  H17R  605   3.027   7.124   8.956 -0.8625  0.0719  1.8615
    5SAPS  H17S  606   2.990   7.291   8.983 -0.4782 -0.5540  0.1904
    5SAPS  C218  607   2.996   7.238   8.768 -1.5966  0.0745  0.0692
    5SAPS  H18R  608   2.942   7.178   8.691 -0.9761  1.1723 -1.2589
    5SAPS  H18S  609   2.987   7.344   8.737 -0.2571 -0.7523 -3.6696
    5SAPS  C219  610   3.151   7.212   8.757 -0.1857 -0.0673  0.0646
    5SAPS  H19R  611   3.160   7.102   8.761 -1.7323 -0.3116 -1.7007
    5SAPS  H19S  612   3.192   7.254   8.851 -0.8933  0.2107  0.2562
    5SAPS  C220  613   3.212   7.268   8.631 -0.1020  0.0610 -0.0704
    5SAPS  H20R  614   3.148   7.350   8.591 -2.5113 -0.7519  1.9180
    5SAPS  H20S  615   3.217   7.187   8.556 -1.2385  0.8298 -1.0116
    5SAPS  H20T  616   3.316   7.300   8.654 -0.8450  1.6597  1.2857
    5SAPS   C33  617   2.357   6.363   9.694 -0.6366 -0.3873  0.7506
    5SAPS   H3X  618   2.409   6.461   9.688  0.7886 -1.2113 -1.5407
    5SAPS   H3Y  619   2.248   6.381   9.696 -0.7649 -0.2686 -2.4101
    5SAPS   C34  620   2.387   6.297   9.556 -0.2827 -0.7884  0.4255
    5SAPS   H4X  621   2.307   6.221   9.546  0.3148 -1.9692  3.4684
    5SAPS   H4Y  622   2.485   6.246   9.552  0.5603  0.7328  0.9907
    5SAPS   C35  623   2.397   6.394   9.431  0.0211  0.4493 -0.5877
    5SAPS   H5X  624   2.465   6.478   9.456  2.1983 -1.4296  0.0934
    5SAPS   H5Y  625   2.297   6.439   9.413 -1.3351 -1.9887  0.3310
    5SAPS   C36  626   2.452   6.320   9.315  0.3147 -0.3561  0.0648
    5SAPS   H6X  627   2.403   6.220   9.320 -1.6293  0.6154  1.4488
    5SAPS   H6Y  628   2.562   6.315   9.327  0.2860  0.0160  0.5311
    5SAPS   C37  629   2.430   6.396   9.184  0.0713 -0.3140  0.0602
    5SAPS   H7X  630   2.477   6.496   9.194 -2.4899  0.8584  1.4274
    5SAPS   H7Y  631   2.320   6.404   9.177  0.1174  0.4177  0.1086
    5SAPS   C38  632   2.484   6.322   9.060  0.6602 -0.0239 -0.9341
    5SAPS   H8X  633   2.448   6.217   9.060  1.0377 -0.1587 -0.4489
    5SAPS   H8Y  634   2.594   6.305   9.066  0.4437 -1.3255 -0.3907
    5SAPS   C39  635   2.436   6.393   8.932  0.7299 -0.1774  0.8988
    5SAPS   H9X  636   2.436   6.503   8.951 -1.8687  0.3869 -1.5819
    5SAPS   H9Y  637   2.332   6.368   8.899  0.9023 -0.9095  0.8944
    5SAPS  C310  638   2.538   6.360   8.813  0.4495  0.2786  0.0523
    5SAPS  H10X  639   2.553   6.250   8.800  1.1759  0.5223 -1.2710
    5SAPS  H10Y  640   2.639   6.396   8.839  0.2911 -0.3468  1.6601
    5SAPS  C311  641   2.491   6.414   8.675  0.0558  0.4328 -0.2531
    5SAPS  H11X  642   2.392   6.373   8.649  0.1536  0.7706 -1.1976
    5SAPS  H11Y  643   2.574   6.386   8.607  0.5310  0.1129  0.4423
    5SAPS  C312  644   2.470   6.564   8.674  0.0706  0.1367 -0.5981
    5SAPS  H12X  645   2.431   6.608   8.769  0.5938  1.3353 -0.9205
    5SAPS  H12Y  646   2.400   6.599   8.596  2.0177  1.9531 -1.6423
    5SAPS  C313  647   2.604   6.642   8.645  0.1967 -0.3276 -0.4899
    5SAPS  H13X  648   2.676   6.577   8.700 -0.5752 -1.8943 -1.2874
    5SAPS  H13Y  649   2.612   6.743   8.690 -0.2496 -0.3085 -0.4503
    5SAPS  C314  650   2.647   6.651   8.498 -0.2336  0.7279  0.7140
    5SAPS  H14X  651   2.572   6.716   8.447 -0.3403  1.1020  1.3312
    5SAPS  H14Y  652   2.663   6.550   8.454  0.6273  0.7823  0.8890
    5SAPS  C315  653   2.784   6.721   8.485 -0.1884  0.1240 -0.2471
    5SAPS  H15X  654   2.851   6.636   8.511 -1.5105 -0.9752 -0.3598
    5SAPS  H15Y  655   2.786   6.803   8.560 -0.8178 -1.1811  1.2578
    5SAPS  C316  656   2.806   6.757   8.332  0.1182 -0.6192 -0.2429
    5SAPS  H16X  657   2.736   6.829   8.283  2.1446 -0.3819 -3.0251
    5SAPS  H16Y  658   2.800   6.662   8.274 -2.6913 -0.5319 -0.2362
    5SAPS  C317  659   2.950   6.802   8.305  0.2388 -0.8208 -0.2622
    5SAPS  H17X  660   2.976   6.788   8.198 -0.6189  1.6976 -0.8654
    5SAPS  H17Y  661   3.030   6.741   8.351  2.7133  1.4930 -1.2927
    5SAPS  C318  662   2.965   6.948   8.346 -0.5711  0.8341 -0.5105
    5SAPS  H18X  663   3.065   6.950   8.396 -1.1615  1.1579  0.7085
    5SAPS  H18Y  664   2.897   6.959   8.433 -2.0750 -5.1269 -0.5299
    5SAPS  H18Z  665   2.947   7.011   8.257 -1.2173  0.7827 -0.4163
    6SAPS     N  666   3.103   5.582  11.136 -0.8604  0.0263  0.1153
    6SAPS   HN1  667   3.128   5.681  11.160  0.7223 -0.8154  2.2548
    6SAPS   HN2  668   3.042   5.569  11.053 -2.9894 -1.9931  1.8630
    6SAPS   HN3  669   3.055   5.534  11.214 -0.0712 -0.3451  0.3809
    6SAPS   C12  670   3.221   5.492  11.106  0.9499  0.7336 -0.9906
    6SAPS  H12A  671   3.254   5.468  11.206 -3.7102 -0.1456  0.5817
    6SAPS   C13  672   3.182   5.354  11.039  0.1904 -0.5659 -0.1402
    6SAPS  O13A  673   3.066   5.339  10.984 -0.1329  0.0630 -0.5939
    6SAPS  O13B  674   3.275   5.267  11.025  0.1807 -0.1730  0.1500
    6SAPS   C11  675   3.309   5.568  11.001 -0.2213 -0.0797 -0.0974
    6SAPS  H11A  676   3.401   5.507  10.997 -0.8366 -0.9700 -2.2674
    6SAPS  H11B  677   3.335   5.663  11.053 -1.4964  1.1046 -1.5259
    6SAPS     P  678   3.290   5.715  10.797 -0.2267  0.1380 -0.1039
    6SAPS   O13  679   3.242   5.706  10.661  0.0466  0.2504  0.0913
    6SAPS   O14  680   3.247   5.834  10.877  0.3220 -0.3175 -0.0052
    6SAPS   O12  681   3.246   5.583  10.876 -0.3638  0.0371  0.0643
    6SAPS   O11  682   3.443   5.699  10.801 -0.2357 -0.7763 -0.0561
    6SAPS    C1  683   3.527   5.611  10.735 -0.9885 -0.0175 -0.3442
    6SAPS    HA  684   3.615   5.600  10.803  0.0851  3.2737 -0.9994
    6SAPS    HB  685   3.472   5.516  10.726 -3.6032  1.2577  0.9953
    6SAPS    C2  686   3.598   5.677  10.613  0.8554  0.3299 -0.5828
    6SAPS    HS  687   3.623   5.782  10.639  0.5491  0.4503 -0.7618
    6SAPS   O21  688   3.508   5.651  10.502  0.3447 -0.1620  0.0312
    6SAPS   C21  689   3.472   5.759  10.433 -0.7241 -0.8372 -0.6877
    6SAPS   O22  690   3.494   5.875  10.463 -0.5863 -0.0335  0.1371
    6SAPS   C22  691   3.426   5.716  10.296 -0.4278  0.1378 -0.2802
    6SAPS   H2R  692   3.516   5.694  10.234 -2.3314 -0.0400 -3.2078
    6SAPS   H2S  693   3.359   5.628  10.294 -0.0795 -0.2437  2.1099
    6SAPS    C3  694   3.740   5.605  10.586 -0.0854  0.0865 -0.0780
    6SAPS    HX  695   3.702   5.504  10.560 -1.4445  0.2671  1.0793
    6SAPS    HY  696   3.794   5.596  10.683  1.2834 -0.0760 -0.8259
    6SAPS   O31  697   3.819   5.684  10.488  0.0982 -0.4757 -0.0861
    6SAPS   C31  698   3.793   5.642  10.360  0.7820 -0.4724  0.0420
    6SAPS   O32  699   3.720   5.549  10.331  0.1612  0.8210  0.4548
    6SAPS   C32  700   3.857   5.738  10.260  0.4025 -0.5931 -0.1969
    6SAPS   H2X  701   3.965   5.711  10.251  0.5078  0.3363 -2.3093
    6SAPS   H2Y  702   3.855   5.842  10.298 -2.6006 -0.2313 -1.1485
    6SAPS   C23  703   3.354   5.843  10.230 -0.4378  0.6589 -0.1035
    6SAPS   H3R  704   3.404   5.939  10.255 -1.5766  1.4647 -0.8333
    6SAPS   H3S  705   3.248   5.847  10.262 -0.6794 -2.5133 -0.1375
    6SAPS   C24  706   3.347   5.823  10.079 -0.0182  0.4146  0.0329
    6SAPS   H4R  707   3.288   5.732  10.055  1.9122 -1.4609  1.9658
    6SAPS   H4S  708   3.450   5.809  10.040  0.0404  1.9646 -0.4260
    6SAPS   C25  709   3.277   5.935  10.006 -0.1907 -1.0163 -0.3733
    6SAPS   H5R  710   3.202   5.990  10.065 -0.8543 -1.8424 -0.4259
    6SAPS   C26  711   3.277   5.970   9.876 -0.6032 -0.6418 -0.4536
    6SAPS   H6R  712   3.225   6.057   9.834  0.4484 -0.7120 -1.9625
    6SAPS   C27  713   3.353   5.902   9.771  0.1292 -0.3941  0.2403
    6SAPS   H7R  714   3.453   5.872   9.808 -0.3785 -0.4393  1.6391
    6SAPS   H7S  715   3.374   5.981   9.695 -0.5711  0.1377  0.5841
    6SAPS   C28  716   3.277   5.784   9.707  0.0466 -0.2519 -0.7999
    6SAPS   H8R  717   3.242   5.721   9.790  0.6774  1.4643  0.8378
    6SAPS   C29  718   3.233   5.748   9.587 -0.9497  0.0664  0.3815
    6SAPS   H9R  719   3.183   5.652   9.566 -1.0228  0.1676  0.0958
    6SAPS  C210  720   3.254   5.829   9.459 -0.2764 -0.4264  0.2681
    6SAPS  H10R  721   3.224   5.936   9.462  3.9364  1.0356 -1.4284
    6SAPS  H10S  722   3.199   5.785   9.373  1.7865 -0.2838 -1.2173
    6SAPS  C211  723   3.397   5.848   9.421 -0.5975 -0.0094  0.0044
    6SAPS  H11R  724   3.460   5.880   9.505 -2.9770  1.4601  1.3707
    6SAPS  C212  725   3.450   5.832   9.304  0.1650  0.6742 -0.0202
    6SAPS  H12R  726   3.555   5.857   9.285 -0.3291  0.8577 -3.0637
    6SAPS  C213  727   3.379   5.800   9.173 -0.4870 -0.2066  0.6986
    6SAPS  H13R  728   3.299   5.723   9.186 -1.1217  0.0323 -1.4667
    6SAPS  H13S  729   3.442   5.741   9.104 -1.9084 -1.6849  0.5961
    6SAPS  C214  730   3.335   5.927   9.103  0.7454 -0.0823 -0.5977
    6SAPS  H14R  731   3.331   6.015   9.168 -0.7320 -0.3553 -0.2921
    6SAPS  C215  732   3.285   5.934   8.979 -0.0637  0.6529  0.7922
    6SAPS  H15R  733   3.250   6.032   8.942 -0.9817 -0.0104 -0.1646
    6SAPS  C216  734   3.276   5.819   8.876 -1.1197  0.0356  0.6436
    6SAPS  H16R  735   3.178   5.811   8.823 -0.7467  0.8775 -0.1905
    6SAPS  H16S  736   3.288   5.720   8.926 -2.3520  0.5469  2.0616
    6SAPS  C217  737   3.382   5.827   8.772 -0.7428  0.3292  0.7270
    6SAPS  H17R  738   3.384   5.733   8.712 -1.8805  0.9231 -0.3085
    6SAPS  H17S  739   3.478   5.846   8.824 -0.6496 -0.3111  0.8015
    6SAPS  C218  740   3.364   5.950   8.678 -0.3258 -0.6159  0.0767
    6SAPS  H18R  741   3.420   6.036   8.721 -2.4434  1.0841 -0.3910
    6SAPS  H18S  742   3.259   5.984   8.686 -0.0984  0.0322  0.3715
    6SAPS  C219  743   3.385   5.918   8.529 -0.5932 -0.0159 -0.2509
    6SAPS  H19R  744   3.289   5.880   8.489 -0.8762  1.7219 -1.3585
    6SAPS  H19S  745   3.455   5.834   8.512 -0.3383  0.2523 -0.5475
    6SAPS  C220  746   3.415   6.045   8.440  0.5666  0.2226 -0.2612
    6SAPS  H20R  747   3.521   6.073   8.456  0.6222 -0.2909  0.2597
    6SAPS  H20S  748   3.346   6.132   8.452 -0.9376 -1.0671  0.6980
    6SAPS  H20T  749   3.412   6.022   8.331  0.1955 -0.8132 -0.0376
    6SAPS   C33  750   3.780   5.725  10.123  0.9409 -0.4506  0.5441
    6SAPS   H3X  751   3.674   5.758  10.132  0.8970 -0.7348  1.1063
    6SAPS   H3Y  752   3.772   5.618  10.093 -0.1048 -0.0355 -0.7569
    6SAPS   C34  753   3.858   5.781  10.004 -0.0156  0.2456 -0.6323
    6SAPS   H4X  754   3.951   5.723   9.986  0.9866  1.5780  0.0412
    6SAPS   H4Y  755   3.884   5.883  10.039  0.4173  0.0404 -0.3524
    6SAPS   C35  756   3.775   5.788   9.870  0.4566  0.2524 -0.2126
    6SAPS   H5X  757   3.669   5.812   9.893 -0.0504 -2.0470  0.1588
    6SAPS   H5Y  758   3.780   5.688   9.821 -0.2909 -0.8081  1.7769
    6SAPS   C36  759   3.825   5.907   9.778  0.1714 -0.2828  0.1372
    6SAPS   H6X  760   3.933   5.901   9.753  0.6802  0.6151  1.9291
    6SAPS   H6Y  761   3.813   6.003   9.834 -2.1763  1.5335 -3.1121
    6SAPS   C37  762   3.746   5.930   9.646 -0.8613 -0.1255 -0.3645
    6SAPS   H7X  763   3.638   5.947   9.666 -0.8492 -1.3435  0.9356
    6SAPS   H7Y  764   3.745   5.832   9.592  1.5688 -1.1457  1.2802
    6SAPS   C38  765   3.807   6.035   9.551  0.2779 -0.4229 -0.5068
    6SAPS   H8X  766   3.916   6.015   9.537 -0.0734 -1.6451 -1.8615
    6SAPS   H8Y  767   3.791   6.132   9.601 -1.2860 -2.2669  2.9365
    6SAPS   C39  768   3.735   6.039   9.419  0.4594 -0.0609 -0.3600
    6SAPS   H9X  769   3.625   6.038   9.431  0.5201 -1.1704  0.2547
    6SAPS   H9Y  770   3.764   5.947   9.364 -0.7629 -1.0928  0.6615
    6SAPS  C310  771   3.778   6.167   9.350  0.0981  0.0883  0.0342
    6SAPS  H10X  772   3.889   6.173   9.341  0.3368 -1.7507  1.0962
    6SAPS  H10Y  773   3.742   6.252   9.411  2.0520 -0.4858  2.1404
    6SAPS  C311  774   3.719   6.171   9.203  0.2111 -0.7098 -0.3510
    6SAPS  H11X  775   3.733   6.274   9.164  2.7623 -0.9918 -0.3274
    6SAPS  H11Y  776   3.608   6.164   9.215 -0.0526  0.4738 -1.7000
    6SAPS  C312  777   3.768   6.070   9.102  0.0466 -0.4467  0.0494
    6SAPS  H12X  778   3.718   5.972   9.114 -0.5058 -0.5128 -2.2385
    6SAPS  H12Y  779   3.874   6.044   9.124  0.0283 -1.4386 -0.9610
    6SAPS  C313  780   3.780   6.120   8.961  0.3062 -0.6912 -0.6121
    6SAPS  H13X  781   3.835   6.045   8.899  1.6274 -1.7114  1.6906
    6SAPS  H13Y  782   3.843   6.212   8.962 -0.6036 -0.0328  1.2499
    6SAPS  C314  783   3.651   6.149   8.887  0.4818 -0.5066  0.0165
    6SAPS  H14X  784   3.600   6.229   8.944  2.4585  1.8492 -1.3186
    6SAPS  H14Y  785   3.585   6.061   8.903  0.4692 -0.5257 -0.1351
    6SAPS  C315  786   3.657   6.210   8.743  0.0020  0.7860 -1.0258
    6SAPS  H15X  787   3.551   6.236   8.725 -0.1041  1.7732  0.7666
    6SAPS  H15Y  788   3.685   6.132   8.669  0.7419 -2.2844  2.2194
    6SAPS  C316  789   3.734   6.347   8.733  0.4771  0.3672 -0.3069
    6SAPS  H16X  790   3.748   6.376   8.627  0.8447  1.6452  0.0632
    6SAPS  H16Y  791   3.837   6.341   8.775 -0.3797 -2.5049  1.6712
    6SAPS  C317  792   3.657   6.464   8.788 -0.3527  0.4216 -0.1457
    6SAPS  H17X  793   3.674   6.467   8.897 -2.2488 -0.2978  0.1962
    6SAPS  H17Y  794   3.549   6.443   8.780 -0.2406  0.1072 -0.9322
    6SAPS  C318  795   3.681   6.596   8.713 -0.2311  0.2224 -0.1160
    6SAPS  H18X  796   3.790   6.613   8.699 -0.1077 -1.4595 -1.6530
    6SAPS  H18Y  797   3.626   6.685   8.750 -2.6747 -0.3377 -2.1405
    6SAPS  H18Z  798   3.653   6.592   8.605  0.0421  0.7400 -0.2094
    7SAPS     N  799   5.260   2.172  10.837  0.1131  0.8710  0.0084
    7SAPS   HN1  800   5.308   2.169  10.744  2.4072 -0.3025  1.1415
    7SAPS   HN2  801   5.159   2.158  10.819  0.5397  0.7161 -2.7039
    7SAPS   HN3  802   5.284   2.262  10.884 -1.8797  1.5717 -0.2236
    7SAPS   C12  803   5.291   2.055  10.925  0.6878 -0.5281  0.1317
    7SAPS  H12A  804   5.398   2.047  10.914  0.7881 -0.1824  0.7987
    7SAPS   C13  805   5.277   2.083  11.073  0.1833  0.2590  0.3139
    7SAPS  O13A  806   5.249   2.197  11.110  0.2460  0.6191  0.0750
    7SAPS  O13B  807   5.311   1.988  11.154  0.0397 -0.0795 -0.2203
    7SAPS   C11  808   5.204   1.931  10.879  0.0622 -0.1122  0.6342
    7SAPS  H11A  809   5.095   1.948  10.892 -0.2578  1.4740 -2.9110
    7SAPS  H11B  810   5.247   1.841  10.927  2.9518  1.3692  1.0118
    7SAPS     P  811   5.272   1.782  10.672 -0.8732 -0.0929  0.3330
    7SAPS   O13  812   5.422   1.765  10.687  0.2618  0.5679 -0.4530
    7SAPS   O14  813   5.184   1.669  10.715  0.2891 -0.4394 -0.1929
    7SAPS   O12  814   5.234   1.917  10.742 -0.3373 -0.1667  0.6088
    7SAPS   O11  815   5.240   1.804  10.515 -0.5530  0.0229  0.3286
    7SAPS    C1  816   5.256   1.927  10.451  0.1169 -0.3374  0.1497
    7SAPS    HA  817   5.172   1.992  10.484 -0.2003 -0.2680 -0.7797
    7SAPS    HB  818   5.345   1.981  10.491 -1.2442  2.0833  0.1402
    7SAPS    C2  819   5.264   1.910  10.298 -0.6788 -0.5157 -0.2754
    7SAPS    HS  820   5.298   2.004  10.250 -2.3427  0.6488  0.7141
    7SAPS   O21  821   5.138   1.870  10.235  0.1012  0.1625 -1.1420
    7SAPS   C21  822   5.045   1.967  10.227 -0.3410 -0.0902  0.4641
    7SAPS   O22  823   5.068   2.088  10.254 -0.0591  0.3150  0.2743
    7SAPS   C22  824   4.916   1.903  10.183 -0.7001  0.1244 -1.0933
    7SAPS   H2R  825   4.854   1.881  10.272 -1.3266 -1.9885 -1.9810
    7SAPS   H2S  826   4.870   1.987  10.126 -0.4650  0.5328 -0.6825
    7SAPS    C3  827   5.384   1.813  10.273 -0.2092  1.1326  0.6480
    7SAPS    HX  828   5.344   1.716  10.309 -0.8915  1.4503  0.7545
    7SAPS    HY  829   5.480   1.824  10.327  1.5355 -1.5781 -1.6049
    7SAPS   O31  830   5.416   1.797  10.132 -0.1965 -0.7896  0.3587
    7SAPS   C31  831   5.485   1.899  10.082 -0.6837 -0.6130 -0.1249
    7SAPS   O32  832   5.546   1.991  10.144  0.0128 -0.1941 -0.1444
    7SAPS   C32  833   5.502   1.882   9.935 -0.7137  0.3557  0.2339
    7SAPS   H2X  834   5.575   1.799   9.919 -0.3012  0.6439  0.5849
    7SAPS   H2Y  835   5.555   1.973   9.901  1.0819 -0.9983 -0.7944
    7SAPS   C23  836   4.913   1.769  10.101  0.1266  0.4574  0.4588
    7SAPS   H3R  837   4.809   1.730  10.107  0.4617 -0.2356  2.6107
    7SAPS   H3S  838   4.982   1.689  10.136  1.4848  0.9797 -0.8981
    7SAPS   C24  839   4.943   1.787   9.950 -0.8279  0.2976 -0.7672
    7SAPS   H4R  840   4.936   1.686   9.903 -0.8491  0.1601 -0.4721
    7SAPS   H4S  841   5.048   1.821   9.937 -0.5658 -0.5243 -0.8648
    7SAPS   C25  842   4.839   1.873   9.882 -1.1514  0.0972 -0.2562
    7SAPS   H5R  843   4.737   1.870   9.922 -1.5422  1.0657 -1.1291
    7SAPS   C26  844   4.864   1.950   9.775 -0.7554 -0.0269  0.2523
    7SAPS   H6R  845   4.785   2.014   9.733 -0.4513  0.1605 -0.0412
    7SAPS   C27  846   4.996   1.965   9.699 -0.1312  0.0197  0.0279
    7SAPS   H7R  847   5.079   1.958   9.773 -0.8246 -0.5781  0.7697
    7SAPS   H7S  848   5.010   2.069   9.662  1.2602 -0.0682  0.2233
    7SAPS   C28  849   5.022   1.868   9.588  0.2935 -0.1944  0.9727
    7SAPS   H8R  850   5.029   1.762   9.615 -0.7310 -0.7545 -0.7830
    7SAPS   C29  851   4.994   1.886   9.457  0.4437  0.6866 -0.6724
    7SAPS   H9R  852   5.037   1.816   9.384  0.2201  0.4036 -0.5298
    7SAPS  C210  853   4.957   2.014   9.395 -0.7767  0.3337 -0.5868
    7SAPS  H10R  854   5.040   2.059   9.336 -1.0479 -1.0500 -2.0815
    7SAPS  H10S  855   4.920   2.091   9.465 -0.8439 -0.9605  0.8309
    7SAPS  C211  856   4.852   1.995   9.298  1.0627 -0.0129  0.2720
    7SAPS  H11R  857   4.758   1.953   9.336  1.8195 -0.8767  1.2658
    7SAPS  C212  858   4.829   2.048   9.175 -1.0961 -0.0340  0.3741
    7SAPS  H12R  859   4.734   2.029   9.125 -0.2706  1.5816 -2.0081
    7SAPS  C213  860   4.924   2.133   9.090  0.0326  0.0046 -0.4689
    7SAPS  H13R  861   4.884   2.136   8.986  0.8504  3.0728 -0.8075
    7SAPS  H13S  862   5.023   2.088   9.069 -0.7088 -1.7903 -0.2938
    7SAPS  C214  863   4.941   2.274   9.140 -0.3632 -0.5208 -0.4880
    7SAPS  H14R  864   4.995   2.292   9.234 -0.8651 -0.0139 -0.3010
    7SAPS  C215  865   4.890   2.381   9.078 -0.3795  0.2930 -0.3435
    7SAPS  H15R  866   4.941   2.471   9.115 -0.3388 -0.5147  1.7153
    7SAPS  C216  867   4.816   2.390   8.944  0.2827  0.2989 -0.1273
    7SAPS  H16R  868   4.737   2.467   8.959  0.3249  0.2631  0.2931
    7SAPS  H16S  869   4.774   2.293   8.908 -2.0589  0.5796  1.5942
    7SAPS  C217  870   4.910   2.437   8.831  0.3139 -1.0427  0.4887
    7SAPS  H17R  871   5.001   2.373   8.840  1.6839  0.8258  0.6545
    7SAPS  H17S  872   4.928   2.543   8.861  2.2630 -0.3398 -2.6241
    7SAPS  C218  873   4.841   2.434   8.692 -1.0774 -0.3897 -0.0992
    7SAPS  H18R  874   4.758   2.508   8.693 -0.8602 -0.1447 -0.2977
    7SAPS  H18S  875   4.793   2.334   8.687 -1.7994 -0.1676  1.5769
    7SAPS  C219  876   4.945   2.445   8.585  0.4043  0.0798  0.8954
    7SAPS  H19R  877   5.022   2.370   8.613 -1.0352 -1.3640  1.1397
    7SAPS  H19S  878   5.000   2.542   8.586 -0.0796  0.3562  1.1846
    7SAPS  C220  879   4.910   2.416   8.438 -0.1925  0.8808  0.3752
    7SAPS  H20R  880   4.812   2.457   8.407  0.0492  0.9170 -0.3473
    7SAPS  H20S  881   4.902   2.305   8.434 -2.2823  0.7770  3.5510
    7SAPS  H20T  882   4.981   2.450   8.360  0.5144 -1.4161 -0.0717
    7SAPS   C33  883   5.360   1.868   9.866  0.3785  0.2244  0.4612
    7SAPS   H3X  884   5.298   1.955   9.897  1.5299  1.5628 -0.8605
    7SAPS   H3Y  885   5.304   1.781   9.905  0.2991  0.5777  1.1570
    7SAPS   C34  886   5.369   1.863   9.710 -0.3307  0.8554  0.0710
    7SAPS   H4X  887   5.401   1.964   9.675 -1.1718  0.6714 -1.2770
    7SAPS   H4Y  888   5.266   1.852   9.671 -0.7141  2.7415  0.4383
    7SAPS   C35  889   5.473   1.769   9.666 -0.9309  0.2874  0.0933
    7SAPS   H5X  890   5.465   1.675   9.725  0.6720 -0.9350 -1.5332
    7SAPS   H5Y  891   5.574   1.807   9.695  0.4501 -2.9270 -0.1418
    7SAPS   C36  892   5.481   1.725   9.518 -0.1738  0.3985  0.1554
    7SAPS   H6X  893   5.557   1.644   9.510 -0.2474  0.1007  1.9462
    7SAPS   H6Y  894   5.521   1.800   9.447 -1.5392  0.2214 -0.8522
    7SAPS   C37  895   5.345   1.671   9.457  0.3207 -0.2558  0.3382
    7SAPS   H7X  896   5.286   1.765   9.461  2.4876  1.2165 -0.2663
    7SAPS   H7Y  897   5.319   1.602   9.539 -1.7974  0.2121  0.1068
    7SAPS   C38  898   5.350   1.603   9.321  0.1323  0.2250 -0.5383
    7SAPS   H8X  899   5.248   1.562   9.307 -0.0875  0.7223 -0.4062
    7SAPS   H8Y  900   5.418   1.517   9.341 -1.0858 -0.6857 -0.2368
    7SAPS   C39  901   5.403   1.681   9.194 -0.4603 -0.4201  0.0043
    7SAPS   H9X  902   5.498   1.735   9.213  0.3309 -0.9208 -2.2953
    7SAPS   H9Y  903   5.343   1.772   9.171  0.1053  0.6686  2.4937
    7SAPS  C310  904   5.413   1.599   9.061 -0.5476  0.3394 -0.3400
    7SAPS  H10X  905   5.310   1.562   9.040 -1.4527  0.5016  3.1253
    7SAPS  H10Y  906   5.490   1.520   9.074 -1.4152 -0.4889 -0.0981
    7SAPS  C311  907   5.448   1.679   8.929 -0.0966  0.5776  0.0754
    7SAPS  H11X  908   5.555   1.707   8.920 -0.2303  1.3019  0.6826
    7SAPS  H11Y  909   5.389   1.773   8.932 -1.6450 -0.3815  3.0320
    7SAPS  C312  910   5.411   1.614   8.792  0.0240 -0.4301  0.5951
    7SAPS  H12X  911   5.309   1.570   8.794 -0.1428 -0.0413  0.6888
    7SAPS  H12Y  912   5.471   1.524   8.766 -0.7326 -0.7963  0.0924
    7SAPS  C313  913   5.425   1.712   8.670  0.5736 -0.2741  0.0723
    7SAPS  H13X  914   5.443   1.653   8.577  2.6493  1.7798 -0.9009
    7SAPS  H13Y  915   5.516   1.773   8.688  0.2828  1.3544 -3.2173
    7SAPS  C314  916   5.305   1.797   8.651  0.2925 -0.9771  0.4011
    7SAPS  H14X  917   5.293   1.855   8.745  0.1303  0.8397 -0.7021
    7SAPS  H14Y  918   5.207   1.748   8.629 -0.5959  1.7971 -2.5396
    7SAPS  C315  919   5.308   1.896   8.539 -1.0756  0.2145 -0.1560
    7SAPS  H15X  920   5.316   1.854   8.436 -0.1407 -0.3584  0.1400
    7SAPS  H15Y  921   5.401   1.957   8.549  0.2226 -1.8205  0.8544
    7SAPS  C316  922   5.193   1.991   8.530 -0.0908  0.1291  0.2892
    7SAPS  H16X  923   5.174   2.029   8.632  1.1726  1.4529  0.0542
    7SAPS  H16Y  924   5.101   1.935   8.499  1.3342 -1.1142 -2.0156
    7SAPS  C317  925   5.198   2.117   8.442 -0.5833 -0.2531  0.4931
    7SAPS  H17X  926   5.093   2.153   8.428 -0.9732 -1.9906 -1.6304
    7SAPS  H17Y  927   5.229   2.078   8.343 -0.2780 -0.8262  0.8095
    7SAPS  C318  928   5.292   2.230   8.482  0.4701 -0.3044  0.3416
    7SAPS  H18X  929   5.261   2.266   8.582 -0.8288  0.4933 -0.3298
    7SAPS  H18Y  930   5.286   2.309   8.404 -0.4156 -0.4271  0.2835
    7SAPS  H18Z  931   5.400   2.204   8.495  0.5139 -0.1964  0.2038
    8SAPS     N  932   1.425   2.075  10.965 -0.2327 -0.3744 -0.4493
    8SAPS   HN1  933   1.529   2.074  10.967 -0.2254  0.5513  0.7517
    8SAPS   HN2  934   1.404   2.145  11.038 -0.1306 -0.1062 -0.6749
    8SAPS   HN3  935   1.391   1.980  10.993 -0.6324 -0.2249 -0.4235
    8SAPS   C12  936   1.372   2.123  10.832 -0.6249  0.6373  0.5322
    8SAPS  H12A  937   1.441   2.100  10.752 -0.6779 -0.1488  0.7067
    8SAPS   C13  938   1.231   2.063  10.794 -0.1489 -0.6150  0.1871
    8SAPS  O13A  939   1.177   1.976  10.870  0.2780 -0.0615  0.4189
    8SAPS  O13B  940   1.176   2.105  10.691 -0.0406  0.0249 -0.4803
    8SAPS   C11  941   1.356   2.274  10.841  0.2214 -0.5666 -0.2871
    8SAPS  H11A  942   1.266   2.299  10.901  0.7680  0.3784  0.1611
    8SAPS  H11B  943   1.327   2.308  10.739 -3.2517  0.1507  0.8091
    8SAPS     P  944   1.530   2.476  10.833  0.2045  0.5021  0.0682
    8SAPS   O13  945   1.430   2.585  10.847  0.0329  0.4620  0.0615
    8SAPS   O14  946   1.664   2.507  10.879  0.4675  0.5718  0.3413
    8SAPS   O12  947   1.472   2.338  10.891  0.3610  0.6300 -0.5595
    8SAPS   O11  948   1.544   2.432  10.675 -0.4541  0.0854 -0.2363
    8SAPS    C1  949   1.660   2.357  10.640  0.1111  0.6187  0.0684
    8SAPS    HA  950   1.726   2.342  10.728  2.6465  1.6860 -1.5215
    8SAPS    HB  951   1.634   2.258  10.597  3.1455  0.3950 -1.5545
    8SAPS    C2  952   1.747   2.434  10.535  0.2004  0.2521  0.0813
    8SAPS    HS  953   1.784   2.526  10.587  0.2399 -0.6303  1.6734
    8SAPS   O21  954   1.655   2.459  10.426  0.1096  0.0608 -0.8656
    8SAPS   C21  955   1.671   2.567  10.356  0.6278 -0.2918  0.3556
    8SAPS   O22  956   1.763   2.645  10.366  0.3236  0.0166 -0.1350
    8SAPS   C22  957   1.551   2.598  10.270  0.1458  0.2505  0.6284
    8SAPS   H2R  958   1.495   2.504  10.250  1.5265 -0.1891 -1.4849
    8SAPS   H2S  959   1.494   2.668  10.334  1.4903  1.2232  0.7992
    8SAPS    C3  960   1.862   2.345  10.489  0.1066 -0.1920 -0.1615
    8SAPS    HX  961   1.827   2.260  10.426  1.1741  0.3061 -1.4739
    8SAPS    HY  962   1.916   2.299  10.575 -1.1256 -1.4930 -0.0586
    8SAPS   O31  963   1.960   2.431  10.412 -0.0165 -0.1519 -0.2997
    8SAPS   C31  964   1.958   2.423  10.279  0.3992 -0.1090  0.4289
    8SAPS   O32  965   1.889   2.344  10.219  0.0599 -0.0937 -0.4794
    8SAPS   C32  966   2.030   2.545  10.224  0.6031  0.5822 -0.2777
    8SAPS   H2X  967   2.070   2.605  10.308  0.9835 -1.8170  1.3671
    8SAPS   H2Y  968   1.948   2.604  10.177  1.4098  0.7332 -1.5390
    8SAPS   C23  969   1.581   2.678  10.133  0.1244  0.2513 -0.1903
    8SAPS   H3R  970   1.610   2.783  10.150 -1.1396  0.7862 -1.1736
    8SAPS   H3S  971   1.485   2.696  10.080  0.3795 -1.0604 -1.1658
    8SAPS   C24  972   1.682   2.621  10.031  0.4679  0.2997 -0.1068
    8SAPS   H4R  973   1.779   2.606  10.083 -0.0782  2.2519  1.5858
    8SAPS   H4S  974   1.705   2.693   9.949  1.3869  0.8373  0.6058
    8SAPS   C25  975   1.628   2.494   9.976 -0.3398  1.0728 -0.5844
    8SAPS   H5R  976   1.599   2.416  10.048 -0.8907  0.8939 -0.9963
    8SAPS   C26  977   1.629   2.455   9.847 -0.0431 -0.7596  0.4814
    8SAPS   H6R  978   1.584   2.357   9.825 -0.4435 -0.1776 -1.5435
    8SAPS   C27  979   1.670   2.548   9.732 -0.2518  0.2424  0.3139
    8SAPS   H7R  980   1.737   2.632   9.759  2.3170 -2.3701  2.9979
    8SAPS   H7S  981   1.579   2.596   9.692 -0.9938 -1.5341 -0.2351
    8SAPS   C28  982   1.740   2.472   9.627  0.1755 -0.5468 -0.0998
    8SAPS   H8R  983   1.848   2.466   9.648  0.6542  1.9873 -1.4353
    8SAPS   C29  984   1.701   2.438   9.504  0.2308  0.0704  0.0459
    8SAPS   H9R  985   1.774   2.377   9.448 -1.1925 -0.2066 -1.6172
    8SAPS  C210  986   1.565   2.455   9.445 -0.1644 -0.3446 -0.0274
    8SAPS  H10R  987   1.498   2.498   9.523  0.0476  0.1273 -0.1033
    8SAPS  H10S  988   1.503   2.365   9.422 -3.0310  1.6452 -0.7291
    8SAPS  C211  989   1.569   2.555   9.337  0.8512 -1.1952  0.2854
    8SAPS  H11R  990   1.596   2.655   9.375  1.6773 -1.0083 -0.7493
    8SAPS  C212  991   1.538   2.547   9.204  0.1661  0.5681 -0.4050
    8SAPS  H12R  992   1.550   2.631   9.134  1.6663 -1.6088 -2.9436
    8SAPS  C213  993   1.495   2.417   9.136 -0.1265  0.5219 -0.6472
    8SAPS  H13R  994   1.445   2.437   9.039 -1.6351 -1.6506 -0.3777
    8SAPS  H13S  995   1.406   2.372   9.185  0.8440  0.0503  0.7356
    8SAPS  C214  996   1.592   2.310   9.129  0.5832  0.2577  0.2107
    8SAPS  H14R  997   1.670   2.320   9.205  2.5886  1.7160 -1.8937
    8SAPS  C215  998   1.605   2.233   9.018  0.0781 -0.0694 -0.0018
    8SAPS  H15R  999   1.682   2.154   9.009 -0.7589 -1.0836  1.3359
    8SAPS  C216 1000   1.501   2.217   8.905 -0.4160 -0.3634  0.3477
    8SAPS  H16R 1001   1.397   2.232   8.940 -0.6903  0.3300 -0.7142
    8SAPS  H16S 1002   1.505   2.114   8.864  1.5278  0.5563 -2.0765
    8SAPS  C217 1003   1.524   2.315   8.785  0.0541 -0.0045 -1.0480
    8SAPS  H17R 1004   1.618   2.283   8.734  0.2570  0.1587 -0.7768
    8SAPS  H17S 1005   1.529   2.420   8.820  1.0730 -0.1122 -0.8322
    8SAPS  C218 1006   1.418   2.309   8.681 -0.3207  0.3402  0.2235
    8SAPS  H18R 1007   1.463   2.346   8.586  1.2448  1.5941  1.4054
    8SAPS  H18S 1008   1.328   2.372   8.696 -0.7335 -0.6816  2.3062
    8SAPS  C219 1009   1.372   2.169   8.648  0.1367  0.7026 -0.6547
    8SAPS  H19R 1010   1.334   2.122   8.742 -0.0485  1.8853 -0.1243
    8SAPS  H19S 1011   1.458   2.110   8.610  0.6805  1.0395  0.0338
    8SAPS  C220 1012   1.276   2.175   8.525  0.5183 -0.3833  0.4273
    8SAPS  H20R 1013   1.225   2.080   8.499  0.6469 -0.5656  0.8278
    8SAPS  H20S 1014   1.332   2.199   8.432 -0.6439 -1.6277 -0.6487
    8SAPS  H20T 1015   1.190   2.244   8.530  1.6729  1.5229 -2.8625
    8SAPS   C33 1016   2.144   2.513  10.115  0.3742  0.6315  0.4935
    8SAPS   H3X 1017   2.219   2.440  10.153 -0.1097 -0.6321 -0.8813
    8SAPS   H3Y 1018   2.195   2.608  10.093  2.1793 -0.4077 -0.0086
    8SAPS   C34 1019   2.097   2.452   9.982  0.9661 -0.1658 -0.0930
    8SAPS   H4X 1020   2.018   2.516   9.936 -0.2199 -2.3805 -1.3128
    8SAPS   H4Y 1021   2.053   2.353  10.008 -0.6298  0.1798 -1.2959
    8SAPS   C35 1022   2.196   2.443   9.863 -0.0064 -0.1370 -0.6997
    8SAPS   H5X 1023   2.287   2.386   9.891 -1.6316 -1.5736  1.9283
    8SAPS   H5Y 1024   2.236   2.542   9.832  0.4602 -0.1106 -0.0310
    8SAPS   C36 1025   2.134   2.382   9.739  0.8593  0.3272  0.4491
    8SAPS   H6X 1026   2.027   2.406   9.724  0.3197 -1.9419  0.2016
    8SAPS   H6Y 1027   2.119   2.273   9.756  2.3337  0.1048  0.4863
    8SAPS   C37 1028   2.210   2.413   9.606  0.2653 -0.7128 -0.7856
    8SAPS   H7X 1029   2.312   2.368   9.615  0.2669 -0.5938 -0.1609
    8SAPS   H7Y 1030   2.220   2.523   9.610  0.0944 -0.7324  0.4780
    8SAPS   C38 1031   2.140   2.389   9.473  0.3572  0.2627  0.9955
    8SAPS   H8X 1032   2.050   2.454   9.468  0.7004  0.7513  1.1008
    8SAPS   H8Y 1033   2.109   2.282   9.464  0.7524  0.0869  1.6948
    8SAPS   C39 1034   2.232   2.416   9.351  0.9922 -0.5405  0.0307
    8SAPS   H9X 1035   2.336   2.407   9.389  0.1717  0.3877  2.7541
    8SAPS   H9Y 1036   2.208   2.519   9.317 -0.4981 -0.2761  1.7597
    8SAPS  C310 1037   2.207   2.317   9.238 -0.0046 -0.0228  0.5972
    8SAPS  H10X 1038   2.097   2.314   9.221 -0.0098 -0.7270  0.7110
    8SAPS  H10Y 1039   2.235   2.210   9.253  2.4913  0.2867 -1.2896
    8SAPS  C311 1040   2.265   2.361   9.102 -0.5979 -0.0947  0.4226
    8SAPS  H11X 1041   2.376   2.369   9.105 -0.6245  0.0111  1.0816
    8SAPS  H11Y 1042   2.218   2.460   9.080 -0.0033  0.6464  2.3248
    8SAPS  C312 1043   2.240   2.270   8.978 -0.0591  0.2839 -0.1840
    8SAPS  H12X 1044   2.130   2.280   8.965 -0.1608 -1.1293 -0.5911
    8SAPS  H12Y 1045   2.263   2.166   9.010  0.6104  0.2639 -0.7241
    8SAPS  C313 1046   2.310   2.323   8.860 -0.0859  0.7436 -0.4782
    8SAPS  H13X 1047   2.419   2.301   8.864 -0.3300 -0.3618  0.3902
    8SAPS  H13Y 1048   2.294   2.433   8.847  0.9938  0.6790 -2.9392
    8SAPS  C314 1049   2.264   2.253   8.728 -0.3051 -0.1656 -0.3544
    8SAPS  H14X 1050   2.269   2.144   8.748 -0.4825 -0.1502 -0.2234
    8SAPS  H14Y 1051   2.341   2.286   8.655  0.2365 -0.2625  0.1534
    8SAPS  C315 1052   2.130   2.301   8.678 -0.0506 -0.2665 -1.4467
    8SAPS  H15X 1053   2.132   2.412   8.683  0.0270 -0.2644 -1.5204
    8SAPS  H15Y 1054   2.061   2.266   8.757 -0.5855 -0.2664 -1.9101
    8SAPS  C316 1055   2.086   2.244   8.546  0.2726 -0.0266 -0.5014
    8SAPS  H16X 1056   2.068   2.136   8.566  1.5877  0.3604  4.0692
    8SAPS  H16Y 1057   2.168   2.255   8.472  1.8088 -1.0340  0.9809
    8SAPS  C317 1058   1.965   2.318   8.491  0.4144 -0.5493  0.4242
    8SAPS  H17X 1059   1.902   2.339   8.580 -2.0484  1.0238 -1.5538
    8SAPS  H17Y 1060   1.900   2.262   8.420  2.0695 -1.8821 -0.0913
    8SAPS  C318 1061   2.006   2.447   8.419  0.3413  0.4235  0.2936
    8SAPS  H18X 1062   2.048   2.517   8.495 -0.5609 -0.0609  1.2802
    8SAPS  H18Y 1063   1.920   2.495   8.367 -0.3315 -3.0844 -2.1447
    8SAPS  H18Z 1064   2.079   2.421   8.340 -1.0577 -2.0592 -0.2850
    9SAPS     N 1065   5.243   3.312   6.052  0.2477  0.6353  0.0362
    9SAPS   HN1 1066   5.265   3.404   6.008 -2.8906  0.4724 -2.1549
    9SAPS   HN2 1067   5.200   3.339   6.143  1.6801 -0.6591  1.1504
    9SAPS   HN3 1068   5.327   3.259   6.081 -0.1023  0.0065 -0.0711
    9SAPS   C12 1069   5.142   3.231   5.975 -0.6205 -0.4863 -0.1784
    9SAPS  H12A 1070   5.045   3.268   6.005  0.7273  2.7988  0.5323
    9SAPS   C13 1071   5.146   3.233   5.827 -0.2377  0.3034  0.7362
    9SAPS  O13A 1072   5.251   3.269   5.767 -0.2255 -0.3061  0.4956
    9SAPS  O13B 1073   5.054   3.169   5.765 -0.7891 -0.3185  0.6177
    9SAPS   C11 1074   5.145   3.090   6.030  0.1135 -0.1345 -0.0163
    9SAPS  H11A 1075   5.238   3.036   6.003  0.4917  0.3997  0.1904
    9SAPS  H11B 1076   5.069   3.036   5.969  0.0434 -0.5625  0.4424
    9SAPS     P 1077   5.027   2.982   6.237  0.0447  0.3284  0.0181
    9SAPS   O13 1078   4.890   3.022   6.186 -0.2223 -0.4572 -0.7937
    9SAPS   O14 1079   5.074   2.845   6.209 -0.3671 -0.1425 -0.0372
    9SAPS   O12 1080   5.120   3.081   6.166 -0.2961  0.1041  0.3764
    9SAPS   O11 1081   5.043   3.013   6.398  0.2281 -0.1485 -1.1888
    9SAPS    C1 1082   5.148   2.952   6.465  0.5313  0.1572  0.3510
    9SAPS    HA 1083   5.110   2.854   6.500  2.4644 -0.7975 -0.0464
    9SAPS    HB 1084   5.238   2.945   6.400 -0.7153 -0.2057 -1.4094
    9SAPS    C2 1085   5.181   3.039   6.585 -0.3672  0.2441 -0.0853
    9SAPS    HS 1086   5.261   2.981   6.636 -1.2815 -0.1887  0.8858
    9SAPS   O21 1087   5.065   3.059   6.672  0.0961 -0.4258  0.0515
    9SAPS   C21 1088   5.020   2.958   6.737 -0.1842  0.7399 -0.1683
    9SAPS   O22 1089   5.086   2.853   6.751 -0.4719 -0.2006  0.4684
    9SAPS   C22 1090   4.886   2.990   6.797  0.5768 -0.4510 -0.0524
    9SAPS   H2R 1091   4.863   3.089   6.753 -0.7493 -1.6194 -2.1606
    9SAPS   H2S 1092   4.817   2.920   6.746 -0.9584  1.0505 -0.1182
    9SAPS    C3 1093   5.250   3.169   6.529 -0.4553 -0.1255 -0.2956
    9SAPS    HX 1094   5.167   3.236   6.498  0.9094  0.2277 -3.6215
    9SAPS    HY 1095   5.313   3.152   6.439  2.0470  1.2289  1.0827
    9SAPS   O31 1096   5.328   3.228   6.633  0.4216 -0.5010  0.4119
    9SAPS   C31 1097   5.311   3.357   6.668  0.4195  0.2065  0.5882
    9SAPS   O32 1098   5.246   3.441   6.605  0.6297 -0.3677 -0.2972
    9SAPS   C32 1099   5.418   3.392   6.780 -0.2183 -0.0977  0.2760
    9SAPS   H2X 1100   5.509   3.413   6.720  0.0253 -1.4545  0.1376
    9SAPS   H2Y 1101   5.438   3.300   6.841 -1.0897  1.6523  3.4436
    9SAPS   C23 1102   4.869   2.966   6.947  0.4131 -0.4521 -0.0723
    9SAPS   H3R 1103   4.859   2.857   6.967 -2.9280 -0.2922 -0.3044
    9SAPS   H3S 1104   4.768   3.001   6.978  0.3558  0.9125 -1.6681
    9SAPS   C24 1105   4.972   3.028   7.046  0.3304  0.1429 -0.0092
    9SAPS   H4R 1106   5.074   2.989   7.026 -0.5309 -1.4269 -1.6479
    9SAPS   H4S 1107   4.939   3.014   7.151  0.2594  0.5754  0.0281
    9SAPS   C25 1108   4.970   3.180   7.019  0.7488  0.7760  0.2968
    9SAPS   H5R 1109   4.891   3.211   6.948 -1.8942  1.4500  3.3087
    9SAPS   C26 1110   5.066   3.261   7.064 -0.4575 -0.4094 -0.4331
    9SAPS   H6R 1111   5.055   3.369   7.047 -0.4284  0.4510  3.8193
    9SAPS   C27 1112   5.176   3.218   7.160 -0.3667 -0.3588  0.3682
    9SAPS   H7R 1113   5.139   3.129   7.215 -0.0490 -0.5629  0.2545
    9SAPS   H7S 1114   5.194   3.300   7.232 -0.5689  0.8141 -0.8709
    9SAPS   C28 1115   5.301   3.186   7.083 -0.0379 -0.6150  0.6103
    9SAPS   H8R 1116   5.296   3.100   7.016  0.9998 -1.1049  1.1449
    9SAPS   C29 1117   5.421   3.243   7.101  0.6786  0.3654  0.3563
    9SAPS   H9R 1118   5.507   3.194   7.053  1.4888 -0.1007  2.2161
    9SAPS  C210 1119   5.458   3.337   7.210 -0.5132 -0.4576 -0.1278
    9SAPS  H10R 1120   5.458   3.284   7.308  1.0520 -0.5954 -0.1891
    9SAPS  H10S 1121   5.374   3.410   7.208 -0.4959 -0.4270 -2.2922
    9SAPS  C211 1122   5.582   3.414   7.185  0.1869 -0.5643 -0.6627
    9SAPS  H11R 1123   5.631   3.410   7.086 -0.0483  2.3881 -1.0006
    9SAPS  C212 1124   5.648   3.474   7.284  0.2886  0.5100  0.3030
    9SAPS  H12R 1125   5.739   3.534   7.280 -0.4917  1.9496  2.3282
    9SAPS  C213 1126   5.597   3.482   7.428 -0.4259  0.3920 -0.9534
    9SAPS  H13R 1127   5.674   3.515   7.500 -2.1683  1.1461  0.6450
    9SAPS  H13S 1128   5.574   3.384   7.474  2.0826  1.0507  2.0485
    9SAPS  C214 1129   5.477   3.567   7.461  0.1735  0.1794 -0.4952
    9SAPS  H14R 1130   5.448   3.641   7.385  0.4282  1.5168  0.6611
    9SAPS  C215 1131   5.383   3.542   7.563 -0.2969  0.1490 -0.1972
    9SAPS  H15R 1132   5.296   3.609   7.567  1.4183  2.5785 -1.4518
    9SAPS  C216 1133   5.397   3.451   7.685  0.4466  0.2055  0.4874
    9SAPS  H16R 1134   5.432   3.517   7.767  1.2068  2.5333 -1.5934
    9SAPS  H16S 1135   5.474   3.374   7.663  1.0161  0.9307 -0.0946
    9SAPS  C217 1136   5.260   3.383   7.715  0.0489  0.4536  0.3216
    9SAPS  H17R 1137   5.220   3.342   7.620 -0.8249 -0.1047  0.9028
    9SAPS  H17S 1138   5.188   3.456   7.759 -0.1763 -0.3502  1.3429
    9SAPS  C218 1139   5.278   3.267   7.813  0.4576  0.0240 -0.2249
    9SAPS  H18R 1140   5.358   3.204   7.767  0.4152  0.4912 -0.9509
    9SAPS  H18S 1141   5.193   3.195   7.820  1.4812 -1.5502 -2.6072
    9SAPS  C219 1142   5.329   3.314   7.954  0.5362 -0.3304  0.5145
    9SAPS  H19R 1143   5.255   3.376   8.009  1.2456 -0.3214  1.4665
    9SAPS  H19S 1144   5.418   3.378   7.939  0.8532 -1.0068 -0.5920
    9SAPS  C220 1145   5.372   3.194   8.034  0.0714  0.0634 -0.4331
    9SAPS  H20R 1146   5.462   3.149   7.985  0.7711 -0.7036  1.4852
    9SAPS  H20S 1147   5.295   3.114   8.037 -0.3401  0.4982  1.6456
    9SAPS  H20T 1148   5.401   3.211   8.140 -4.4404  0.6059  0.9244
    9SAPS   C33 1149   5.385   3.505   6.875  0.1380 -0.8532 -0.5018
    9SAPS   H3X 1150   5.470   3.504   6.947  1.2083 -0.4807 -1.7240
    9SAPS   H3Y 1151   5.290   3.483   6.928  0.0025  0.7248 -0.0580
    9SAPS   C34 1152   5.375   3.648   6.818 -0.3374 -0.6200  0.3383
    9SAPS   H4X 1153   5.288   3.662   6.751  0.3438  1.8772 -0.1036
    9SAPS   H4Y 1154   5.463   3.666   6.753 -0.1050 -0.9665  0.5526
    9SAPS   C35 1155   5.375   3.755   6.933  0.4194 -0.1780 -0.0251
    9SAPS   H5X 1156   5.382   3.855   6.885  1.8023 -0.4942 -0.5306
    9SAPS   H5Y 1157   5.459   3.732   7.002  0.8099  1.5785  0.1213
    9SAPS   C36 1158   5.244   3.758   7.010 -0.3184  0.6371 -0.0673
    9SAPS   H6X 1159   5.166   3.718   6.942  0.6117  0.4121 -1.0260
    9SAPS   H6Y 1160   5.212   3.861   7.037 -1.2650  0.4688 -0.5070
    9SAPS   C37 1161   5.248   3.687   7.150 -0.3558  0.0238  0.3005
    9SAPS   H7X 1162   5.314   3.746   7.216  0.0551 -1.6626  1.4785
    9SAPS   H7Y 1163   5.293   3.589   7.121 -1.0636  0.1305 -1.2843
    9SAPS   C38 1164   5.105   3.654   7.195 -0.2077 -1.0053  1.0709
    9SAPS   H8X 1165   5.050   3.601   7.114  0.3471 -0.0087  0.0163
    9SAPS   H8Y 1166   5.051   3.749   7.217  1.3219  0.5996 -1.5841
    9SAPS   C39 1167   5.115   3.572   7.323 -0.6105  0.8709  0.1904
    9SAPS   H9X 1168   5.159   3.644   7.396  1.8143 -0.0444 -0.2663
    9SAPS   H9Y 1169   5.186   3.487   7.319  0.2506  1.5560  0.6131
    9SAPS  C310 1170   4.985   3.529   7.379  0.7323  0.5069  0.9313
    9SAPS  H10X 1171   4.944   3.449   7.314  0.2446  0.5649  1.1622
    9SAPS  H10Y 1172   4.905   3.605   7.365 -0.2414 -0.8296 -1.3803
    9SAPS  C311 1173   4.981   3.480   7.524  0.5195 -0.8842 -0.1447
    9SAPS  H11X 1174   4.944   3.568   7.581  2.8151 -0.1257  0.2524
    9SAPS  H11Y 1175   5.088   3.469   7.549  0.6806  0.5439 -0.0967
    9SAPS  C312 1176   4.894   3.352   7.539 -0.1549  0.7526 -0.3346
    9SAPS  H12X 1177   4.788   3.355   7.506 -1.7889 -1.6663  3.9391
    9SAPS  H12Y 1178   4.891   3.342   7.649 -2.4099  1.5341 -0.2908
    9SAPS  C313 1179   4.951   3.234   7.464  0.0829  0.4360 -0.0809
    9SAPS  H13X 1180   5.055   3.230   7.504 -0.4612  0.8929  1.4117
    9SAPS  H13Y 1181   4.954   3.244   7.353  1.9810 -0.0615 -0.1083
    9SAPS  C314 1182   4.900   3.092   7.502 -0.8180 -0.3102 -0.2936
    9SAPS  H14X 1183   4.907   3.078   7.612  3.9736 -2.2746 -0.5936
    9SAPS  H14Y 1184   4.969   3.019   7.454 -1.2056 -0.3619 -0.7788
    9SAPS  C315 1185   4.762   3.058   7.443  0.2339 -0.3669 -0.5306
    9SAPS  H15X 1186   4.757   3.099   7.340 -1.7663  1.2403  0.1202
    9SAPS  H15Y 1187   4.689   3.119   7.500  1.8746  1.5846 -0.4027
    9SAPS  C316 1188   4.717   2.910   7.459 -0.4496 -0.6320  0.1106
    9SAPS  H16X 1189   4.721   2.891   7.569  0.2414  0.8794  0.3719
    9SAPS  H16Y 1190   4.773   2.846   7.387 -1.1888 -0.7862 -0.3279
    9SAPS  C317 1191   4.567   2.907   7.419  1.1623  0.4431  0.4574
    9SAPS  H17X 1192   4.526   2.999   7.465  2.8671  2.4915 -1.9132
    9SAPS  H17Y 1193   4.516   2.827   7.478  0.3507  0.3285 -0.3893
    9SAPS  C318 1194   4.531   2.902   7.271  0.0569  0.2726 -0.2022
    9SAPS  H18X 1195   4.580   2.807   7.238  0.5244  0.0397  1.1176
    9SAPS  H18Y 1196   4.578   2.985   7.214  1.4634  0.8854  1.7445
    9SAPS  H18Z 1197   4.422   2.890   7.258  0.1910 -1.4383  0.0160
   10SAPS     N 1198   6.012   4.095   6.057 -0.3992 -0.3576  0.1274
   10SAPS   HN1 1199   5.956   4.182   6.074  2.0908  1.8097 -1.8325
   10SAPS   HN2 1200   6.031   4.049   6.148  2.6844  0.9999  0.2907
   10SAPS   HN3 1201   6.103   4.123   6.014 -0.0655  1.3894  1.8258
   10SAPS   C12 1202   5.926   4.007   5.970 -0.5175  0.0713 -0.5969
   10SAPS  H12A 1203   5.831   4.002   6.021  0.5062 -3.1126  1.3191
   10SAPS   C13 1204   5.903   4.050   5.824 -0.4175 -0.5075 -0.2180
   10SAPS  O13A 1205   5.958   4.149   5.771  0.1123  1.3939  0.1999
   10SAPS  O13B 1206   5.825   3.983   5.750  0.8303  0.1048 -0.4216
   10SAPS   C11 1207   6.001   3.869   5.972 -0.1217  0.0410  0.2910
   10SAPS  H11A 1208   6.100   3.884   5.924 -0.3433 -2.4134 -1.0833
   10SAPS  H11B 1209   5.937   3.809   5.903  1.8485 -1.2707 -0.5017
   10SAPS     P 1210   6.137   3.731   6.155  0.1319 -0.0137 -0.0388
   10SAPS   O13 1211   6.134   3.722   6.303  0.1580 -0.3611  0.4286
   10SAPS   O14 1212   6.147   3.602   6.079 -0.5676 -0.1983  0.3229
   10SAPS   O12 1213   6.005   3.794   6.103  0.2675 -0.6101 -0.0567
   10SAPS   O11 1214   6.246   3.834   6.105  0.2931  0.2194  0.4467
   10SAPS    C1 1215   6.381   3.792   6.090 -0.3179 -0.5590  0.1581
   10SAPS    HA 1216   6.396   3.683   6.106  4.3088 -0.2698 -0.6549
   10SAPS    HB 1217   6.423   3.823   5.992  1.4156 -0.5858  0.8494
   10SAPS    C2 1218   6.473   3.866   6.188 -0.0833 -0.3261  0.0016
   10SAPS    HS 1219   6.580   3.854   6.162 -0.1997  1.3229 -1.3992
   10SAPS   O21 1220   6.437   3.814   6.321  0.4029  0.0044  0.4309
   10SAPS   C21 1221   6.520   3.717   6.361  0.2635  0.1748 -0.0415
   10SAPS   O22 1222   6.610   3.667   6.296 -0.1030 -0.3631 -0.1442
   10SAPS   C22 1223   6.478   3.678   6.502  0.6612 -0.1011 -0.7313
   10SAPS   H2R 1224   6.460   3.772   6.558  0.7368 -0.1979 -0.5428
   10SAPS   H2S 1225   6.386   3.617   6.512  1.0998 -0.3662  3.1335
   10SAPS    C3 1226   6.437   4.021   6.188  0.6264  0.4699 -0.0514
   10SAPS    HX 1227   6.326   4.024   6.183  0.5930  1.2023  0.9080
   10SAPS    HY 1228   6.477   4.062   6.093  1.8898 -1.2581 -0.3108
   10SAPS   O31 1229   6.482   4.101   6.304  0.0319  0.0832 -0.0266
   10SAPS   C31 1230   6.610   4.095   6.317 -0.1170  0.0157 -0.4027
   10SAPS   O32 1231   6.695   4.071   6.234  0.8276 -0.2742 -0.1069
   10SAPS   C32 1232   6.643   4.131   6.460  0.0635  0.3585  0.7413
   10SAPS   H2X 1233   6.548   4.159   6.510 -0.6518  1.1528 -0.9677
   10SAPS   H2Y 1234   6.693   4.230   6.448 -1.8050  1.3230  0.4989
   10SAPS   C23 1235   6.587   3.598   6.577  0.2795 -0.4575  0.3472
   10SAPS   H3R 1236   6.678   3.662   6.575 -0.9829  1.4210 -1.7373
   10SAPS   H3S 1237   6.613   3.506   6.521 -1.9712 -0.4030 -0.9300
   10SAPS   C24 1238   6.545   3.541   6.717  0.4940 -0.7151  0.7587
   10SAPS   H4R 1239   6.501   3.635   6.757 -1.0633 -0.2067 -1.8606
   10SAPS   H4S 1240   6.634   3.502   6.770  2.7130  0.3042 -1.9524
   10SAPS   C25 1241   6.434   3.436   6.689 -0.4323 -0.6633 -1.2362
   10SAPS   H5R 1242   6.466   3.353   6.625  0.5570 -0.0258 -1.5791
   10SAPS   C26 1243   6.306   3.448   6.734  0.2140 -0.2085  0.0668
   10SAPS   H6R 1244   6.239   3.368   6.701  0.2733 -0.7494  1.2192
   10SAPS   C27 1245   6.250   3.572   6.796 -0.1507 -0.4322 -0.8712
   10SAPS   H7R 1246   6.321   3.602   6.877 -1.0920 -1.2178  0.2895
   10SAPS   H7S 1247   6.164   3.540   6.859  0.8251 -0.3993  0.5344
   10SAPS   C28 1248   6.198   3.687   6.715 -0.3113  0.3547  0.8411
   10SAPS   H8R 1249   6.118   3.663   6.643  0.5447 -0.1186  0.0294
   10SAPS   C29 1250   6.222   3.822   6.722  0.3214  0.4331 -0.1399
   10SAPS   H9R 1251   6.165   3.888   6.654  0.7836 -0.9222 -1.9399
   10SAPS  C210 1252   6.328   3.892   6.804 -0.2455 -0.6282 -0.4582
   10SAPS  H10R 1253   6.395   3.944   6.732 -0.5332  0.3182 -0.0613
   10SAPS  H10S 1254   6.388   3.811   6.852 -1.9401 -0.7410  1.6677
   10SAPS  C211 1255   6.270   3.996   6.894  0.0604 -0.0439  0.2751
   10SAPS  H11R 1256   6.241   4.096   6.857  0.3486  0.8787  2.3439
   10SAPS  C212 1257   6.250   3.980   7.022  0.3062 -0.0089  0.5135
   10SAPS  H12R 1258   6.196   4.050   7.087 -0.4550 -1.5061  1.5541
   10SAPS  C213 1259   6.286   3.857   7.097 -0.4038  0.3216  1.0493
   10SAPS  H13R 1260   6.281   3.777   7.019  0.8126  0.0081  1.2828
   10SAPS  H13S 1261   6.202   3.857   7.170 -1.9464 -0.0468 -0.6282
   10SAPS  C214 1262   6.419   3.852   7.173  0.3485  0.3819 -0.8499
   10SAPS  H14R 1263   6.485   3.936   7.145  0.7199  0.0748 -0.9025
   10SAPS  C215 1264   6.442   3.763   7.275 -0.6819 -0.4302 -0.1386
   10SAPS  H15R 1265   6.541   3.757   7.322 -1.0312  2.1942  1.1099
   10SAPS  C216 1266   6.354   3.648   7.315  0.1606  1.0107  1.0828
   10SAPS  H16R 1267   6.349   3.562   7.245 -2.2284  0.9206  1.2776
   10SAPS  H16S 1268   6.252   3.680   7.287 -0.8716 -2.6087  0.1464
   10SAPS  C217 1269   6.352   3.609   7.456  0.1482 -0.5515 -0.7641
   10SAPS  H17R 1270   6.263   3.543   7.465 -1.4043  1.3198 -1.7555
   10SAPS  H17S 1271   6.336   3.704   7.511  0.2445 -1.1236  0.2793
   10SAPS  C218 1272   6.482   3.548   7.507 -0.0730 -0.2093  0.1221
   10SAPS  H18R 1273   6.452   3.512   7.607 -0.0286  0.0256  0.2211
   10SAPS  H18S 1274   6.558   3.628   7.519 -0.8841  0.5020  0.6122
   10SAPS  C219 1275   6.540   3.435   7.421 -0.4018 -0.2738 -0.7784
   10SAPS  H19R 1276   6.634   3.399   7.468  0.6872 -0.5955 -3.0608
   10SAPS  H19S 1277   6.581   3.478   7.327  0.7707  1.0575  0.2923
   10SAPS  C220 1278   6.450   3.312   7.402  0.9348  0.5897  0.4533
   10SAPS  H20R 1279   6.403   3.279   7.497 -1.4425 -0.8020 -1.1132
   10SAPS  H20S 1280   6.507   3.230   7.354 -0.2078 -0.4601  0.8458
   10SAPS  H20T 1281   6.363   3.341   7.340  0.9811 -0.3939 -0.0824
   10SAPS   C33 1282   6.712   4.020   6.535 -0.5684 -0.2063  0.0569
   10SAPS   H3X 1283   6.787   3.952   6.489  1.4126  1.8456  0.0564
   10SAPS   H3Y 1284   6.637   3.945   6.569  0.0720  0.1515  2.4562
   10SAPS   C34 1285   6.773   4.061   6.668 -0.2492  0.3778  0.4857
   10SAPS   H4X 1286   6.702   4.118   6.731 -0.7492  1.5282 -1.0713
   10SAPS   H4Y 1287   6.856   4.131   6.644 -1.3450  0.9153 -2.0478
   10SAPS   C35 1288   6.832   3.942   6.746  0.6393  0.5239  0.0470
   10SAPS   H5X 1289   6.914   3.898   6.686  0.2645 -1.1087  0.6555
   10SAPS   H5Y 1290   6.750   3.867   6.754  1.9809 -1.1107 -0.7955
   10SAPS   C36 1291   6.877   3.974   6.888  0.2471 -0.6667 -0.3114
   10SAPS   H6X 1292   6.799   4.035   6.939  1.3023  0.6714 -0.2363
   10SAPS   H6Y 1293   6.967   4.039   6.884 -1.6565  2.1401 -3.7472
   10SAPS   C37 1294   6.903   3.843   6.973 -0.6697 -0.2490  0.8028
   10SAPS   H7X 1295   6.995   3.797   6.931  0.7266  2.1450  1.0661
   10SAPS   H7Y 1296   6.811   3.783   6.956  0.1280 -2.0823  2.6163
   10SAPS   C38 1297   6.928   3.883   7.120 -0.0026 -0.0758 -0.2790
   10SAPS   H8X 1298   6.843   3.948   7.150 -0.7812 -0.4563 -1.5814
   10SAPS   H8Y 1299   7.012   3.956   7.116 -0.9185  1.0137 -0.2497
   10SAPS   C39 1300   6.971   3.774   7.219 -0.0248 -0.1949 -0.7538
   10SAPS   H9X 1301   7.029   3.830   7.295 -0.6076 -1.3147  0.5418
   10SAPS   H9Y 1302   7.047   3.712   7.167  0.9735 -0.2669  0.7477
   10SAPS  C310 1303   6.855   3.694   7.277 -0.5014 -0.1367 -0.1004
   10SAPS  H10X 1304   6.839   3.638   7.183 -0.3369 -0.6331  0.1633
   10SAPS  H10Y 1305   6.768   3.756   7.308 -2.8847 -1.0434 -4.2073
   10SAPS  C311 1306   6.902   3.592   7.378 -0.2521  0.2122 -0.6068
   10SAPS  H11X 1307   6.984   3.540   7.323 -1.3895  0.5324 -2.7099
   10SAPS  H11Y 1308   6.820   3.522   7.404  1.2059 -1.1534  0.5281
   10SAPS  C312 1309   6.964   3.656   7.507  0.2341  0.4676  1.1158
   10SAPS  H12X 1310   7.046   3.721   7.470 -0.3795  0.0538 -1.0687
   10SAPS  H12Y 1311   6.999   3.582   7.583 -0.6108 -1.9130 -0.6801
   10SAPS  C313 1312   6.870   3.758   7.568  0.3739 -0.0767  0.1886
   10SAPS  H13X 1313   6.764   3.727   7.578  0.2424  0.3739  0.2334
   10SAPS  H13Y 1314   6.871   3.855   7.514  1.2962 -0.8135 -1.1964
   10SAPS  C314 1315   6.910   3.793   7.712  0.1870  0.0001 -0.7565
   10SAPS  H14X 1316   7.016   3.825   7.717 -0.1185  0.8458  0.8315
   10SAPS  H14Y 1317   6.905   3.700   7.772 -0.3197  0.6954  0.3117
   10SAPS  C315 1318   6.815   3.904   7.781  1.0589 -0.3088  0.6397
   10SAPS  H15X 1319   6.711   3.866   7.778  0.6941  0.7363 -0.4280
   10SAPS  H15Y 1320   6.815   3.994   7.717 -0.3566  2.1873  3.8672
   10SAPS  C316 1321   6.837   3.949   7.926 -0.3931 -0.2225 -0.4830
   10SAPS  H16X 1322   6.857   3.866   7.997  0.8179  0.9300  0.5533
   10SAPS  H16Y 1323   6.750   4.004   7.968  0.7451  0.9560  0.3786
   10SAPS  C317 1324   6.963   4.039   7.939 -0.3138  0.1417  0.8718
   10SAPS  H17X 1325   6.978   4.103   7.849  0.0276  1.5184  1.8792
   10SAPS  H17Y 1326   7.052   3.974   7.954 -1.9003 -2.0321  1.3778
   10SAPS  C318 1327   6.959   4.124   8.065 -0.2270  0.1272 -0.1607
   10SAPS  H18X 1328   6.886   4.206   8.051 -0.1590  0.3860  0.9065
   10SAPS  H18Y 1329   7.057   4.174   8.077 -0.1388 -0.3358  1.3184
   10SAPS  H18Z 1330   6.932   4.068   8.158  2.9514  1.0748  1.4854
   11SAPS     N 1331   0.347   1.122   6.306 -0.0564  0.0860  0.2786
   11SAPS   HN1 1332   0.391   1.063   6.380  0.6775  0.7986  0.4219
   11SAPS   HN2 1333   0.418   1.193   6.279 -1.2461  1.5088  0.7974
   11SAPS   HN3 1334   0.261   1.167   6.342  0.2246  1.2984 -0.4889
   11SAPS   C12 1335   0.318   1.031   6.193  0.6113  0.2151 -0.3344
   11SAPS  H12A 1336   0.278   1.079   6.106 -1.6030 -2.7586 -1.1439
   11SAPS   C13 1337   0.441   0.957   6.156 -0.4597  1.1519 -0.2127
   11SAPS  O13A 1338   0.551   0.986   6.203  0.0248  0.5504 -0.0206
   11SAPS  O13B 1339   0.438   0.870   6.061 -0.0114  0.1212 -0.6937
   11SAPS   C11 1340   0.210   0.930   6.254 -0.0531  0.2315 -0.2176
   11SAPS  H11A 1341   0.254   0.877   6.342 -1.8240 -0.9115  0.0292
   11SAPS  H11B 1342   0.193   0.846   6.184 -1.0554  0.7647 -0.6337
   11SAPS     P 1343  -0.023   0.919   6.362  0.1958  0.2742  0.2645
   11SAPS   O13 1344  -0.071   1.005   6.467 -0.3177 -0.5284 -0.1466
   11SAPS   O14 1345  -0.124   0.863   6.269  0.2739  0.1344 -0.0951
   11SAPS   O12 1346   0.087   0.995   6.282  0.1529  0.8320 -0.2367
   11SAPS   O11 1347   0.049   0.804   6.426 -0.7301  1.0417  0.2539
   11SAPS    C1 1348   0.117   0.820   6.555 -0.2788 -0.1695 -0.0530
   11SAPS    HA 1349   0.202   0.751   6.572 -0.0225 -0.4232 -2.0681
   11SAPS    HB 1350   0.154   0.924   6.566 -1.1464  0.0076  1.5692
   11SAPS    C2 1351   0.013   0.787   6.663  0.1872 -0.4333  0.4548
   11SAPS    HS 1352  -0.079   0.846   6.648 -0.5354 -1.5834  0.2586
   11SAPS   O21 1353   0.071   0.795   6.791  0.6295 -0.2668 -0.4757
   11SAPS   C21 1354   0.095   0.918   6.833 -0.3264  0.1965 -0.1909
   11SAPS   O22 1355   0.043   1.021   6.793  0.2400  0.6682  0.3398
   11SAPS   C22 1356   0.205   0.911   6.939 -0.4006 -0.4623 -0.1685
   11SAPS   H2R 1357   0.150   0.880   7.031 -1.5618 -1.7389 -1.2559
   11SAPS   H2S 1358   0.277   0.830   6.917 -0.0804 -0.4872  0.9136
   11SAPS    C3 1359  -0.023   0.639   6.647 -0.8669  0.0244  0.7297
   11SAPS    HX 1360   0.075   0.588   6.656 -0.7684 -0.2770 -1.5118
   11SAPS    HY 1361  -0.062   0.603   6.549 -2.0154 -2.0679  1.8801
   11SAPS   O31 1362  -0.100   0.588   6.752  0.3953  0.1506  0.2987
   11SAPS   C31 1363  -0.230   0.594   6.734  0.4976 -0.0359  0.4688
   11SAPS   O32 1364  -0.288   0.637   6.635  0.9344  0.2959  0.0120
   11SAPS   C32 1365  -0.296   0.543   6.859 -0.4024  0.5330 -0.4276
   11SAPS   H2X 1366  -0.399   0.525   6.821 -0.3608  2.2932 -1.5166
   11SAPS   H2Y 1367  -0.297   0.627   6.932  0.1477  0.5803 -0.4662
   11SAPS   C23 1368   0.273   1.052   6.962  0.0463  0.3798 -0.4137
   11SAPS   H3R 1369   0.198   1.117   7.010 -0.1650 -0.4003  0.3422
   11SAPS   H3S 1370   0.295   1.095   6.862  0.5207 -0.7968 -0.8401
   11SAPS   C24 1371   0.393   1.032   7.056  0.2294 -0.1355 -0.1435
   11SAPS   H4R 1372   0.474   0.984   6.998 -0.9375 -3.1045  0.5273
   11SAPS   H4S 1373   0.368   0.963   7.139  0.5762 -0.7703 -0.5595
   11SAPS   C25 1374   0.448   1.157   7.109 -0.0810  0.0785 -0.3832
   11SAPS   H5R 1375   0.456   1.240   7.037 -1.0120  0.1008 -0.4697
   11SAPS   C26 1376   0.475   1.199   7.233  0.8643 -0.0390 -0.0572
   11SAPS   H6R 1377   0.518   1.300   7.241  0.3095  0.2383 -0.4995
   11SAPS   C27 1378   0.466   1.121   7.361 -0.0004  0.0416 -0.7048
   11SAPS   H7R 1379   0.393   1.039   7.346 -0.0907 -0.1262  0.5302
   11SAPS   H7S 1380   0.421   1.179   7.444  0.9321 -3.6139  2.6469
   11SAPS   C28 1381   0.600   1.076   7.411  0.2303  0.8440 -0.1383
   11SAPS   H8R 1382   0.647   1.000   7.346 -0.2864  1.6207 -1.4630
   11SAPS   C29 1383   0.666   1.123   7.520  0.5099  0.4172 -0.4767
   11SAPS   H9R 1384   0.772   1.094   7.527  0.8214  1.1981 -1.6946
   11SAPS  C210 1385   0.612   1.222   7.622 -0.2460 -0.4464 -0.3029
   11SAPS  H10R 1386   0.502   1.220   7.631 -0.3936 -0.7486 -1.9089
   11SAPS  H10S 1387   0.632   1.325   7.585  0.1340  0.2831  1.8228
   11SAPS  C211 1388   0.669   1.214   7.763  0.3036  0.2179  0.0580
   11SAPS  H11R 1389   0.775   1.186   7.761  0.7825  1.6213  2.1298
   11SAPS  C212 1390   0.601   1.231   7.873 -0.3783 -0.2220 -0.1610
   11SAPS  H12R 1391   0.667   1.218   7.961  0.1183  2.2872 -0.1008
   11SAPS  C213 1392   0.455   1.252   7.890  0.2166  0.1307 -0.7456
   11SAPS  H13R 1393   0.403   1.157   7.862  1.3472 -0.6390 -0.2650
   11SAPS  H13S 1394   0.428   1.320   7.806  2.3058  0.0025 -1.5808
   11SAPS  C214 1395   0.398   1.320   8.015 -0.3272 -0.5595  0.8554
   11SAPS  H14R 1396   0.426   1.427   8.022  0.2790 -0.6765  0.2706
   11SAPS  C215 1397   0.337   1.272   8.122  0.5458 -0.0170  0.1315
   11SAPS  H15R 1398   0.316   1.344   8.202  1.5089 -1.7096  1.9935
   11SAPS  C216 1399   0.289   1.133   8.138  1.0778  0.1549  0.9667
   11SAPS  H16R 1400   0.336   1.081   8.223 -0.5051 -1.0494  1.1492
   11SAPS  H16S 1401   0.315   1.075   8.047  2.5578  0.0865  1.4125
   11SAPS  C217 1402   0.137   1.111   8.155 -0.6700 -1.0466 -0.2733
   11SAPS  H17R 1403   0.120   1.002   8.170 -1.3381 -1.0984 -1.2973
   11SAPS  H17S 1404   0.075   1.129   8.065 -0.1826  0.3388 -0.3585
   11SAPS  C218 1405   0.073   1.205   8.267 -0.1372 -0.4259 -0.0669
   11SAPS  H18R 1406  -0.038   1.204   8.262 -0.2965  0.4052  2.1983
   11SAPS  H18S 1407   0.088   1.312   8.241 -3.2660 -0.2458 -1.6189
   11SAPS  C219 1408   0.119   1.183   8.417  0.0247  0.0698  0.1930
   11SAPS  H19R 1409   0.230   1.182   8.419  0.0153  0.1903  1.2060
   11SAPS  H19S 1410   0.095   1.079   8.447 -0.1697  0.4929  1.5958
   11SAPS  C220 1411   0.058   1.286   8.508  0.4330  0.7196 -0.3445
   11SAPS  H20R 1412   0.067   1.391   8.473 -1.2522  0.9878 -0.0536
   11SAPS  H20S 1413   0.097   1.274   8.611  2.9733  1.0841 -1.1932
   11SAPS  H20T 1414  -0.050   1.266   8.523  0.0735  2.6863 -0.1284
   11SAPS   C33 1415  -0.244   0.409   6.931 -0.1631 -1.0867  0.3991
   11SAPS   H3X 1416  -0.134   0.406   6.946 -0.3279 -0.0911  2.1811
   11SAPS   H3Y 1417  -0.286   0.328   6.869  0.7509 -1.2102 -0.0763
   11SAPS   C34 1418  -0.292   0.394   7.076 -0.3728  0.5175 -0.8225
   11SAPS   H4X 1419  -0.269   0.294   7.117 -0.9114  2.1667  4.1420
   11SAPS   H4Y 1420  -0.402   0.400   7.079 -0.4635 -1.1805 -0.0070
   11SAPS   C35 1421  -0.226   0.489   7.176 -0.0390  0.1341  0.5790
   11SAPS   H5X 1422  -0.221   0.587   7.124  0.6774 -0.2632 -0.1234
   11SAPS   H5Y 1423  -0.120   0.458   7.181 -0.2133 -0.4455  0.7343
   11SAPS   C36 1424  -0.279   0.495   7.322  1.3524 -0.3092 -0.7167
   11SAPS   H6X 1425  -0.301   0.388   7.341  2.0987 -1.1746 -4.0497
   11SAPS   H6Y 1426  -0.371   0.558   7.324  0.8349 -1.0472  1.7856
   11SAPS   C37 1427  -0.177   0.549   7.421 -0.0960  0.1954  0.5137
   11SAPS   H7X 1428  -0.129   0.643   7.385  1.7108 -1.0590 -0.4721
   11SAPS   H7Y 1429  -0.093   0.478   7.418  0.7136  1.1413  0.1445
   11SAPS   C38 1430  -0.225   0.567   7.570 -0.2051  0.1618  0.2206
   11SAPS   H8X 1431  -0.267   0.467   7.595 -0.4174  0.3555  0.6546
   11SAPS   H8Y 1432  -0.300   0.649   7.563 -1.3201 -0.5670  2.5231
   11SAPS   C39 1433  -0.121   0.617   7.662 -0.2780  0.1659 -0.6496
   11SAPS   H9X 1434  -0.078   0.713   7.626  1.7254 -0.1637  0.7016
   11SAPS   H9Y 1435  -0.036   0.546   7.655 -1.1600 -0.7581 -3.2277
   11SAPS  C310 1436  -0.165   0.638   7.806 -0.0851 -0.0695 -0.5590
   11SAPS  H10X 1437  -0.208   0.545   7.849 -0.8736  1.1149  1.3268
   11SAPS  H10Y 1438  -0.248   0.711   7.815 -0.3870 -0.4714  0.0362
   11SAPS  C311 1439  -0.045   0.672   7.893 -0.8378 -0.1256 -0.0338
   11SAPS  H11X 1440  -0.045   0.783   7.895  1.5314 -0.0727 -0.2428
   11SAPS  H11Y 1441   0.048   0.646   7.839 -1.8106 -0.1272 -1.7734
   11SAPS  C312 1442  -0.062   0.611   8.031  0.1539 -0.3617  0.1440
   11SAPS  H12X 1443  -0.080   0.502   8.016 -1.7571 -0.1754  0.7447
   11SAPS  H12Y 1444  -0.148   0.662   8.080 -0.5921 -1.6209  0.2055
   11SAPS  C313 1445   0.053   0.632   8.139 -0.2502 -0.7340  0.2337
   11SAPS  H13X 1446   0.086   0.738   8.143 -0.5899 -0.6684  1.6978
   11SAPS  H13Y 1447   0.140   0.563   8.132 -2.0368 -3.0975  0.0543
   11SAPS  C314 1448  -0.002   0.597   8.283 -0.0957  0.3763  0.6103
   11SAPS  H14X 1449  -0.088   0.666   8.290 -0.8258 -0.4757  0.1849
   11SAPS  H14Y 1450   0.071   0.637   8.357  1.3700 -1.9835  0.5420
   11SAPS  C315 1451  -0.061   0.460   8.307 -0.4706  0.3068 -0.3632
   11SAPS  H15X 1452   0.005   0.387   8.257 -2.0060 -0.6099 -1.1114
   11SAPS  H15Y 1453  -0.151   0.454   8.242 -0.6611 -2.5830  0.0311
   11SAPS  C316 1454  -0.097   0.437   8.454 -0.3444  0.8850 -0.0500
   11SAPS  H16X 1455  -0.159   0.515   8.504 -0.1448  0.8288  0.2835
   11SAPS  H16Y 1456  -0.009   0.416   8.518 -0.8458 -0.3177  0.2741
   11SAPS  C317 1457  -0.175   0.300   8.465  0.1013 -0.2858  0.5413
   11SAPS  H17X 1458  -0.115   0.227   8.407 -0.6992 -0.5344  0.0002
   11SAPS  H17Y 1459  -0.265   0.312   8.402  1.1407 -0.5913 -1.0390
   11SAPS  C318 1460  -0.227   0.245   8.602  0.1644  0.8082  0.0562
   11SAPS  H18X 1461  -0.293   0.161   8.573  3.5450 -2.2440  0.4187
   11SAPS  H18Y 1462  -0.278   0.315   8.671 -2.0899 -3.3962  3.0508
   11SAPS  H18Z 1463  -0.147   0.197   8.663 -2.2887 -2.6752  0.8444
   12SAPS     N 1464   5.390   3.046   5.719  0.4668  0.1803 -0.3975
   12SAPS   HN1 1465   5.339   2.980   5.781  0.0794  1.4257  0.6512
   12SAPS   HN2 1466   5.344   3.135   5.748 -0.0114 -0.4539  0.8357
   12SAPS   HN3 1467   5.376   3.022   5.619 -1.8705  0.3698 -0.1658
   12SAPS   C12 1468   5.541   3.035   5.748 -0.6691 -0.8524 -0.1541
   12SAPS  H12A 1469   5.569   2.931   5.758  0.7456 -0.4533  0.2174
   12SAPS   C13 1470   5.630   3.094   5.638 -0.0023 -0.0082 -0.0316
   12SAPS  O13A 1471   5.582   3.142   5.530 -0.9516  0.2884  0.0868
   12SAPS  O13B 1472   5.751   3.122   5.665 -0.6403 -0.0389 -0.1683
   12SAPS   C11 1473   5.574   3.101   5.886 -0.1713 -0.1227 -0.1834
   12SAPS  H11A 1474   5.545   3.208   5.879 -0.9061 -0.3279 -0.3481
   12SAPS  H11B 1475   5.685   3.094   5.893 -0.1140  0.6003 -0.3301
   12SAPS     P 1476   5.519   3.085   6.138 -0.4072  1.0964 -0.0553
   12SAPS   O13 1477   5.466   3.221   6.138 -0.1668  0.2352 -0.4305
   12SAPS   O14 1478   5.458   2.991   6.240  0.1366 -0.0164  0.7307
   12SAPS   O12 1479   5.503   3.028   5.988  0.1916  0.0327 -0.2595
   12SAPS   O11 1480   5.679   3.095   6.151 -0.7323 -0.6168 -0.0040
   12SAPS    C1 1481   5.760   2.975   6.141  0.6486  0.4489  0.1266
   12SAPS    HA 1482   5.699   2.884   6.122  0.9908 -0.2270  2.0574
   12SAPS    HB 1483   5.826   2.987   6.052  0.0553 -2.1684 -0.7649
   12SAPS    C2 1484   5.843   2.962   6.270 -0.4092  0.7086 -0.6858
   12SAPS    HS 1485   5.892   2.863   6.263  3.9550  2.5869  0.0808
   12SAPS   O21 1486   5.760   2.977   6.387 -0.4438  0.1497  0.2503
   12SAPS   C21 1487   5.680   2.874   6.420 -0.4511 -0.2778  0.2304
   12SAPS   O22 1488   5.678   2.765   6.369 -0.2385 -0.4384 -0.2038
   12SAPS   C22 1489   5.596   2.908   6.541  0.6491 -0.5445  0.0028
   12SAPS   H2R 1490   5.600   3.018   6.561 -0.9917 -0.4641  0.0637
   12SAPS   H2S 1491   5.487   2.893   6.527  0.6397 -0.3197 -0.1740
   12SAPS    C3 1492   5.932   3.084   6.286 -0.1004  0.2925  0.1529
   12SAPS    HX 1493   5.874   3.178   6.298  0.5151  0.5900  0.9375
   12SAPS    HY 1494   5.989   3.095   6.191  0.7829 -1.5305  0.4198
   12SAPS   O31 1495   6.016   3.065   6.407  0.0064  0.5512  0.2716
   12SAPS   C31 1496   6.109   2.970   6.390 -0.1435 -0.4611  0.1232
   12SAPS   O32 1497   6.135   2.914   6.283 -0.6338 -0.3574  0.1976
   12SAPS   C32 1498   6.173   2.950   6.527 -0.1515 -0.3923  0.3362
   12SAPS   H2X 1499   6.144   3.027   6.602  0.6301  1.2705 -0.9865
   12SAPS   H2Y 1500   6.281   2.968   6.506  0.1341 -2.2471  0.0480
   12SAPS   C23 1501   5.655   2.845   6.672  0.0594  0.3235 -0.5012
   12SAPS   H3R 1502   5.760   2.880   6.686 -0.7041  2.7403 -0.2592
   12SAPS   H3S 1503   5.660   2.736   6.656 -0.3788  0.3984 -1.1761
   12SAPS   C24 1504   5.583   2.883   6.797  0.4853  0.0805 -1.0347
   12SAPS   H4R 1505   5.548   2.988   6.787 -0.3045 -0.3691 -3.9924
   12SAPS   H4S 1506   5.662   2.877   6.875  0.2153 -3.8533 -0.8682
   12SAPS   C25 1507   5.472   2.785   6.829  0.8101  0.9340  0.4437
   12SAPS   H5R 1508   5.377   2.817   6.784  0.2439 -1.9503 -0.6080
   12SAPS   C26 1509   5.490   2.664   6.887  0.0652 -1.0160  0.1912
   12SAPS   H6R 1510   5.406   2.593   6.892  1.1035 -2.4249 -1.4053
   12SAPS   C27 1511   5.621   2.613   6.948 -0.3641  0.5289  0.8314
   12SAPS   H7R 1512   5.698   2.693   6.951 -1.5838  1.7411  0.7639
   12SAPS   H7S 1513   5.666   2.535   6.883  0.8655  1.4376  0.5496
   12SAPS   C28 1514   5.597   2.564   7.091  0.3945  0.1772  0.7326
   12SAPS   H8R 1515   5.551   2.464   7.090 -0.1242  0.3469 -2.3175
   12SAPS   C29 1516   5.615   2.645   7.202  0.2299  0.1121 -0.5857
   12SAPS   H9R 1517   5.602   2.602   7.302 -1.6003  0.1146 -0.7819
   12SAPS  C210 1518   5.663   2.790   7.213  0.9079  0.4606  0.2659
   12SAPS  H10R 1519   5.720   2.818   7.122 -3.6537 -0.1735 -3.1225
   12SAPS  H10S 1520   5.717   2.808   7.308 -2.7057 -0.9328  2.7920
   12SAPS  C211 1521   5.549   2.884   7.207 -0.5133  0.2833  0.5829
   12SAPS  H11R 1522   5.497   2.895   7.110 -0.9073 -1.3203  0.5783
   12SAPS  C212 1523   5.508   2.969   7.301 -0.0334 -1.2628  0.5764
   12SAPS  H12R 1524   5.418   3.028   7.279  0.3818 -1.2608 -1.2415
   12SAPS  C213 1525   5.557   2.969   7.443  0.1820  0.5501  0.4022
   12SAPS  H13R 1526   5.511   3.057   7.494  0.8330  2.1463 -1.6358
   12SAPS  H13S 1527   5.664   2.997   7.444  0.3265  0.1692 -1.2879
   12SAPS  C214 1528   5.534   2.838   7.518  0.4831 -0.2098  0.1178
   12SAPS  H14R 1529   5.460   2.766   7.481  0.3129  0.4511 -0.8681
   12SAPS  C215 1530   5.576   2.802   7.639 -0.4295 -0.0815 -0.0320
   12SAPS  H15R 1531   5.557   2.708   7.693 -0.1372  1.0949  2.2151
   12SAPS  C216 1532   5.656   2.904   7.723  0.5519 -0.6654 -0.2735
   12SAPS  H16R 1533   5.646   3.009   7.688  1.1018 -0.1891  0.9303
   12SAPS  H16S 1534   5.764   2.887   7.745  0.3619 -0.0661  1.2970
   12SAPS  C217 1535   5.598   2.904   7.866  0.2260  0.4384 -0.5731
   12SAPS  H17R 1536   5.490   2.928   7.867  0.0688 -0.1767 -1.7874
   12SAPS  H17S 1537   5.643   2.994   7.915 -0.2938 -0.5705  1.9320
   12SAPS  C218 1538   5.633   2.774   7.946 -0.3117 -0.4411  0.0668
   12SAPS  H18R 1539   5.744   2.770   7.949 -0.2328  0.9246  2.7948
   12SAPS  H18S 1540   5.580   2.683   7.909 -0.9493 -0.2570  0.4970
   12SAPS  C219 1541   5.605   2.795   8.108 -0.9963 -0.0040  0.8308
   12SAPS  H19R 1542   5.654   2.890   8.138  1.7304 -1.2389  0.5583
   12SAPS  H19S 1543   5.654   2.712   8.162  2.2090  0.3995 -1.1836
   12SAPS  C220 1544   5.460   2.809   8.153  0.0359  1.0527 -0.1509
   12SAPS  H20R 1545   5.430   2.913   8.128  0.1267  0.9772 -0.5842
   12SAPS  H20S 1546   5.447   2.802   8.263 -3.1227  0.3276 -0.4791
   12SAPS  H20T 1547   5.389   2.738   8.105  1.7001 -1.0918  0.4264
   12SAPS   C33 1548   6.154   2.807   6.572  0.4312  0.4509 -0.7063
   12SAPS   H3X 1549   6.236   2.783   6.644 -0.2670  2.2172  0.7510
   12SAPS   H3Y 1550   6.169   2.732   6.491 -0.5332 -0.9878  0.3887
   12SAPS   C34 1551   6.023   2.788   6.651  0.2100 -0.2634  0.2511
   12SAPS   H4X 1552   5.938   2.795   6.579 -0.4523  0.1211  1.0461
   12SAPS   H4Y 1553   6.005   2.853   6.739 -1.2024  0.8366 -0.8110
   12SAPS   C35 1554   6.022   2.653   6.721  0.5316  0.0685 -0.0634
   12SAPS   H5X 1555   6.065   2.579   6.650 -1.0938 -1.5809  0.5971
   12SAPS   H5Y 1556   5.916   2.627   6.742  0.3475 -0.7146 -1.7877
   12SAPS   C36 1557   6.095   2.638   6.854 -0.0119  0.1385 -0.7811
   12SAPS   H6X 1558   6.197   2.680   6.849 -0.1919  0.5910 -0.7384
   12SAPS   H6Y 1559   6.114   2.530   6.870 -1.7898  0.1391  2.0967
   12SAPS   C37 1560   6.011   2.686   6.976 -0.7866  0.8847 -0.4652
   12SAPS   H7X 1561   5.905   2.661   6.959 -0.5487  0.3053 -1.1056
   12SAPS   H7Y 1562   6.019   2.797   6.971  0.6737  1.1025  3.1711
   12SAPS   C38 1563   6.068   2.625   7.106 -0.6592  0.0289  0.6792
   12SAPS   H8X 1564   6.177   2.645   7.117 -0.3386  1.1314 -3.2629
   12SAPS   H8Y 1565   6.046   2.516   7.103  1.1333 -0.3436 -0.3115
   12SAPS   C39 1566   6.001   2.677   7.240  0.3150 -0.1946  0.9989
   12SAPS   H9X 1567   5.891   2.664   7.229  0.2190  1.6240 -0.6835
   12SAPS   H9Y 1568   6.013   2.787   7.252 -1.4577  0.1235  0.2094
   12SAPS  C310 1569   6.051   2.615   7.372  0.0684 -1.4075  0.1166
   12SAPS  H10X 1570   6.155   2.632   7.405 -0.0632 -3.1712  1.6603
   12SAPS  H10Y 1571   6.034   2.506   7.358 -1.1142 -1.3683  1.0641
   12SAPS  C311 1572   5.975   2.662   7.505 -0.2330  0.0235  0.7471
   12SAPS  H11X 1573   5.871   2.633   7.481  0.1403  0.1575 -1.2070
   12SAPS  H11Y 1574   5.971   2.773   7.510 -1.0094  0.1300 -1.2765
   12SAPS  C312 1575   6.030   2.594   7.622 -0.5907 -0.0751  0.7430
   12SAPS  H12X 1576   6.128   2.635   7.652 -0.8788 -0.0189  1.6461
   12SAPS  H12Y 1577   6.057   2.488   7.603  0.1416  0.1937  0.2397
   12SAPS  C313 1578   5.920   2.599   7.737 -0.3575  0.2571  0.1649
   12SAPS  H13X 1579   5.823   2.594   7.682  0.1137 -0.5020 -0.6366
   12SAPS  H13Y 1580   5.927   2.688   7.802 -1.1573  0.2686  0.2459
   12SAPS  C314 1581   5.920   2.477   7.831 -0.4905  0.1443  0.1000
   12SAPS  H14X 1582   5.932   2.394   7.759  1.4586 -0.2786  0.8374
   12SAPS  H14Y 1583   5.824   2.455   7.883 -0.1082  1.1936  1.3091
   12SAPS  C315 1584   6.042   2.490   7.924 -0.0604 -0.4592 -0.0983
   12SAPS  H15X 1585   6.017   2.574   7.992 -3.0187 -1.9975  0.8741
   12SAPS  H15Y 1586   6.134   2.495   7.861  1.7404  0.0267  2.3899
   12SAPS  C316 1587   6.062   2.366   8.013 -0.3804  0.2943  1.0038
   12SAPS  H16X 1588   6.064   2.280   7.943 -1.2765  0.6508  0.5215
   12SAPS  H16Y 1589   5.969   2.356   8.074 -1.8737 -0.6904 -1.2891
   12SAPS  C317 1590   6.185   2.377   8.100  0.2349  0.1287  0.4981
   12SAPS  H17X 1591   6.176   2.471   8.158  3.4189  1.7917 -1.4457
   12SAPS  H17Y 1592   6.274   2.402   8.037 -1.6320  2.0999 -1.5411
   12SAPS  C318 1593   6.202   2.247   8.179 -0.2238  0.4272 -0.1496
   12SAPS  H18X 1594   6.271   2.266   8.265  0.6753  1.9769 -1.1686
   12SAPS  H18Y 1595   6.247   2.173   8.110  1.3280  2.5855 -1.5829
   12SAPS  H18Z 1596   6.104   2.206   8.211  1.5168 -0.3143  5.3081
   13SAPS     N 1597   5.237   3.998   6.203 -0.2399  0.1317 -0.4981
   13SAPS   HN1 1598   5.299   3.931   6.153  0.0430  0.9682 -1.3146
   13SAPS   HN2 1599   5.291   4.086   6.218 -1.3383  0.7738 -0.1602
   13SAPS   HN3 1600   5.212   3.951   6.292 -1.1542 -1.0979 -1.3747
   13SAPS   C12 1601   5.104   4.027   6.130 -0.2568 -0.2656  0.3076
   13SAPS  H12A 1602   5.052   4.097   6.194  1.4632  1.1941  0.2028
   13SAPS   C13 1603   5.133   4.096   5.993  0.7020  0.7241  0.7334
   13SAPS  O13A 1604   5.252   4.122   5.956  0.1994 -0.3005 -0.0060
   13SAPS  O13B 1605   5.037   4.125   5.921 -0.5904 -0.1448  0.1916
   13SAPS   C11 1606   5.015   3.906   6.119  0.1648  0.0128 -0.4268
   13SAPS  H11A 1607   5.052   3.832   6.045  0.9398 -0.1597  0.1183
   13SAPS  H11B 1608   4.919   3.946   6.080 -0.7143 -2.0718 -0.5364
   13SAPS     P 1609   4.864   3.786   6.299  0.2306 -0.3855  0.0791
   13SAPS   O13 1610   4.777   3.774   6.181 -0.5083 -0.4594 -0.1348
   13SAPS   O14 1611   4.876   3.664   6.386 -0.2109  0.2974 -0.3931
   13SAPS   O12 1612   5.007   3.827   6.241  0.4627  0.2601  0.2618
   13SAPS   O11 1613   4.824   3.929   6.367 -0.0218  0.4624  0.1725
   13SAPS    C1 1614   4.897   3.985   6.474 -0.4438 -0.0888 -0.7214
   13SAPS    HA 1615   5.005   3.981   6.446 -0.7864 -0.5446 -2.0351
   13SAPS    HB 1616   4.880   4.095   6.475  1.6296  0.2768 -0.8508
   13SAPS    C2 1617   4.843   3.915   6.608 -0.4150 -0.7563  0.4162
   13SAPS    HS 1618   4.801   3.815   6.583 -0.2421 -0.2053 -2.4000
   13SAPS   O21 1619   4.750   4.005   6.672  0.7795  0.5331  0.0588
   13SAPS   C21 1620   4.619   4.005   6.630 -0.1994  0.4462  0.4642
   13SAPS   O22 1621   4.566   3.917   6.566 -0.1775 -0.4434  0.2362
   13SAPS   C22 1622   4.549   4.131   6.686 -0.0352  0.4364  0.2860
   13SAPS   H2R 1623   4.630   4.180   6.745  1.7085 -1.3935 -0.4715
   13SAPS   H2S 1624   4.528   4.205   6.606 -1.8100 -0.4260 -0.0941
   13SAPS    C3 1625   4.960   3.903   6.714 -0.2974  0.7059  0.6234
   13SAPS    HX 1626   5.009   4.002   6.725 -0.2891  1.2927 -3.2748
   13SAPS    HY 1627   5.038   3.834   6.676  1.2109  1.6492  1.9163
   13SAPS   O31 1628   4.913   3.858   6.836  0.1525  0.0371  0.1566
   13SAPS   C31 1629   4.877   3.723   6.838 -0.1955  0.5762 -0.4529
   13SAPS   O32 1630   4.920   3.641   6.761  0.3891 -0.4261  0.6968
   13SAPS   C32 1631   4.787   3.699   6.959 -0.0235 -0.0148  0.1283
   13SAPS   H2X 1632   4.722   3.788   6.978  1.2819  1.6322 -2.3881
   13SAPS   H2Y 1633   4.862   3.693   7.041  0.5798 -1.4621 -0.5053
   13SAPS   C23 1634   4.421   4.100   6.764  0.2928  0.0498 -0.3064
   13SAPS   H3R 1635   4.352   4.034   6.705 -0.9538  0.9964  0.0434
   13SAPS   H3S 1636   4.365   4.193   6.788 -2.2773 -1.6194  0.6347
   13SAPS   C24 1637   4.447   4.033   6.900  0.1423  0.1265 -0.0567
   13SAPS   H4R 1638   4.501   3.937   6.883 -1.5946 -0.8389 -0.3535
   13SAPS   H4S 1639   4.343   4.004   6.926  0.3371 -0.0945  0.4999
   13SAPS   C25 1640   4.520   4.109   7.012 -0.1292  0.1611  0.2684
   13SAPS   H5R 1641   4.615   4.153   6.977 -0.2802 -1.8015 -3.0149
   13SAPS   C26 1642   4.470   4.151   7.132  0.3124 -0.8058  0.1219
   13SAPS   H6R 1643   4.535   4.211   7.197  2.3812 -0.2111 -2.3334
   13SAPS   C27 1644   4.334   4.121   7.197 -0.7578  0.1075 -0.0851
   13SAPS   H7R 1645   4.330   4.019   7.242 -2.5697 -0.0652 -0.5705
   13SAPS   H7S 1646   4.250   4.125   7.124 -1.5453  0.7752  0.8418
   13SAPS   C28 1647   4.294   4.221   7.302  0.2150 -0.6090  0.1013
   13SAPS   H8R 1648   4.217   4.291   7.267  2.0287  0.0185 -3.0876
   13SAPS   C29 1649   4.332   4.221   7.431 -0.2536  0.0718  0.3582
   13SAPS   H9R 1650   4.304   4.309   7.489  1.6627  2.9526 -2.7245
   13SAPS  C210 1651   4.433   4.136   7.508 -0.4933 -0.2685 -0.0485
   13SAPS  H10R 1652   4.430   4.028   7.485  0.9523 -0.2701 -0.3616
   13SAPS  H10S 1653   4.397   4.118   7.612 -0.0857 -0.2336  0.1004
   13SAPS  C211 1654   4.571   4.205   7.504 -0.6742  0.4913  0.1288
   13SAPS  H11R 1655   4.601   4.243   7.405 -0.4221 -1.7547 -0.7150
   13SAPS  C212 1656   4.653   4.229   7.613  0.5366 -0.4597 -0.2495
   13SAPS  H12R 1657   4.757   4.260   7.593  0.9862 -1.8335 -0.1692
   13SAPS  C213 1658   4.634   4.188   7.759  0.4298 -0.0331 -0.1513
   13SAPS  H13R 1659   4.525   4.169   7.771 -0.0465  1.0071 -2.3833
   13SAPS  H13S 1660   4.670   4.270   7.824  0.5548 -0.5022  0.3807
   13SAPS  C214 1661   4.698   4.059   7.786 -1.3045 -0.0430 -0.6145
   13SAPS  H14R 1662   4.767   4.031   7.705 -1.1361  0.4562 -0.6470
   13SAPS  C215 1663   4.693   4.003   7.900 -0.6085  0.2930 -0.3199
   13SAPS  H15R 1664   4.740   3.904   7.911  1.4020  1.1043 -1.0398
   13SAPS  C216 1665   4.611   4.034   8.025 -0.4319 -0.3251  0.3473
   13SAPS  H16R 1666   4.553   4.128   8.013 -3.2701 -2.0042 -0.1808
   13SAPS  H16S 1667   4.687   4.044   8.105  1.7034  1.1657 -1.7458
   13SAPS  C217 1668   4.497   3.925   8.044 -0.2942  0.3135 -0.0755
   13SAPS  H17R 1669   4.443   3.912   7.947 -1.2409 -0.3950  0.5341
   13SAPS  H17S 1670   4.432   3.975   8.118  1.6995  0.4556  1.6526
   13SAPS  C218 1671   4.554   3.790   8.112 -0.0143  0.3996  0.0649
   13SAPS  H18R 1672   4.615   3.826   8.198 -0.9598 -1.0664  1.4174
   13SAPS  H18S 1673   4.624   3.728   8.052 -0.4667 -2.5544  2.2995
   13SAPS  C219 1674   4.434   3.699   8.152 -0.5555  0.6258 -0.4892
   13SAPS  H19R 1675   4.473   3.600   8.183 -0.3036  1.3602  1.6712
   13SAPS  H19S 1676   4.359   3.688   8.071 -0.9250 -0.2790 -0.0362
   13SAPS  C220 1677   4.364   3.739   8.283  0.0253 -0.1743  0.2279
   13SAPS  H20R 1678   4.287   3.670   8.321  0.4444  0.4535  2.3165
   13SAPS  H20S 1679   4.308   3.834   8.272 -0.1396 -0.1282  1.3530
   13SAPS  H20T 1680   4.440   3.741   8.364 -0.6897  3.7176  0.9824
   13SAPS   C33 1681   4.708   3.569   6.959  0.6891  0.2262  0.0979
   13SAPS   H3X 1682   4.768   3.488   6.912  2.0542  0.2310  1.7284
   13SAPS   H3Y 1683   4.617   3.586   6.898 -1.3887 -3.5477  1.7665
   13SAPS   C34 1684   4.663   3.533   7.106 -0.3565  0.0657 -0.0114
   13SAPS   H4X 1685   4.600   3.607   7.161 -0.9294 -0.7372  0.4332
   13SAPS   H4Y 1686   4.753   3.520   7.170 -1.0297  1.0389  1.1845
   13SAPS   C35 1687   4.592   3.399   7.105 -0.0355  0.0828  0.7137
   13SAPS   H5X 1688   4.664   3.322   7.070 -0.9043  0.2103 -1.5235
   13SAPS   H5Y 1689   4.508   3.403   7.033 -0.4350 -0.1237  1.1643
   13SAPS   C36 1690   4.525   3.364   7.236 -0.0635  0.0786  0.5130
   13SAPS   H6X 1691   4.502   3.465   7.276 -2.0303 -0.2169  0.2602
   13SAPS   H6Y 1692   4.602   3.325   7.306  2.9281  1.8132 -1.5873
   13SAPS   C37 1693   4.406   3.259   7.220 -0.1706  0.1376  0.8659
   13SAPS   H7X 1694   4.431   3.156   7.186 -1.5096 -0.0090  0.2683
   13SAPS   H7Y 1695   4.338   3.306   7.146 -0.6134 -0.4698  0.8803
   13SAPS   C38 1696   4.316   3.252   7.346  0.1843 -0.1166  0.6133
   13SAPS   H8X 1697   4.285   3.356   7.370 -0.7391 -0.0118 -0.9144
   13SAPS   H8Y 1698   4.372   3.210   7.433  2.6511  0.8667 -0.3816
   13SAPS   C39 1699   4.189   3.174   7.330 -0.2991  0.5219 -0.0716
   13SAPS   H9X 1700   4.216   3.072   7.295 -1.9754  0.0267 -0.0175
   13SAPS   H9Y 1701   4.124   3.225   7.255 -0.4058 -0.5265 -0.7166
   13SAPS  C310 1702   4.119   3.164   7.464  0.3549  0.4181  0.0195
   13SAPS  H10X 1703   4.111   3.261   7.517  0.7417 -1.2915  3.5045
   13SAPS  H10Y 1704   4.183   3.107   7.535 -0.8696  0.4410  1.1830
   13SAPS  C311 1705   3.990   3.089   7.461  0.8451  0.3101 -0.1717
   13SAPS  H11X 1706   4.015   2.989   7.419 -2.2476 -1.0772  0.9542
   13SAPS  H11Y 1707   3.911   3.134   7.396  1.7962  3.7928  0.8816
   13SAPS  C312 1708   3.936   3.075   7.609 -0.0120  0.3339  0.6931
   13SAPS  H12X 1709   3.828   3.055   7.592  1.0238 -4.0884 -2.4204
   13SAPS  H12Y 1710   3.956   3.175   7.653 -0.4760  1.0575 -0.6664
   13SAPS  C313 1711   4.006   2.962   7.686  0.1734 -0.2380 -0.1527
   13SAPS  H13X 1712   4.109   2.943   7.651  1.2390  1.5914  1.7711
   13SAPS  H13Y 1713   3.945   2.870   7.671 -0.5613 -0.1239  1.7919
   13SAPS  C314 1714   4.011   2.984   7.838  0.1912  0.2010 -0.5574
   13SAPS  H14X 1715   3.914   3.028   7.869 -0.2123 -0.4122 -0.9238
   13SAPS  H14Y 1716   4.087   3.060   7.866  0.8279 -0.0885 -1.4415
   13SAPS  C315 1717   4.031   2.856   7.920 -0.1885  0.9853  0.2554
   13SAPS  H15X 1718   4.115   2.798   7.876 -2.0849 -0.7521 -1.2778
   13SAPS  H15Y 1719   3.943   2.787   7.916 -0.7124  1.6017  0.8014
   13SAPS  C316 1720   4.048   2.898   8.075 -1.0924 -0.1149 -0.0174
   13SAPS  H16X 1721   3.964   2.964   8.105 -0.2934  1.0434 -0.2518
   13SAPS  H16Y 1722   4.139   2.961   8.071  0.1546 -1.6314  2.0205
   13SAPS  C317 1723   4.072   2.778   8.168  0.3737 -0.3429 -0.0541
   13SAPS  H17X 1724   4.173   2.738   8.146  0.7483  1.6779 -2.4746
   13SAPS  H17Y 1725   4.000   2.698   8.139  0.3973 -0.3571 -0.0745
   13SAPS  C318 1726   4.071   2.843   8.303  0.8998  0.8845  0.0723
   13SAPS  H18X 1727   4.095   2.763   8.376  1.1999  0.3736 -0.5684
   13SAPS  H18Y 1728   3.978   2.902   8.316  0.4658 -0.0206  1.2097
   13SAPS  H18Z 1729   4.155   2.916   8.303  1.5307  0.1769 -0.3803
   14SAPS     N 1730   0.556   1.322   5.733  0.1459 -0.0678  0.3468
   14SAPS   HN1 1731   0.529   1.260   5.812 -1.4182 -0.1724 -0.2379
   14SAPS   HN2 1732   0.484   1.328   5.658  0.6453 -2.3247 -0.4008
   14SAPS   HN3 1733   0.644   1.291   5.687  0.2274  1.4317 -0.5787
   14SAPS   C12 1734   0.581   1.457   5.781 -0.5259 -0.1152 -0.0677
   14SAPS  H12A 1735   0.679   1.454   5.826  0.0083  4.6670 -0.4189
   14SAPS   C13 1736   0.574   1.565   5.669 -0.3927  0.3190  0.1879
   14SAPS  O13A 1737   0.563   1.513   5.549  0.1193 -0.3095  0.2010
   14SAPS  O13B 1738   0.607   1.683   5.685  0.4013  0.2236  0.0651
   14SAPS   C11 1739   0.465   1.485   5.884 -0.8916 -0.1218 -0.8533
   14SAPS  H11A 1740   0.376   1.471   5.820 -2.3227 -2.0274  1.3599
   14SAPS  H11B 1741   0.483   1.590   5.914  0.5390 -0.3589 -0.7961
   14SAPS     P 1742   0.568   1.416   6.114 -0.1396  0.4255  0.4831
   14SAPS   O13 1743   0.523   1.337   6.230  0.1041  0.2219 -0.1970
   14SAPS   O14 1744   0.700   1.395   6.054 -0.4146  0.7155  0.2977
   14SAPS   O12 1745   0.460   1.391   6.000 -0.2807  1.0361 -0.4147
   14SAPS   O11 1746   0.551   1.568   6.151 -1.0537 -0.4443  0.5590
   14SAPS    C1 1747   0.438   1.632   6.202  0.5557 -0.1956  0.1792
   14SAPS    HA 1748   0.407   1.711   6.130 -0.8596  1.1387  2.1597
   14SAPS    HB 1749   0.348   1.567   6.194 -0.0227  0.8133 -2.8424
   14SAPS    C2 1750   0.458   1.696   6.342  0.0112 -0.0462  0.0291
   14SAPS    HS 1751   0.541   1.769   6.329 -0.4837  0.3291 -1.1861
   14SAPS   O21 1752   0.497   1.586   6.429 -0.0109 -0.1867 -0.2978
   14SAPS   C21 1753   0.615   1.593   6.484  0.2725 -0.2170  0.1169
   14SAPS   O22 1754   0.702   1.676   6.468  0.2935  0.4359 -0.6170
   14SAPS   C22 1755   0.625   1.463   6.569 -0.4636 -0.1664 -0.5541
   14SAPS   H2R 1756   0.530   1.425   6.612  1.0902 -1.9660  1.5341
   14SAPS   H2S 1757   0.670   1.387   6.502 -0.0476 -3.1398  2.8040
   14SAPS    C3 1758   0.343   1.779   6.396  0.2828 -0.0282 -0.0118
   14SAPS    HX 1759   0.253   1.715   6.401  0.3131 -0.3276 -2.3652
   14SAPS    HY 1760   0.314   1.852   6.318 -1.6477 -0.3588  0.3627
   14SAPS   O31 1761   0.372   1.835   6.524 -0.9324  0.8067 -1.0048
   14SAPS   C31 1762   0.407   1.956   6.532  0.5015 -0.4219 -0.0232
   14SAPS   O32 1763   0.406   2.037   6.436 -0.0697  0.4941  0.2899
   14SAPS   C32 1764   0.456   1.988   6.666  0.3690  0.1395 -0.9694
   14SAPS   H2X 1765   0.492   2.093   6.663  0.5789  0.1432  0.7464
   14SAPS   H2Y 1766   0.540   1.926   6.705  1.3118  2.9333  1.9110
   14SAPS   C23 1767   0.727   1.462   6.692 -0.0491 -0.5452 -0.7256
   14SAPS   H3R 1768   0.829   1.472   6.651  0.9458  1.7435  1.9975
   14SAPS   H3S 1769   0.725   1.374   6.758  2.0268 -1.1847 -1.4523
   14SAPS   C24 1770   0.719   1.582   6.785  0.3298 -0.3177 -0.1735
   14SAPS   H4R 1771   0.796   1.652   6.746  1.5459 -0.0753  2.4159
   14SAPS   H4S 1772   0.756   1.551   6.885 -2.0312  2.1343  1.6063
   14SAPS   C25 1773   0.580   1.642   6.803 -0.4509  0.3563 -0.3919
   14SAPS   H5R 1774   0.537   1.690   6.714 -0.4899  0.5709 -0.2592
   14SAPS   C26 1775   0.498   1.620   6.916 -0.1434  0.3661  0.1735
   14SAPS   H6R 1776   0.404   1.676   6.923 -1.0523 -1.0663 -0.4261
   14SAPS   C27 1777   0.516   1.543   7.043 -0.4457  0.5673 -1.0143
   14SAPS   H7R 1778   0.566   1.445   7.023  2.0774  0.9092  2.6003
   14SAPS   H7S 1779   0.421   1.507   7.088  1.2107 -0.2662  2.0708
   14SAPS   C28 1780   0.590   1.626   7.148 -0.3195  0.6669 -0.9176
   14SAPS   H8R 1781   0.695   1.655   7.130  0.8089 -0.9218  2.3864
   14SAPS   C29 1782   0.540   1.674   7.261  1.3394 -0.8576  0.2651
   14SAPS   H9R 1783   0.615   1.726   7.324  1.4115 -0.3181 -0.2553
   14SAPS  C210 1784   0.414   1.642   7.331  0.6586  0.7185  0.0692
   14SAPS  H10R 1785   0.427   1.538   7.365  1.1516  1.0538  0.9143
   14SAPS  H10S 1786   0.339   1.634   7.249  1.5629 -2.4960 -0.5792
   14SAPS  C211 1787   0.361   1.718   7.450 -0.1011  0.4235  0.1699
   14SAPS  H11R 1788   0.263   1.767   7.435 -0.3895 -0.9411 -3.3842
   14SAPS  C212 1789   0.429   1.745   7.561 -0.2986  0.2375  0.3072
   14SAPS  H12R 1790   0.373   1.795   7.641 -0.4065 -0.8986  0.9795
   14SAPS  C213 1791   0.558   1.687   7.608  0.3240 -0.0412  0.1921
   14SAPS  H13R 1792   0.640   1.759   7.587 -2.5808  3.2011 -0.8228
   14SAPS  H13S 1793   0.583   1.608   7.534 -0.4540  2.1785 -2.6510
   14SAPS  C214 1794   0.559   1.637   7.752 -0.2506 -0.6457  0.9724
   14SAPS  H14R 1795   0.506   1.545   7.780 -1.4437 -0.3142 -0.1079
   14SAPS  C215 1796   0.585   1.712   7.856  0.2028 -0.4097  0.5466
   14SAPS  H15R 1797   0.574   1.679   7.961  2.6484  2.5945  1.9128
   14SAPS  C216 1798   0.649   1.852   7.845 -0.3137 -0.1020  0.4706
   14SAPS  H16R 1799   0.645   1.892   7.742 -1.7547 -0.5609  0.3300
   14SAPS  H16S 1800   0.755   1.865   7.877 -0.8011  0.6244  1.8812
   14SAPS  C217 1801   0.559   1.957   7.917 -0.8091 -0.0987  0.9853
   14SAPS  H17R 1802   0.452   1.958   7.888 -0.1438  1.3563 -1.7292
   14SAPS  H17S 1803   0.596   2.058   7.888  0.5605 -0.0610  2.6682
   14SAPS  C218 1804   0.568   1.942   8.067  0.0586 -0.0111 -0.2137
   14SAPS  H18R 1805   0.641   2.012   8.113 -0.9315  1.3886 -0.7057
   14SAPS  H18S 1806   0.596   1.837   8.088 -2.0349 -0.8611 -1.3824
   14SAPS  C219 1807   0.431   1.959   8.131  1.2564  0.6348 -0.4628
   14SAPS  H19R 1808   0.368   1.876   8.092  0.5324  0.4892  0.9603
   14SAPS  H19S 1809   0.384   2.055   8.102 -0.2802 -0.1205 -0.5776
   14SAPS  C220 1810   0.441   1.938   8.283 -0.1398 -0.0080  0.0988
   14SAPS  H20R 1811   0.524   2.003   8.319 -0.8125  0.4124  0.9186
   14SAPS  H20S 1812   0.477   1.834   8.302  0.2753  0.1080 -0.0350
   14SAPS  H20T 1813   0.344   1.937   8.336  0.0879 -1.5107  0.5519
   14SAPS   C33 1814   0.333   1.989   6.767  0.4255 -0.6076  0.0937
   14SAPS   H3X 1815   0.370   2.006   6.870  0.9081  4.3241 -0.6350
   14SAPS   H3Y 1816   0.272   1.896   6.764 -2.8214  1.2970  1.9898
   14SAPS   C34 1817   0.221   2.087   6.751 -0.0607 -0.5945  0.5575
   14SAPS   H4X 1818   0.205   2.083   6.641  2.9805 -0.1570  0.0354
   14SAPS   H4Y 1819   0.247   2.193   6.774  0.1151 -0.4481 -0.2902
   14SAPS   C35 1820   0.094   2.052   6.817  0.4276  0.2208 -0.7238
   14SAPS   H5X 1821   0.068   1.947   6.794 -2.7626  0.9455 -0.9222
   14SAPS   H5Y 1822   0.017   2.122   6.777 -1.8751 -1.4953  0.4732
   14SAPS   C36 1823   0.099   2.077   6.976  0.2033  0.4612 -0.0466
   14SAPS   H6X 1824   0.141   2.177   6.999  0.7425  0.3570 -0.5506
   14SAPS   H6Y 1825   0.165   2.005   7.030  0.7915  0.9873 -0.0527
   14SAPS   C37 1826  -0.045   2.062   7.033 -0.7045 -0.2161 -0.2871
   14SAPS   H7X 1827  -0.086   1.966   6.995 -2.2367  1.0656 -2.0697
   14SAPS   H7Y 1828  -0.114   2.138   6.990 -0.2313  0.9666  0.9877
   14SAPS   C38 1829  -0.056   2.065   7.189 -0.5168 -0.8107  0.1045
   14SAPS   H8X 1830   0.003   1.988   7.242  0.3510  1.1484  2.1729
   14SAPS   H8Y 1831  -0.164   2.039   7.198 -0.3427 -2.7487 -2.3204
   14SAPS   C39 1832  -0.033   2.203   7.255 -0.1087  0.5816  0.9360
   14SAPS   H9X 1833  -0.116   2.264   7.214 -0.6818 -0.4834  0.4886
   14SAPS   H9Y 1834   0.058   2.257   7.220  1.3688 -2.0442  0.4736
   14SAPS  C310 1835  -0.027   2.188   7.408  0.6372 -0.0947  0.0347
   14SAPS  H10X 1836   0.048   2.110   7.432 -0.5897 -1.1618  0.5680
   14SAPS  H10Y 1837  -0.123   2.144   7.444 -0.5400  1.5744 -0.8897
   14SAPS  C311 1838   0.024   2.311   7.479 -0.2360  0.4994  0.1193
   14SAPS  H11X 1839  -0.049   2.392   7.461 -0.4154  0.2127 -0.4699
   14SAPS  H11Y 1840   0.127   2.324   7.440 -0.2961 -0.2342 -0.3079
   14SAPS  C312 1841   0.038   2.288   7.632  0.0225 -0.2891 -0.9097
   14SAPS  H12X 1842   0.113   2.208   7.648  0.9267  0.5225 -1.0641
   14SAPS  H12Y 1843  -0.067   2.258   7.657 -0.6137  1.9996 -0.6324
   14SAPS  C313 1844   0.080   2.410   7.716  0.2602 -0.1116 -0.1039
   14SAPS  H13X 1845   0.011   2.497   7.710 -0.5722 -0.4902  2.5831
   14SAPS  H13Y 1846   0.182   2.446   7.687 -0.3050  0.7247 -1.1077
   14SAPS  C314 1847   0.096   2.395   7.866 -0.3950  0.1811 -0.2466
   14SAPS  H14X 1848   0.176   2.320   7.884 -1.1959 -0.2033  2.0739
   14SAPS  H14Y 1849   0.003   2.350   7.908  0.0476  1.1427  1.8539
   14SAPS  C315 1850   0.131   2.516   7.952 -0.2916 -0.3511 -0.0933
   14SAPS  H15X 1851   0.062   2.601   7.931  0.6251 -0.1011 -2.3883
   14SAPS  H15Y 1852   0.233   2.548   7.920  1.3880 -3.3427  1.8234
   14SAPS  C316 1853   0.142   2.479   8.097  0.7285 -0.6341  0.2973
   14SAPS  H16X 1854   0.048   2.442   8.142 -0.1835  1.3018  0.0441
   14SAPS  H16Y 1855   0.161   2.572   8.154 -2.4074  0.7169 -0.6975
   14SAPS  C317 1856   0.246   2.372   8.130  0.1810 -0.5434 -0.4072
   14SAPS  H17X 1857   0.334   2.384   8.063 -0.8058 -1.8529 -2.0119
   14SAPS  H17Y 1858   0.221   2.268   8.102 -0.3187 -0.8128  0.9968
   14SAPS  C318 1859   0.278   2.368   8.274 -0.5452  0.1615  0.3458
   14SAPS  H18X 1860   0.344   2.454   8.298  3.0908 -2.0066 -0.9202
   14SAPS  H18Y 1861   0.322   2.273   8.314 -2.3424 -0.1122  1.7639
   14SAPS  H18Z 1862   0.187   2.382   8.335 -0.1981 -0.3086  0.9891
   15SAPS     N 1863   4.820   0.854   6.292  0.0166 -0.3840  0.0309
   15SAPS   HN1 1864   4.861   0.940   6.333  1.5296 -1.3608  0.6168
   15SAPS   HN2 1865   4.724   0.881   6.259 -0.5298 -3.1999 -1.0022
   15SAPS   HN3 1866   4.816   0.782   6.366  0.8412 -0.0818  0.3715
   15SAPS   C12 1867   4.878   0.806   6.170 -0.1756 -0.0859  0.2051
   15SAPS  H12A 1868   4.822   0.717   6.147 -1.3293 -0.1876  3.0209
   15SAPS   C13 1869   4.865   0.910   6.058 -0.2545  0.3309 -0.1784
   15SAPS  O13A 1870   4.781   1.005   6.068 -0.6281  0.1546 -0.8168
   15SAPS  O13B 1871   4.936   0.903   5.955  0.5781  0.1834  0.1368
   15SAPS   C11 1872   5.027   0.766   6.200 -0.1845 -0.3975  0.0411
   15SAPS  H11A 1873   5.076   0.728   6.107 -1.7447  0.0415 -1.0159
   15SAPS  H11B 1874   5.025   0.683   6.273  1.0249 -0.9532 -0.5199
   15SAPS     P 1875   5.236   0.858   6.328  0.4890  0.3528  0.2711
   15SAPS   O13 1876   5.328   0.770   6.253 -0.3352 -0.4045 -0.1453
   15SAPS   O14 1877   5.288   0.987   6.374 -0.0583  0.2669  0.4043
   15SAPS   O12 1878   5.103   0.881   6.252 -0.4908 -0.3077  0.9605
   15SAPS   O11 1879   5.180   0.775   6.448 -0.6371  0.3636 -0.3457
   15SAPS    C1 1880   5.105   0.829   6.554 -0.6879 -0.1135  0.0276
   15SAPS    HA 1881   5.049   0.914   6.510 -0.0257  0.1288 -0.3574
   15SAPS    HB 1882   5.024   0.763   6.593 -1.1731 -0.0728 -0.8720
   15SAPS    C2 1883   5.189   0.887   6.664 -0.1684  0.1198  0.4886
   15SAPS    HS 1884   5.255   0.957   6.609 -0.8858  2.0044  1.9128
   15SAPS   O21 1885   5.246   0.779   6.731 -0.2495  0.3339 -0.1544
   15SAPS   C21 1886   5.344   0.818   6.803 -0.3356 -0.3520 -1.3699
   15SAPS   O22 1887   5.409   0.920   6.785 -0.3854  0.2338  0.7990
   15SAPS   C22 1888   5.369   0.723   6.922 -0.4931 -0.6223  0.0078
   15SAPS   H2R 1889   5.310   0.632   6.897 -1.8657  0.6538 -1.6219
   15SAPS   H2S 1890   5.476   0.694   6.929  0.1840  1.8925  1.0907
   15SAPS    C3 1891   5.109   0.981   6.759 -0.2741 -0.3643  0.0431
   15SAPS    HX 1892   5.019   0.924   6.790 -0.0096 -0.1275  1.3041
   15SAPS    HY 1893   5.067   1.060   6.693 -0.1166  0.0025  0.3789
   15SAPS   O31 1894   5.179   1.029   6.873 -0.2925  0.0872 -0.5880
   15SAPS   C31 1895   5.236   1.144   6.852 -1.0848 -0.2539 -0.0878
   15SAPS   O32 1896   5.214   1.221   6.762  0.0861  0.4119  0.0227
   15SAPS   C32 1897   5.330   1.183   6.963  0.1156  0.1764 -0.3636
   15SAPS   H2X 1898   5.358   1.288   6.941 -3.3200  0.6253 -3.4620
   15SAPS   H2Y 1899   5.417   1.116   6.944 -0.4157 -0.2674 -1.2919
   15SAPS   C23 1900   5.321   0.780   7.054  0.6128 -0.1820  0.0873
   15SAPS   H3R 1901   5.221   0.828   7.044  1.7619  2.5832  0.8380
   15SAPS   H3S 1902   5.377   0.871   7.084 -1.0967  1.2362 -0.8848
   15SAPS   C24 1903   5.313   0.672   7.172 -0.4090 -0.2724  1.3862
   15SAPS   H4R 1904   5.257   0.720   7.255  1.4904  2.6435  1.1327
   15SAPS   H4S 1905   5.419   0.648   7.194  0.0122  0.8365  0.6704
   15SAPS   C25 1906   5.238   0.546   7.133 -0.4080  0.4016  0.5725
   15SAPS   H5R 1907   5.135   0.549   7.094 -0.5260 -1.9859  0.5593
   15SAPS   C26 1908   5.282   0.423   7.171 -0.1977 -0.4183  0.0961
   15SAPS   H6R 1909   5.227   0.334   7.135  0.7342 -0.6837 -0.7130
   15SAPS   C27 1910   5.414   0.409   7.238  0.1337  0.1160 -0.2267
   15SAPS   H7R 1911   5.414   0.479   7.324  0.2613 -0.1252 -0.0324
   15SAPS   H7S 1912   5.499   0.438   7.173  0.0881 -0.0262 -0.3512
   15SAPS   C28 1913   5.430   0.264   7.288 -0.0122 -0.1551 -0.4372
   15SAPS   H8R 1914   5.449   0.200   7.201 -0.8518  1.7326 -2.1132
   15SAPS   C29 1915   5.435   0.219   7.418 -0.0131  0.4157  0.8983
   15SAPS   H9R 1916   5.436   0.109   7.419 -1.1729  0.3876  0.1923
   15SAPS  C210 1917   5.423   0.291   7.548 -0.3311 -0.2156  0.1030
   15SAPS  H10R 1918   5.323   0.306   7.593  0.3480  0.7657  1.3584
   15SAPS  H10S 1919   5.471   0.391   7.544  0.5572 -0.6034  0.7000
   15SAPS  C211 1920   5.504   0.229   7.658 -0.1733  0.2874  0.3568
   15SAPS  H11R 1921   5.575   0.152   7.625 -0.2435 -0.1810  1.2614
   15SAPS  C212 1922   5.497   0.245   7.794  0.3433  0.0508  0.1428
   15SAPS  H12R 1923   5.562   0.175   7.847  0.1296 -0.1093  0.1899
   15SAPS  C213 1924   5.404   0.344   7.860 -0.1093  0.5999  0.5387
   15SAPS  H13R 1925   5.301   0.345   7.819  0.3536  0.5419 -0.6519
   15SAPS  H13S 1926   5.442   0.446   7.835  2.3889 -0.8699 -2.2692
   15SAPS  C214 1927   5.380   0.314   8.004 -0.3247  0.4866 -0.5142
   15SAPS  H14R 1928   5.328   0.218   8.021  0.1246  0.1584 -0.9772
   15SAPS  C215 1929   5.407   0.391   8.111 -0.7803  0.3843 -0.6139
   15SAPS  H15R 1930   5.395   0.344   8.210 -2.5322 -1.6187 -1.6928
   15SAPS  C216 1931   5.489   0.519   8.114 -0.1234 -0.5966  0.2093
   15SAPS  H16R 1932   5.429   0.608   8.140 -0.6295 -0.8982  0.0833
   15SAPS  H16S 1933   5.519   0.533   8.008 -1.6206  1.1730 -0.0145
   15SAPS  C217 1934   5.602   0.507   8.212 -0.2054 -0.7379 -0.1763
   15SAPS  H17R 1935   5.679   0.446   8.160 -0.0401 -0.7197  0.0396
   15SAPS  H17S 1936   5.575   0.464   8.311  1.0861  0.2366  0.6520
   15SAPS  C218 1937   5.657   0.650   8.242  0.6300  0.4115  0.4698
   15SAPS  H18R 1938   5.576   0.710   8.288 -0.7673 -0.6139 -0.5563
   15SAPS  H18S 1939   5.683   0.704   8.149  1.2575  1.7420  1.3934
   15SAPS  C219 1940   5.779   0.645   8.341 -0.0033 -0.2879  0.1356
   15SAPS  H19R 1941   5.827   0.745   8.332  3.5524 -1.7967  0.4370
   15SAPS  H19S 1942   5.840   0.560   8.303  1.6845  0.2132  1.5820
   15SAPS  C220 1943   5.743   0.617   8.486  0.1357 -0.0590 -1.0914
   15SAPS  H20R 1944   5.663   0.693   8.503  0.9643  0.6016 -0.0451
   15SAPS  H20S 1945   5.819   0.642   8.563 -0.0559  3.2061 -1.8039
   15SAPS  H20T 1946   5.708   0.513   8.504  0.7075  0.1343  1.6034
   15SAPS   C33 1947   5.273   1.173   7.106 -0.3905 -0.6124 -0.6944
   15SAPS   H3X 1948   5.222   1.077   7.129 -0.5250 -1.5373 -4.2716
   15SAPS   H3Y 1949   5.194   1.251   7.114  1.5564  1.3756  0.2569
   15SAPS   C34 1950   5.372   1.197   7.216  0.3285 -0.3504 -0.3578
   15SAPS   H4X 1951   5.429   1.292   7.201  0.0743 -0.6167 -3.4448
   15SAPS   H4Y 1952   5.451   1.121   7.200 -1.2523 -2.6067  1.7399
   15SAPS   C35 1953   5.310   1.187   7.357 -0.2665  0.1543 -0.5225
   15SAPS   H5X 1954   5.268   1.085   7.375 -0.7490  0.4197 -0.0895
   15SAPS   H5Y 1955   5.225   1.255   7.382  1.3883  3.4879 -3.1901
   15SAPS   C36 1956   5.417   1.199   7.466  0.6578  0.8098  0.0761
   15SAPS   H6X 1957   5.479   1.291   7.455  1.5214  0.1301 -0.8736
   15SAPS   H6Y 1958   5.469   1.103   7.445 -4.1016 -2.8096  2.7153
   15SAPS   C37 1959   5.371   1.195   7.609 -0.2862 -0.4319 -0.0334
   15SAPS   H7X 1960   5.466   1.188   7.666  0.3597  0.5332 -0.9390
   15SAPS   H7Y 1961   5.312   1.102   7.620 -0.4656 -0.8383 -3.2501
   15SAPS   C38 1962   5.297   1.316   7.654  0.4973  0.9598 -0.4889
   15SAPS   H8X 1963   5.213   1.333   7.583  0.3667  0.0975 -0.5475
   15SAPS   H8Y 1964   5.352   1.412   7.647 -0.0594  1.2244 -1.4369
   15SAPS   C39 1965   5.240   1.307   7.795 -0.0178  0.6156  0.4931
   15SAPS   H9X 1966   5.190   1.400   7.831  0.9135  1.7341 -1.0164
   15SAPS   H9Y 1967   5.322   1.279   7.865  2.3120  1.6042 -1.6939
   15SAPS  C310 1968   5.121   1.208   7.798 -0.2386 -0.1388 -0.5157
   15SAPS  H10X 1969   5.151   1.102   7.810  4.3213  1.1254  2.0249
   15SAPS  H10Y 1970   5.042   1.231   7.723 -0.5508 -1.8908 -0.7571
   15SAPS  C311 1971   5.032   1.237   7.920  0.3260 -0.0383  0.2516
   15SAPS  H11X 1972   4.938   1.178   7.911 -0.2398  0.8136  0.4379
   15SAPS  H11Y 1973   5.006   1.344   7.909 -0.3682 -0.2780 -0.5690
   15SAPS  C312 1974   5.110   1.221   8.051 -0.0322 -0.6570 -0.5137
   15SAPS  H12X 1975   5.195   1.292   8.057  0.7896 -1.7338  1.7988
   15SAPS  H12Y 1976   5.142   1.115   8.061 -2.7559 -1.3392  2.7575
   15SAPS  C313 1977   5.024   1.265   8.170 -0.1990 -0.7594 -0.2706
   15SAPS  H13X 1978   4.920   1.226   8.163 -0.8057 -0.0937  3.1461
   15SAPS  H13Y 1979   5.027   1.374   8.187 -0.7512 -0.7245 -0.3848
   15SAPS  C314 1980   5.073   1.190   8.298 -0.4259  0.2202 -0.2187
   15SAPS  H14X 1981   5.142   1.259   8.351 -0.4830  0.6078 -0.6416
   15SAPS  H14Y 1982   5.138   1.102   8.276 -1.4580 -0.8900  0.9928
   15SAPS  C315 1983   4.960   1.149   8.393  0.2752  1.4767 -0.3072
   15SAPS  H15X 1984   5.010   1.107   8.483 -0.1986  3.0596  0.7429
   15SAPS  H15Y 1985   4.888   1.076   8.351  1.1510 -0.9635  2.1616
   15SAPS  C316 1986   4.886   1.270   8.438  0.0141  0.6373 -0.5964
   15SAPS  H16X 1987   4.834   1.303   8.345 -0.5391  0.8955 -0.2007
   15SAPS  H16Y 1988   4.957   1.348   8.474  0.2399 -0.2877  1.0389
   15SAPS  C317 1989   4.774   1.241   8.542 -0.2417 -0.2951  0.3368
   15SAPS  H17X 1990   4.816   1.198   8.636 -0.4434 -0.0440  0.5426
   15SAPS  H17Y 1991   4.711   1.160   8.499  0.6879 -0.5255 -0.6425
   15SAPS  C318 1992   4.692   1.370   8.568 -0.1248 -0.0645  0.2223
   15SAPS  H18X 1993   4.613   1.332   8.636  1.9443 -0.6683  2.4292
   15SAPS  H18Y 1994   4.642   1.411   8.478 -3.0682 -0.5794  1.5057
   15SAPS  H18Z 1995   4.747   1.450   8.622  1.1215 -1.0076  0.3679
   16SAPS     N 1996   2.202   4.836   5.785 -0.4013 -0.0401  0.1353
   16SAPS   HN1 1997   2.199   4.732   5.795  0.1591  0.1205  2.4213
   16SAPS   HN2 1998   2.167   4.886   5.869  2.0573  0.9049  0.6648
   16SAPS   HN3 1999   2.155   4.856   5.694 -1.9442 -0.3720  0.8317
   16SAPS   C12 2000   2.342   4.875   5.755  0.6894 -0.3074  1.0800
   16SAPS  H12A 2001   2.373   4.815   5.671 -1.1660 -0.9850  0.8410
   16SAPS   C13 2002   2.355   5.021   5.710  0.1650 -0.9428  0.0946
   16SAPS  O13A 2003   2.262   5.097   5.684  0.3080 -0.3459 -0.1110
   16SAPS  O13B 2004   2.468   5.046   5.659  0.3076 -0.1324 -0.6013
   16SAPS   C11 2005   2.432   4.844   5.882 -0.7618 -0.0478  0.1975
   16SAPS  H11A 2006   2.535   4.837   5.842 -1.0548 -0.9958 -0.4347
   16SAPS  H11B 2007   2.404   4.741   5.910  0.7781 -1.7474 -3.8108
   16SAPS     P 2008   2.324   4.954   6.101 -0.1048 -0.3438 -0.5034
   16SAPS   O13 2009   2.340   5.081   6.169  0.3112 -0.4446 -0.2372
   16SAPS   O14 2010   2.197   4.930   6.034  0.2009 -0.6518  0.0307
   16SAPS   O12 2011   2.433   4.941   5.990  0.0413 -0.8029 -0.1363
   16SAPS   O11 2012   2.379   4.836   6.200  0.4639  0.0546 -0.8443
   16SAPS    C1 2013   2.323   4.702   6.189 -0.0467  0.1198  0.9514
   16SAPS    HA 2014   2.300   4.670   6.086 -0.9020  1.2500  0.7795
   16SAPS    HB 2015   2.393   4.636   6.245 -0.4712 -0.7306  0.4868
   16SAPS    C2 2016   2.190   4.697   6.267 -0.3698  0.1073  0.3229
   16SAPS    HS 2017   2.112   4.765   6.225 -2.0242 -0.1005  2.8400
   16SAPS   O21 2018   2.221   4.736   6.404  0.5106  0.0462  0.2931
   16SAPS   C21 2019   2.120   4.799   6.465  0.1137 -0.1994 -0.0270
   16SAPS   O22 2020   2.013   4.828   6.415 -0.1058 -0.4403  0.2925
   16SAPS   C22 2021   2.154   4.827   6.612  0.0081  0.2366 -0.1672
   16SAPS   H2R 2022   2.176   4.730   6.661 -1.7181 -1.4216 -2.3896
   16SAPS   H2S 2023   2.250   4.882   6.612  0.3072 -0.2054  2.0648
   16SAPS    C3 2024   2.132   4.555   6.238  0.5607  0.6939  0.5585
   16SAPS    HX 2025   2.115   4.533   6.130  4.0235  0.0032  0.0348
   16SAPS    HY 2026   2.038   4.549   6.295 -0.3111 -1.5642 -0.9679
   16SAPS   O31 2027   2.226   4.455   6.279 -0.4071  0.4590  0.3256
   16SAPS   C31 2028   2.201   4.337   6.226 -0.5325 -0.6087 -0.4900
   16SAPS   O32 2029   2.090   4.308   6.185  0.7740  0.1217 -0.1591
   16SAPS   C32 2030   2.308   4.241   6.252 -0.1312  0.3892  0.6951
   16SAPS   H2X 2031   2.400   4.281   6.299  1.5239 -0.8808 -1.2411
   16SAPS   H2Y 2032   2.331   4.208   6.148  1.0657  2.0222  0.4087
   16SAPS   C23 2033   2.033   4.901   6.685 -0.7424  0.0772  0.3500
   16SAPS   H3R 2034   1.944   4.837   6.700 -1.2205  0.9554  1.3808
   16SAPS   H3S 2035   2.003   4.996   6.635 -0.1416  0.0719 -0.0415
   16SAPS   C24 2036   2.080   4.966   6.818 -0.6773 -0.1038  0.1171
   16SAPS   H4R 2037   2.159   5.036   6.785  1.2667 -2.5004 -0.5981
   16SAPS   H4S 2038   2.141   4.897   6.880 -0.9414  2.0680  3.0150
   16SAPS   C25 2039   1.977   5.013   6.911  0.2557  1.1771 -0.6323
   16SAPS   H5R 2040   1.906   4.936   6.945 -1.1725  1.6663 -2.3511
   16SAPS   C26 2041   1.969   5.138   6.965  0.2327  0.1497  0.0346
   16SAPS   H6R 2042   1.897   5.166   7.043  3.7614  3.5755  2.3961
   16SAPS   C27 2043   2.072   5.241   6.933  0.3301 -0.5769 -0.0757
   16SAPS   H7R 2044   2.090   5.243   6.823  1.1775 -3.3550 -0.0635
   16SAPS   H7S 2045   2.168   5.199   6.970 -0.5810 -0.9222  2.0113
   16SAPS   C28 2046   2.051   5.382   6.995  0.2128 -0.3897 -0.2366
   16SAPS   H8R 2047   2.005   5.456   6.928 -2.5301 -0.1897  1.7258
   16SAPS   C29 2048   2.071   5.425   7.121 -0.0665  0.5808  0.1019
   16SAPS   H9R 2049   2.054   5.528   7.155  0.3308  1.0134 -0.9577
   16SAPS  C210 2050   2.130   5.334   7.227 -0.5286  0.3386 -0.7022
   16SAPS  H10R 2051   2.209   5.265   7.190 -0.0536  0.4998 -0.0078
   16SAPS  H10S 2052   2.055   5.261   7.264  0.0996 -1.3950 -2.6093
   16SAPS  C211 2053   2.192   5.417   7.338  0.1002 -0.6025 -0.1468
   16SAPS  H11R 2054   2.296   5.446   7.315 -0.5376  0.4145 -1.9293
   16SAPS  C212 2055   2.136   5.465   7.453 -0.0295  0.5842 -0.8553
   16SAPS  H12R 2056   2.202   5.516   7.524 -0.1190 -0.5945  0.1041
   16SAPS  C213 2057   1.991   5.448   7.498 -0.5787  0.2854 -0.3580
   16SAPS  H13R 2058   1.992   5.432   7.608 -1.2399  0.4797 -0.3191
   16SAPS  H13S 2059   1.949   5.352   7.460 -2.7312  1.2003 -0.4744
   16SAPS  C214 2060   1.906   5.570   7.456  0.0479  0.5896  0.4305
   16SAPS  H14R 2061   1.949   5.626   7.372  1.4702 -2.6646 -1.2015
   16SAPS  C215 2062   1.807   5.624   7.532  0.5098 -0.3025  0.1247
   16SAPS  H15R 2063   1.752   5.705   7.484  0.1254 -1.3391 -1.2422
   16SAPS  C216 2064   1.764   5.575   7.670 -0.1229 -0.2269  0.3611
   16SAPS  H16R 2065   1.808   5.634   7.753 -0.5799  1.6799 -0.6887
   16SAPS  H16S 2066   1.806   5.474   7.686  0.5179  0.0716  0.5881
   16SAPS  C217 2067   1.620   5.560   7.688  0.7159  0.0366  0.1512
   16SAPS  H17R 2068   1.598   5.519   7.789  0.8323 -1.6378 -0.4742
   16SAPS  H17S 2069   1.580   5.482   7.620  0.3263  1.3239 -1.1562
   16SAPS  C218 2070   1.534   5.687   7.663  0.5552  0.1600  0.2699
   16SAPS  H18R 2071   1.425   5.667   7.656  0.7797 -0.8403 -0.6244
   16SAPS  H18S 2072   1.559   5.713   7.558  0.8128  1.6505  0.6682
   16SAPS  C219 2073   1.561   5.812   7.749 -0.4864 -0.2257 -0.7109
   16SAPS  H19R 2074   1.508   5.904   7.715  0.6200  1.2097  1.1978
   16SAPS  H19S 2075   1.664   5.854   7.739  0.0878 -1.5139 -0.4506
   16SAPS  C220 2076   1.534   5.791   7.897  0.0497  0.3844 -0.8614
   16SAPS  H20R 2077   1.430   5.758   7.918  0.6636 -1.6880 -0.7930
   16SAPS  H20S 2078   1.549   5.884   7.955  0.5542 -1.6175  2.4592
   16SAPS  H20T 2079   1.596   5.710   7.940 -0.6487  0.6116  0.6279
   16SAPS   C33 2080   2.267   4.111   6.326 -0.0006 -0.1968 -0.6114
   16SAPS   H3X 2081   2.328   4.026   6.288 -0.9256 -0.6332 -1.1464
   16SAPS   H3Y 2082   2.158   4.089   6.321 -0.0381  0.0715 -1.0369
   16SAPS   C34 2083   2.314   4.118   6.474 -0.3329  0.3083  1.0267
   16SAPS   H4X 2084   2.423   4.138   6.468 -0.4425  0.8726  0.8599
   16SAPS   H4Y 2085   2.285   4.015   6.508  0.5552 -0.4336 -0.4049
   16SAPS   C35 2086   2.243   4.217   6.560 -0.1338 -0.1116  0.1514
   16SAPS   H5X 2087   2.136   4.190   6.549  0.0605 -1.3420  1.0859
   16SAPS   H5Y 2088   2.257   4.319   6.518  1.3294 -0.9659 -1.5261
   16SAPS   C36 2089   2.284   4.215   6.707 -0.1609  0.6327  0.2084
   16SAPS   H6X 2090   2.388   4.252   6.720 -0.7400  2.2296  0.4820
   16SAPS   H6Y 2091   2.274   4.110   6.743  1.9040 -0.1737 -1.3166
   16SAPS   C37 2092   2.188   4.299   6.796 -0.6376  0.6993 -0.1486
   16SAPS   H7X 2093   2.082   4.272   6.776 -1.3381  3.1520 -0.0595
   16SAPS   H7Y 2094   2.189   4.403   6.758 -0.0119  0.7793  0.0791
   16SAPS   C38 2095   2.235   4.294   6.943  0.7401 -0.0450 -0.0798
   16SAPS   H8X 2096   2.334   4.340   6.961  0.8080  0.3063 -1.2315
   16SAPS   H8Y 2097   2.239   4.187   6.971 -0.8404 -0.0134  0.3908
   16SAPS   C39 2098   2.141   4.376   7.030 -0.5907  0.1136  0.3074
   16SAPS   H9X 2099   2.041   4.327   7.018 -0.0551 -2.4045  4.0926
   16SAPS   H9Y 2100   2.128   4.482   7.000  0.6658  0.2616  0.2338
   16SAPS  C310 2101   2.187   4.366   7.172 -0.0957  0.1901 -0.1165
   16SAPS  H10X 2102   2.281   4.426   7.178  0.1844 -0.3640  1.9151
   16SAPS  H10Y 2103   2.207   4.259   7.198 -0.4506  0.3889  1.0217
   16SAPS  C311 2104   2.091   4.432   7.258 -0.2924  0.2917 -0.4563
   16SAPS  H11X 2105   2.002   4.366   7.255 -0.6600  0.7363  0.3831
   16SAPS  H11Y 2106   2.078   4.535   7.218 -0.4695 -0.0770 -1.3833
   16SAPS  C312 2107   2.148   4.451   7.406 -0.2356 -0.0227  0.7332
   16SAPS  H12X 2108   2.236   4.517   7.389 -0.2646  1.1581  4.2957
   16SAPS  H12Y 2109   2.187   4.359   7.454 -0.6497 -0.6111 -0.0383
   16SAPS  C313 2110   2.043   4.505   7.508 -0.4530  0.4850  0.0240
   16SAPS  H13X 2111   1.944   4.459   7.492 -0.3930  0.6098 -0.7375
   16SAPS  H13Y 2112   2.038   4.615   7.489  1.7341  0.2817 -2.1377
   16SAPS  C314 2113   2.080   4.479   7.655  0.1363 -0.2576 -0.0175
   16SAPS  H14X 2114   2.157   4.555   7.680 -2.2998  2.1626  0.6655
   16SAPS  H14Y 2115   2.128   4.380   7.659  1.8548  0.5614  0.3798
   16SAPS  C315 2116   1.969   4.485   7.763 -0.1396  1.0449  0.5985
   16SAPS  H15X 2117   1.918   4.388   7.747 -0.9444  1.7082 -1.0911
   16SAPS  H15Y 2118   1.907   4.576   7.749 -0.5111  0.7219  0.1374
   16SAPS  C316 2119   2.013   4.496   7.912  0.1940  0.3078 -0.3655
   16SAPS  H16X 2120   2.084   4.418   7.947 -0.1538  0.7018  1.2568
   16SAPS  H16Y 2121   1.923   4.485   7.975  1.2108  0.5629  1.1773
   16SAPS  C317 2122   2.075   4.636   7.944  0.7117  0.1242  0.5643
   16SAPS  H17X 2123   2.002   4.714   7.913  2.1522  0.7299 -1.6063
   16SAPS  H17Y 2124   2.167   4.652   7.884  1.0036 -2.2290  0.3053
   16SAPS  C318 2125   2.103   4.645   8.096 -0.5030  0.2310 -0.5174
   16SAPS  H18X 2126   2.179   4.568   8.121  0.3659  0.9907 -0.7677
   16SAPS  H18Y 2127   2.010   4.605   8.141 -0.9444  0.3064 -1.3295
   16SAPS  H18Z 2128   2.139   4.743   8.133 -0.4527 -0.3823  1.1038
   17SAPC     N 2129   1.358   3.528  10.919 -0.2583  0.0138 -0.3370
   17SAPC   C12 2130   1.338   3.610  10.793  0.3574 -0.6248  0.5830
   17SAPC  H12A 2131   1.250   3.567  10.746  0.6476 -0.8452  0.2388
   17SAPC  H12B 2132   1.429   3.585  10.741  0.4481  0.1413  0.3595
   17SAPC   C13 2133   1.475   3.578  10.995  0.1134 -0.2042  0.6604
   17SAPC  H13A 2134   1.556   3.589  10.924 -0.3968  0.9268  0.2389
   17SAPC  H13B 2135   1.446   3.668  11.046 -2.4725 -1.3267  1.3295
   17SAPC  H13C 2136   1.511   3.515  11.076  1.5277  0.0527  0.2696
   17SAPC   C14 2137   1.237   3.532  11.008 -0.3649  0.7578  1.1343
   17SAPC  H14A 2138   1.151   3.506  10.949  0.1854 -0.5207  0.8599
   17SAPC  H14B 2139   1.259   3.465  11.090  1.7044 -0.2389 -0.1377
   17SAPC  H14C 2140   1.209   3.628  11.048 -1.1532  0.8787  0.3323
   17SAPC   C15 2141   1.381   3.387  10.880  0.6499 -0.6872 -0.2875
   17SAPC  H15A 2142   1.380   3.321  10.965  1.5471  0.3850  0.5977
   17SAPC  H15B 2143   1.311   3.352  10.806  0.6672 -0.0889 -0.5955
   17SAPC  H15C 2144   1.477   3.378  10.832  0.1371  0.3246 -1.5491
   17SAPC   C11 2145   1.331   3.764  10.800  0.1862 -0.5121 -1.0786
   17SAPC  H11A 2146   1.341   3.804  10.697 -1.3650 -1.5094 -1.6727
   17SAPC  H11B 2147   1.421   3.808  10.847 -0.3591  2.1092 -2.3246
   17SAPC     P 2148   1.074   3.829  10.800 -0.6677  0.1535  0.0476
   17SAPC   O13 2149   0.992   3.712  10.811 -0.4848 -0.0815 -0.0407
   17SAPC   O14 2150   1.017   3.955  10.855  0.2203 -0.4212  0.4153
   17SAPC   O12 2151   1.214   3.807  10.874 -0.4954 -0.0313 -0.2888
   17SAPC   O11 2152   1.118   3.859  10.647  0.1474 -0.0361 -0.1839
   17SAPC    C1 2153   1.021   3.867  10.542  0.3794  0.5158 -0.3672
   17SAPC    HA 2154   0.980   3.765  10.530 -0.4944  0.8668 -0.4232
   17SAPC    HB 2155   0.929   3.923  10.567  0.1306  1.1111 -2.4460
   17SAPC    C2 2156   1.087   3.931  10.414  0.4501 -0.5581  0.7420
   17SAPC    HS 2157   1.029   3.931  10.319  1.0101  3.2197  0.2456
   17SAPC   O21 2158   1.217   3.880  10.393 -0.5433 -0.3597  0.5831
   17SAPC   C21 2159   1.213   3.754  10.332 -0.1382  0.0948 -0.0031
   17SAPC   O22 2160   1.112   3.694  10.300  0.5835 -0.0577 -0.3180
   17SAPC   C22 2161   1.347   3.695  10.300  0.6235  0.1169 -0.1405
   17SAPC   H2R 2162   1.426   3.759  10.343  1.1418 -1.2056  0.9540
   17SAPC   H2S 2163   1.351   3.601  10.360 -0.9320  0.0925 -0.0214
   17SAPC    C3 2164   1.106   4.086  10.435  0.6905 -0.1252 -0.3238
   17SAPC    HX 2165   1.158   4.096  10.532  0.0633 -0.0943  0.0111
   17SAPC    HY 2166   1.008   4.138  10.443  1.6368  1.8358 -0.7116
   17SAPC   O31 2167   1.166   4.149  10.318  0.1844 -0.0349 -0.5351
   17SAPC   C31 2168   1.292   4.183  10.318 -0.3841 -0.0324  0.3072
   17SAPC   O32 2169   1.364   4.176  10.419  0.6720  0.0702  0.7289
   17SAPC   C32 2170   1.329   4.244  10.184  0.0328 -0.5039 -0.1015
   17SAPC   H2X 2171   1.243   4.304  10.147 -0.2439 -0.9786 -0.2248
   17SAPC   H2Y 2172   1.340   4.159  10.114  0.1507 -0.1939 -0.4598
   17SAPC   C23 2173   1.371   3.652  10.156 -0.6699 -0.7229 -0.1346
   17SAPC   H3R 2174   1.298   3.569  10.144  0.9402 -2.0061 -1.4597
   17SAPC   H3S 2175   1.469   3.602  10.148 -1.4521 -2.7233  1.8184
   17SAPC   C24 2176   1.353   3.768  10.059 -0.2315 -0.1928 -0.1316
   17SAPC   H4R 2177   1.248   3.803  10.058  0.0587  0.7584  0.4808
   17SAPC   H4S 2178   1.361   3.730   9.955  1.7530 -1.4803  0.4420
   17SAPC   C25 2179   1.453   3.881  10.076  1.0123  0.2797  0.1104
   17SAPC   H5R 2180   1.483   3.896  10.180 -3.0696  0.1937  1.4557
   17SAPC   C26 2181   1.505   3.965   9.988 -0.9167 -0.6053  0.0204
   17SAPC   H6R 2182   1.579   4.039  10.022 -0.2301 -1.0121 -0.5861
   17SAPC   C27 2183   1.496   3.959   9.838  0.0827  0.2111 -0.4111
   17SAPC   H7R 2184   1.467   3.855   9.810  1.4096  0.0279 -1.2130
   17SAPC   H7S 2185   1.596   3.963   9.789 -0.2711 -2.0451 -1.4680
   17SAPC   C28 2186   1.401   4.065   9.783 -0.5371 -0.5653 -0.1295
   17SAPC   H8R 2187   1.357   4.126   9.863 -0.6207 -0.8153  0.0170
   17SAPC   C29 2188   1.382   4.081   9.651 -0.1487  0.5140  0.8803
   17SAPC   H9R 2189   1.320   4.165   9.615 -0.3309  0.3258  0.7515
   17SAPC  C210 2190   1.425   3.990   9.536  0.1671 -0.3007 -0.0483
   17SAPC  H10R 2191   1.433   3.892   9.586  1.4702  0.7299  1.9045
   17SAPC  H10S 2192   1.526   4.025   9.506  1.0539 -1.3597  1.6127
   17SAPC  C211 2193   1.308   3.985   9.435  0.4369 -0.7650  0.1824
   17SAPC  H11R 2194   1.209   4.005   9.479  0.8572 -0.6123  1.0775
   17SAPC  C212 2195   1.325   3.970   9.302 -0.3032  0.0287 -0.5847
   17SAPC  H12R 2196   1.239   3.979   9.234 -0.8628  3.7883  0.4009
   17SAPC  C213 2197   1.441   3.941   9.218 -0.6725  0.1641 -0.5150
   17SAPC  H13R 2198   1.411   3.913   9.115  0.9108  1.4477 -1.3600
   17SAPC  H13S 2199   1.504   3.861   9.263  0.4303  0.8610 -0.7975
   17SAPC  C214 2200   1.531   4.060   9.210  0.3201  0.2976 -0.4047
   17SAPC  H14R 2201   1.568   4.114   9.299  1.3320  0.4548 -0.9079
   17SAPC  C215 2202   1.565   4.112   9.096 -0.1595  0.1080  1.3060
   17SAPC  H15R 2203   1.626   4.204   9.098  1.3029 -0.6976 -1.1712
   17SAPC  C216 2204   1.546   4.055   8.958  0.8679  0.1911 -0.0709
   17SAPC  H16R 2205   1.465   4.107   8.902  0.8585 -0.5358 -0.7503
   17SAPC  H16S 2206   1.518   3.948   8.964  0.2661  0.2799 -1.0032
   17SAPC  C217 2207   1.667   4.074   8.864  0.2400 -0.0519  0.3788
   17SAPC  H17R 2208   1.757   4.025   8.907 -0.3161 -1.3567  0.0754
   17SAPC  H17S 2209   1.690   4.182   8.850  2.0750 -0.2159  1.7288
   17SAPC  C218 2210   1.646   4.026   8.722  0.4510 -0.4222 -0.6813
   17SAPC  H18R 2211   1.714   4.070   8.646  0.5439  2.1162  0.7461
   17SAPC  H18S 2212   1.546   4.049   8.678  0.5276 -0.6714 -0.9845
   17SAPC  C219 2213   1.694   3.879   8.716 -0.0057 -0.5005  0.5060
   17SAPC  H19R 2214   1.629   3.829   8.790 -1.3610  0.0527 -0.2745
   17SAPC  H19S 2215   1.797   3.873   8.757  0.5013 -1.5297 -0.8585
   17SAPC  C220 2216   1.684   3.823   8.582  0.1832  0.1954 -0.1858
   17SAPC  H20R 2217   1.776   3.839   8.522  0.1997  3.0463  0.4768
   17SAPC  H20S 2218   1.596   3.854   8.523  0.2851  1.0367  0.1015
   17SAPC  H20T 2219   1.676   3.712   8.585 -1.1469  0.2404 -1.2982
   17SAPC   C33 2220   1.451   4.336  10.196  0.2130  0.3144 -0.1758
   17SAPC   H3X 2221   1.536   4.269  10.219 -1.6148 -1.9607  0.3410
   17SAPC   H3Y 2222   1.433   4.410  10.277 -2.7799 -1.8904  1.3830
   17SAPC   C34 2223   1.477   4.409  10.063  0.1575  0.4213 -0.6020
   17SAPC   H4X 2224   1.490   4.332   9.984  3.3914 -2.2687  2.2309
   17SAPC   H4Y 2225   1.578   4.457  10.068  2.4663 -4.0037  0.4558
   17SAPC   C35 2226   1.364   4.510  10.023 -0.5318  0.2605 -0.1935
   17SAPC   H5X 2227   1.337   4.589  10.097  0.8519 -0.9128  1.6502
   17SAPC   H5Y 2228   1.270   4.457   9.997 -1.0064  0.3472  1.2171
   17SAPC   C36 2229   1.401   4.586   9.893 -0.5695  0.0006  0.3765
   17SAPC   H6X 2230   1.512   4.580   9.898 -0.4710  0.8154 -0.5534
   17SAPC   H6Y 2231   1.370   4.693   9.895 -0.4971  0.1061 -1.9680
   17SAPC   C37 2232   1.360   4.523   9.757 -0.2289  0.0412  0.7450
   17SAPC   H7X 2233   1.274   4.573   9.707  0.4820 -1.1658 -1.8789
   17SAPC   H7Y 2234   1.331   4.418   9.776  1.3047 -0.4368  0.5375
   17SAPC   C38 2235   1.475   4.516   9.655  0.3958  0.1883 -0.1398
   17SAPC   H8X 2236   1.542   4.428   9.661  0.1468  0.0015 -0.0729
   17SAPC   H8Y 2237   1.549   4.599   9.654  0.0712  0.5195 -2.6978
   17SAPC   C39 2238   1.413   4.512   9.511  0.0736 -0.2410 -0.3482
   17SAPC   H9X 2239   1.354   4.606   9.508  0.6690  0.1966  0.7930
   17SAPC   H9Y 2240   1.334   4.437   9.491 -1.9647  1.9680 -1.0705
   17SAPC  C310 2241   1.520   4.497   9.401 -0.3241 -1.0353 -0.1070
   17SAPC  H10X 2242   1.583   4.409   9.428 -0.8483 -1.4546 -0.2308
   17SAPC  H10Y 2243   1.583   4.588   9.408 -2.0338  0.2674 -0.9709
   17SAPC  C311 2244   1.454   4.486   9.264  0.0242  0.4605  0.3933
   17SAPC  H11X 2245   1.396   4.577   9.240 -1.4190 -0.2521  1.0286
   17SAPC  H11Y 2246   1.392   4.394   9.254 -1.0657  1.3453 -2.0084
   17SAPC  C312 2247   1.570   4.482   9.155 -0.5701 -0.8804 -0.0125
   17SAPC  H12X 2248   1.642   4.403   9.185  0.9224  0.2824 -0.4140
   17SAPC  H12Y 2249   1.622   4.579   9.170 -2.3115 -0.2626  2.8242
   17SAPC  C313 2250   1.532   4.475   9.003  0.3494  0.1110 -0.2166
   17SAPC  H13X 2251   1.484   4.572   8.978  0.2978 -0.0870 -0.9132
   17SAPC  H13Y 2252   1.455   4.395   9.001  3.2289 -2.8879 -0.0633
   17SAPC  C314 2253   1.649   4.452   8.912  0.1744 -0.3077 -0.0359
   17SAPC  H14X 2254   1.721   4.376   8.950  0.0843 -0.0636  0.6189
   17SAPC  H14Y 2255   1.710   4.543   8.892 -1.4147  0.3360 -2.3588
   17SAPC  C315 2256   1.609   4.411   8.763 -0.0049  0.2002  0.1119
   17SAPC  H15X 2257   1.540   4.324   8.761  1.9916 -1.5130  1.3281
   17SAPC  H15Y 2258   1.709   4.388   8.720  0.6574  1.5833  0.8478
   17SAPC  C316 2259   1.557   4.525   8.675 -0.1114  0.3480 -0.4042
   17SAPC  H16X 2260   1.618   4.617   8.692  1.8021 -0.3093 -3.0658
   17SAPC  H16Y 2261   1.453   4.542   8.709  0.8316 -0.5842  3.3312
   17SAPC  C317 2262   1.556   4.480   8.530 -0.4792  0.6761 -0.3232
   17SAPC  H17X 2263   1.479   4.535   8.471  0.3597  2.3853  0.1089
   17SAPC  H17Y 2264   1.535   4.373   8.508 -2.1840  1.5815 -3.9496
   17SAPC  C318 2265   1.694   4.484   8.460 -0.3943 -0.1766  0.2661
   17SAPC  H18X 2266   1.685   4.432   8.362  0.2662  2.7748 -1.4880
   17SAPC  H18Y 2267   1.734   4.587   8.444 -0.5495 -0.2644 -0.7531
   17SAPC  H18Z 2268   1.775   4.430   8.512 -0.6728 -0.3710  0.5040
   18SAPC     N 2269   3.590   3.662  11.252 -0.5086 -0.6083 -0.1130
   18SAPC   C12 2270   3.633   3.654  11.109  0.5269 -0.3105  0.3428
   18SAPC  H12A 2271   3.705   3.575  11.093 -0.1140 -0.9082  0.3493
   18SAPC  H12B 2272   3.680   3.744  11.073 -0.0819 -0.3762 -0.6415
   18SAPC   C13 2273   3.686   3.742  11.330  0.3512 -0.5144  0.2070
   18SAPC  H13A 2274   3.788   3.711  11.308  0.0010 -0.3781 -1.7606
   18SAPC  H13B 2275   3.677   3.846  11.303  1.4374 -0.7201 -1.0269
   18SAPC  H13C 2276   3.660   3.725  11.434 -0.7522 -1.9684 -0.2780
   18SAPC   C14 2277   3.451   3.721  11.269  0.2519 -0.4789  0.2078
   18SAPC  H14A 2278   3.427   3.728  11.374  1.4760 -0.3896  0.4936
   18SAPC  H14B 2279   3.446   3.819  11.224 -2.2539 -0.1800  0.9413
   18SAPC  H14C 2280   3.373   3.671  11.215 -0.4816  1.8432 -1.0160
   18SAPC   C15 2281   3.576   3.527  11.316  0.0188  0.1564  0.6105
   18SAPC  H15A 2282   3.667   3.469  11.319  0.2962  0.5208 -0.4144
   18SAPC  H15B 2283   3.552   3.539  11.421 -1.6473 -1.5240  0.4716
   18SAPC  H15C 2284   3.507   3.466  11.260  1.8469  0.2670 -1.9327
   18SAPC   C11 2285   3.526   3.635  11.008  0.4659  0.0791  0.1537
   18SAPC  H11A 2286   3.577   3.642  10.910  0.6610  1.3542  0.3336
   18SAPC  H11B 2287   3.450   3.715  11.017  1.4430  0.8894  1.4776
   18SAPC     P 2288   3.484   3.386  10.938  0.3654  0.1046  0.0496
   18SAPC   O13 2289   3.623   3.362  10.902 -0.2472  0.1834 -0.1147
   18SAPC   O14 2290   3.394   3.278  10.980 -0.2219  0.1139 -0.3765
   18SAPC   O12 2291   3.463   3.506  11.034 -0.1593  0.5608  0.1412
   18SAPC   O11 2292   3.429   3.448  10.809 -0.2554  0.5537 -0.1146
   18SAPC    C1 2293   3.297   3.505  10.789  0.8880 -0.8105  0.0119
   18SAPC    HA 2294   3.234   3.489  10.879 -0.7534 -0.3531 -1.0302
   18SAPC    HB 2295   3.309   3.612  10.763  0.0066 -0.8183 -0.4340
   18SAPC    C2 2296   3.235   3.434  10.666 -0.5063  0.5543 -0.1463
   18SAPC    HS 2297   3.239   3.326  10.694 -0.4741  0.9143  1.3517
   18SAPC   O21 2298   3.315   3.468  10.551 -0.5429 -0.5036 -0.3948
   18SAPC   C21 2299   3.375   3.371  10.480  0.2891 -0.2261  0.4707
   18SAPC   O22 2300   3.361   3.251  10.509  0.1289 -0.2602  1.0121
   18SAPC   C22 2301   3.451   3.423  10.358  0.7104 -0.4054  0.0616
   18SAPC   H2R 2302   3.377   3.467  10.288  0.2102 -0.6728  0.4237
   18SAPC   H2S 2303   3.510   3.513  10.385  1.5321 -0.4453 -1.4830
   18SAPC    C3 2304   3.083   3.470  10.638  0.2893 -0.1828 -1.0094
   18SAPC    HX 2305   3.080   3.575  10.602 -1.6059 -0.1041 -0.7287
   18SAPC    HY 2306   3.026   3.458  10.733  1.5249 -0.2991 -0.2591
   18SAPC   O31 2307   3.027   3.396  10.532 -1.0746  0.2297  0.3876
   18SAPC   C31 2308   2.983   3.275  10.549 -0.3161 -0.2066  0.7088
   18SAPC   O32 2309   2.990   3.207  10.648  0.4510  0.2168 -0.0255
   18SAPC   C32 2310   2.912   3.230  10.419  0.2068 -0.4112 -0.3748
   18SAPC   H2X 2311   2.879   3.323  10.368 -0.8164 -0.1347  0.7296
   18SAPC   H2Y 2312   2.825   3.170  10.454  1.3212 -1.2202  1.1387
   18SAPC   C23 2313   3.522   3.314  10.291  0.0070 -0.2759 -0.2525
   18SAPC   H3R 2314   3.450   3.239  10.253 -0.4613  0.3597 -0.6580
   18SAPC   H3S 2315   3.606   3.269  10.348 -0.4891 -0.3945  0.3927
   18SAPC   C24 2316   3.578   3.385  10.166 -0.7280 -0.2570  0.5126
   18SAPC   H4R 2317   3.663   3.447  10.200 -0.8249  0.5662 -0.6640
   18SAPC   H4S 2318   3.518   3.472  10.132  0.3691  1.4474  2.7503
   18SAPC   C25 2319   3.626   3.306  10.044  0.0505  0.4315  0.9087
   18SAPC   H5R 2320   3.728   3.266  10.045  0.6249  1.8789  1.0692
   18SAPC   C26 2321   3.558   3.297   9.924  0.1297  0.1138  0.2071
   18SAPC   H6R 2322   3.606   3.250   9.836 -0.7545  1.4204 -1.0221
   18SAPC   C27 2323   3.419   3.362   9.901  0.1581  0.0419  0.3243
   18SAPC   H7R 2324   3.422   3.427   9.811  1.3640 -0.9555 -0.3831
   18SAPC   H7S 2325   3.392   3.424   9.989  2.0420 -2.8200  3.1618
   18SAPC   C28 2326   3.320   3.251   9.865 -0.0435  0.1827  0.4910
   18SAPC   H8R 2327   3.263   3.216   9.952  0.2639 -0.8776  0.2919
   18SAPC   C29 2328   3.308   3.181   9.753  0.4880  0.0461  0.6912
   18SAPC   H9R 2329   3.235   3.100   9.741 -0.1925  0.8879 -1.5038
   18SAPC  C210 2330   3.382   3.218   9.623  0.8446  0.0151 -0.0958
   18SAPC  H10R 2331   3.399   3.123   9.567 -0.4422  0.8374 -1.9944
   18SAPC  H10S 2332   3.483   3.252   9.654  0.7437 -1.3852  1.9893
   18SAPC  C211 2333   3.304   3.317   9.540 -0.6212  0.3312 -0.7087
   18SAPC  H11R 2334   3.283   3.413   9.591 -1.6404 -0.9365  1.3800
   18SAPC  C212 2335   3.265   3.298   9.408 -0.3831 -0.1838 -0.4502
   18SAPC  H12R 2336   3.208   3.381   9.363 -0.2151 -0.0863 -0.4860
   18SAPC  C213 2337   3.296   3.175   9.327  0.3550  0.2389  0.2624
   18SAPC  H13R 2338   3.260   3.085   9.381 -0.3888  0.4176  0.0773
   18SAPC  H13S 2339   3.404   3.171   9.299  0.8798  2.6507  1.6940
   18SAPC  C214 2340   3.205   3.180   9.207  1.3508 -0.2172  0.1787
   18SAPC  H14R 2341   3.099   3.187   9.233  0.8623 -0.0030 -1.7089
   18SAPC  C215 2342   3.224   3.177   9.073 -0.2828  0.4162  0.3599
   18SAPC  H15R 2343   3.141   3.187   9.002  0.8416 -1.3501 -1.3051
   18SAPC  C216 2344   3.361   3.179   9.009 -0.0913  0.4347  0.8210
   18SAPC  H16R 2345   3.439   3.159   9.086  0.8955 -1.9697 -0.7050
   18SAPC  H16S 2346   3.373   3.283   8.973 -2.9727  1.8477  3.3780
   18SAPC  C217 2347   3.370   3.087   8.886 -0.4778 -0.6073 -0.0074
   18SAPC  H17R 2348   3.284   3.113   8.821  0.4468  4.8321  0.4127
   18SAPC  H17S 2349   3.365   2.979   8.910  0.6937 -0.9391 -1.1972
   18SAPC  C218 2350   3.495   3.108   8.791 -0.2145  0.1209  0.4685
   18SAPC  H18R 2351   3.497   3.029   8.713  0.1446 -0.2735  0.8718
   18SAPC  H18S 2352   3.590   3.103   8.848  0.9513 -0.9720 -1.4568
   18SAPC  C219 2353   3.498   3.239   8.718 -0.3424 -0.2742  0.1928
   18SAPC  H19R 2354   3.512   3.320   8.793  0.0567 -0.9336  0.8569
   18SAPC  H19S 2355   3.408   3.250   8.654 -0.1701  0.8356  0.1325
   18SAPC  C220 2356   3.622   3.246   8.624 -0.1300  0.0570 -0.3307
   18SAPC  H20R 2357   3.693   3.309   8.681  0.5375 -1.7605  0.9503
   18SAPC  H20S 2358   3.601   3.289   8.523 -2.1011 -1.3720 -0.6056
   18SAPC  H20T 2359   3.660   3.142   8.611  0.9776  0.2855  0.9406
   18SAPC   C33 2360   3.011   3.130  10.348  0.1314 -0.5014  0.4434
   18SAPC   H3X 2361   3.022   3.033  10.402  0.2405 -1.7269 -1.6838
   18SAPC   H3Y 2362   3.104   3.188  10.331  0.1466 -0.3999  0.8664
   18SAPC   C34 2363   2.944   3.086  10.214  0.3701  0.5477  0.1046
   18SAPC   H4X 2364   2.893   3.175  10.169  0.1430 -0.2725 -1.3297
   18SAPC   H4Y 2365   2.858   3.025  10.247  0.4396 -0.5593 -1.6188
   18SAPC   C35 2366   3.031   3.020  10.115 -0.0056  0.6907 -0.1063
   18SAPC   H5X 2367   3.072   2.925  10.154  2.1508  1.7809  0.4056
   18SAPC   H5Y 2368   3.118   3.079  10.080  0.9509  0.5212  1.8659
   18SAPC   C36 2369   2.958   2.988   9.978 -0.1539 -0.2606  0.6266
   18SAPC   H6X 2370   2.874   2.921  10.004  0.7374 -0.8865  1.9924
   18SAPC   H6Y 2371   3.030   2.934   9.912  0.2403  0.8385  0.1305
   18SAPC   C37 2372   2.917   3.113   9.900  0.7092  1.1897  0.7194
   18SAPC   H7X 2373   3.010   3.165   9.867  1.4499  0.2740  1.3311
   18SAPC   H7Y 2374   2.848   3.174   9.962  1.0226  3.0688 -0.6705
   18SAPC   C38 2375   2.841   3.073   9.774  0.3358 -0.4010  0.2802
   18SAPC   H8X 2376   2.753   3.019   9.815 -0.5744  1.3658  0.7757
   18SAPC   H8Y 2377   2.913   3.019   9.709  0.3772  0.7485 -0.6526
   18SAPC   C39 2378   2.813   3.200   9.695  0.9604  0.3932 -0.7940
   18SAPC   H9X 2379   2.903   3.261   9.669  0.6651  1.7412  1.1541
   18SAPC   H9Y 2380   2.751   3.266   9.759  2.0308 -1.2695  2.1309
   18SAPC  C310 2381   2.727   3.169   9.564 -0.1025 -0.7366 -0.2702
   18SAPC  H10X 2382   2.704   3.266   9.514  1.8413  0.6574  1.3752
   18SAPC  H10Y 2383   2.626   3.129   9.589 -1.1760  1.4387 -0.8558
   18SAPC  C311 2384   2.796   3.077   9.459 -0.4981 -0.1372  1.2475
   18SAPC  H11X 2385   2.815   2.975   9.498 -0.6512 -0.1720  1.2325
   18SAPC  H11Y 2386   2.896   3.113   9.429 -0.6761 -1.1175 -0.7012
   18SAPC  C312 2387   2.715   3.066   9.323  0.9767 -0.4759  0.3132
   18SAPC  H12X 2388   2.700   3.170   9.289  0.7381  0.7708  3.8956
   18SAPC  H12Y 2389   2.615   3.026   9.350  0.5745  1.6036  2.1164
   18SAPC  C313 2390   2.779   2.995   9.202 -0.7052 -0.1781 -0.2609
   18SAPC  H13X 2391   2.763   2.886   9.198 -1.3772 -0.2082  2.0021
   18SAPC  H13Y 2392   2.886   3.025   9.206 -1.1397  1.4791 -0.1886
   18SAPC  C314 2393   2.722   3.037   9.061 -0.1934 -0.3508  0.0085
   18SAPC  H14X 2394   2.729   3.148   9.062 -0.2354 -0.3361 -0.6503
   18SAPC  H14Y 2395   2.617   3.002   9.058 -0.5799  0.5073  2.0087
   18SAPC  C315 2396   2.800   2.981   8.940 -0.5779  0.0331 -0.5552
   18SAPC  H15X 2397   2.792   2.871   8.938  1.3398 -0.1989  1.3092
   18SAPC  H15Y 2398   2.906   3.011   8.952 -0.5395  0.5508 -1.9467
   18SAPC  C316 2399   2.745   3.043   8.809  0.0065  0.3039 -0.6509
   18SAPC  H16X 2400   2.635   3.035   8.813  0.1427 -1.8330  0.3129
   18SAPC  H16Y 2401   2.767   2.974   8.724 -1.7009 -2.0185  0.6505
   18SAPC  C317 2402   2.808   3.176   8.780  0.4277 -0.1898  0.2195
   18SAPC  H17X 2403   2.918   3.165   8.790  0.8628  3.6461  1.6319
   18SAPC  H17Y 2404   2.780   3.259   8.848 -0.2055  0.7182 -1.1061
   18SAPC  C318 2405   2.789   3.213   8.629  0.6937  0.4719  0.4468
   18SAPC  H18X 2406   2.822   3.314   8.596 -1.8873  1.5612  0.9766
   18SAPC  H18Y 2407   2.680   3.226   8.608  0.8677  1.2890  0.0118
   18SAPC  H18Z 2408   2.833   3.150   8.549 -1.8056  1.1342 -1.5856
   19SAPC     N 2409   0.249   1.555  10.727 -0.5003 -0.4112 -0.0296
   19SAPC   C12 2410   0.241   1.702  10.687  0.3950 -0.8868  0.2114
   19SAPC  H12A 2411   0.338   1.725  10.647 -0.2483  2.9734  0.5488
   19SAPC  H12B 2412   0.220   1.766  10.771  1.4014  2.1127 -1.6684
   19SAPC   C13 2413   0.356   1.524  10.831  0.5536  0.1031  0.4930
   19SAPC  H13A 2414   0.353   1.419  10.858 -0.7011 -0.8119 -2.6445
   19SAPC  H13B 2415   0.458   1.533  10.797 -0.1328  0.0775 -1.7510
   19SAPC  H13C 2416   0.343   1.587  10.917  1.9583  0.1612  0.6937
   19SAPC   C14 2417   0.114   1.504  10.775  0.2558 -0.1598 -0.6121
   19SAPC  H14A 2418   0.074   1.561  10.858 -2.4051 -1.8157 -0.6421
   19SAPC  H14B 2419   0.045   1.515  10.692  0.2547  2.0609 -0.3877
   19SAPC  H14C 2420   0.122   1.401  10.805 -1.4216 -1.0669 -3.0156
   19SAPC   C15 2421   0.288   1.464  10.614 -0.6016  0.8296  0.1302
   19SAPC  H15A 2422   0.395   1.463  10.599 -0.4323 -0.7588  1.2892
   19SAPC  H15B 2423   0.257   1.363  10.635 -0.5208 -0.0005 -3.2084
   19SAPC  H15C 2424   0.233   1.502  10.529 -1.8624 -0.2273  0.4375
   19SAPC   C11 2425   0.137   1.736  10.576  0.4329  0.1326  0.4212
   19SAPC  H11A 2426   0.142   1.672  10.485 -0.1659  1.4684 -0.5834
   19SAPC  H11B 2427   0.169   1.838  10.548 -0.6723  0.8410  1.6377
   19SAPC     P 2428  -0.065   1.879  10.692 -0.3593  0.0412  0.0683
   19SAPC   O13 2429  -0.211   1.861  10.717 -0.3318  0.3732  0.4760
   19SAPC   O14 2430   0.014   1.906  10.814  0.2792  0.0458 -0.1946
   19SAPC   O12 2431  -0.001   1.744  10.629 -0.3019  0.3526  0.1012
   19SAPC   O11 2432  -0.044   1.988  10.579 -0.4076 -0.5476 -0.3850
   19SAPC    C1 2433  -0.152   2.035  10.495  0.7724  0.1777 -0.2366
   19SAPC    HA 2434  -0.240   1.968  10.506  0.7599  0.0761 -0.9145
   19SAPC    HB 2435  -0.190   2.135  10.523 -1.4353 -0.0786 -1.9623
   19SAPC    C2 2436  -0.116   2.057  10.349  0.4739  0.2626  0.0375
   19SAPC    HS 2437  -0.195   2.091  10.278  2.0628  0.2725 -1.7868
   19SAPC   O21 2438  -0.053   1.937  10.297  0.3125  0.2787  0.5906
   19SAPC   C21 2439  -0.135   1.841  10.263 -0.5083  0.1598  0.3667
   19SAPC   O22 2440  -0.256   1.849  10.256 -1.1136  0.2233  0.3543
   19SAPC   C22 2441  -0.042   1.721  10.220  0.1530  0.0472 -0.4028
   19SAPC   H2R 2442   0.013   1.739  10.125  0.4819  0.2470 -0.1756
   19SAPC   H2S 2443   0.037   1.713  10.298  0.8665  1.5027 -0.9482
   19SAPC    C3 2444  -0.011   2.166  10.342  0.7545 -0.0038  0.2717
   19SAPC    HX 2445   0.071   2.152  10.415  0.1323  1.3056  1.2674
   19SAPC    HY 2446  -0.062   2.260  10.372 -1.1668 -0.1039 -2.3151
   19SAPC   O31 2447   0.026   2.189  10.206 -0.2197  0.3544  0.4646
   19SAPC   C31 2448   0.120   2.279  10.193  0.3111 -0.7943  0.1895
   19SAPC   O32 2449   0.177   2.333  10.284 -0.0346  0.1330 -0.7670
   19SAPC   C32 2450   0.122   2.315  10.046 -0.2941 -0.3092  0.2023
   19SAPC   H2X 2451   0.224   2.340  10.010 -0.0269 -0.2058  1.0024
   19SAPC   H2Y 2452   0.054   2.401  10.029  1.1262  0.6327 -0.9198
   19SAPC   C23 2453  -0.114   1.584  10.200 -0.1271  0.0435 -0.1873
   19SAPC   H3R 2454  -0.191   1.561  10.277  0.0646 -0.0633 -0.0268
   19SAPC   H3S 2455  -0.051   1.493  10.197 -1.4643 -0.9141 -0.6049
   19SAPC   C24 2456  -0.181   1.579  10.052 -0.2588  0.3376 -0.2074
   19SAPC   H4R 2457  -0.251   1.665  10.058  0.7421  1.1401  0.2670
   19SAPC   H4S 2458  -0.230   1.480  10.043  1.4826 -0.6002  0.0568
   19SAPC   C25 2459  -0.071   1.584   9.952  0.1766  0.4877 -0.2100
   19SAPC   H5R 2460  -0.007   1.495   9.940  1.7548  1.6575 -0.9464
   19SAPC   C26 2461  -0.072   1.678   9.856  0.3155 -0.2715 -0.7449
   19SAPC   H6R 2462   0.013   1.675   9.785  0.1815  0.3209 -0.9383
   19SAPC   C27 2463  -0.152   1.808   9.852  0.3104  0.7552 -0.5696
   19SAPC   H7R 2464  -0.087   1.875   9.791  2.0645 -0.6675 -0.3375
   19SAPC   H7S 2465  -0.155   1.862   9.949  1.3783 -0.5218  0.2068
   19SAPC   C28 2466  -0.292   1.805   9.796 -0.4879 -0.2306 -0.8001
   19SAPC   H8R 2467  -0.374   1.773   9.862  1.9664 -3.1382  1.0898
   19SAPC   C29 2468  -0.314   1.792   9.665 -0.1916  0.6082  0.3709
   19SAPC   H9R 2469  -0.416   1.774   9.628  0.8273 -0.8618 -1.9409
   19SAPC  C210 2470  -0.207   1.786   9.556 -0.5971 -0.1483 -0.1236
   19SAPC  H10R 2471  -0.106   1.817   9.590 -0.9855 -0.1568  1.0989
   19SAPC  H10S 2472  -0.226   1.866   9.481  1.5082 -0.8088 -1.4401
   19SAPC  C211 2473  -0.188   1.648   9.494 -0.0442 -0.1273  0.5316
   19SAPC  H11R 2474  -0.110   1.581   9.535 -0.1739 -0.1720  0.7061
   19SAPC  C212 2475  -0.255   1.598   9.390  0.3792 -0.6498  0.2913
   19SAPC  H12R 2476  -0.219   1.503   9.346 -0.2857 -0.2019 -1.2628
   19SAPC  C213 2477  -0.369   1.658   9.331  0.2905 -0.6220  0.8884
   19SAPC  H13R 2478  -0.364   1.769   9.335 -1.6406 -0.4753  0.4343
   19SAPC  H13S 2479  -0.469   1.639   9.377 -0.4369 -1.3083 -0.8732
   19SAPC  C214 2480  -0.398   1.603   9.191 -0.2997 -0.5414  0.2881
   19SAPC  H14R 2481  -0.379   1.496   9.178  1.0844 -0.1396 -1.3367
   19SAPC  C215 2482  -0.412   1.677   9.077 -0.2804  0.1269 -0.3251
   19SAPC  H15R 2483  -0.433   1.616   8.988  0.9962 -1.3192  0.3252
   19SAPC  C216 2484  -0.407   1.827   9.061  0.1135 -0.2612  1.1006
   19SAPC  H16R 2485  -0.311   1.842   9.008 -0.9586  0.4380 -0.7553
   19SAPC  H16S 2486  -0.392   1.880   9.157 -0.5655 -3.3660  3.0828
   19SAPC  C217 2487  -0.525   1.901   8.989  1.1319  0.2058 -0.3575
   19SAPC  H17R 2488  -0.503   2.010   8.990  1.1145  0.2755 -2.8052
   19SAPC  H17S 2489  -0.616   1.882   9.050  2.6940 -0.0190  2.0306
   19SAPC  C218 2490  -0.545   1.870   8.837 -0.1717 -0.0329  0.3108
   19SAPC  H18R 2491  -0.623   1.942   8.804 -1.0124 -0.3850  1.4663
   19SAPC  H18S 2492  -0.589   1.770   8.821 -0.4904  0.0861  0.4383
   19SAPC  C219 2493  -0.417   1.873   8.756 -0.0389  0.0730  0.1353
   19SAPC  H19R 2494  -0.343   1.797   8.788 -0.0561 -0.2038 -0.4693
   19SAPC  H19S 2495  -0.364   1.968   8.779 -0.0497 -0.1846  1.2795
   19SAPC  C220 2496  -0.447   1.880   8.610 -0.4069 -0.4023 -0.8275
   19SAPC  H20R 2497  -0.510   1.790   8.596  1.3948 -1.3969 -3.1789
   19SAPC  H20S 2498  -0.354   1.885   8.550  0.3070 -1.0133  0.1968
   19SAPC  H20T 2499  -0.516   1.965   8.590 -0.9446 -0.2414  1.4061
   19SAPC   C33 2500   0.071   2.200   9.952 -0.7749  0.4482  0.4575
   19SAPC   H3X 2501  -0.028   2.168   9.992 -0.6924  0.3433  0.5788
   19SAPC   H3Y 2502   0.135   2.112   9.972  0.1740  1.1759  0.6776
   19SAPC   C34 2503   0.069   2.246   9.802  0.2515 -0.6123  0.1132
   19SAPC   H4X 2504   0.172   2.253   9.762  0.4404 -1.0732  0.5009
   19SAPC   H4Y 2505   0.013   2.342   9.801  1.9820  0.4893  1.8403
   19SAPC   C35 2506  -0.023   2.142   9.721 -0.4044  0.3216  0.8212
   19SAPC   H5X 2507  -0.118   2.136   9.779  0.0745  0.2169  1.6127
   19SAPC   H5Y 2508   0.018   2.039   9.709 -1.2150 -0.0350  1.0453
   19SAPC   C36 2509  -0.067   2.208   9.588  0.4386 -0.3413 -0.9295
   19SAPC   H6X 2510   0.028   2.229   9.535  1.3911 -1.1440  0.3794
   19SAPC   H6Y 2511  -0.126   2.300   9.606 -1.7070 -2.0048  1.1994
   19SAPC   C37 2512  -0.153   2.121   9.492 -0.3663 -0.6625 -0.7427
   19SAPC   H7X 2513  -0.242   2.089   9.549 -0.2196 -0.4634 -0.4011
   19SAPC   H7Y 2514  -0.093   2.027   9.485 -1.0732 -1.6434  3.4764
   19SAPC   C38 2515  -0.194   2.200   9.363  0.0227 -0.3844  0.0237
   19SAPC   H8X 2516  -0.113   2.261   9.317 -0.1956 -1.0291 -1.2599
   19SAPC   H8Y 2517  -0.279   2.270   9.381 -1.7739 -2.4976  0.1994
   19SAPC   C39 2518  -0.231   2.098   9.254  0.5831 -1.1539  0.1406
   19SAPC   H9X 2519  -0.313   2.037   9.299  0.8120 -1.1602  0.5505
   19SAPC   H9Y 2520  -0.144   2.034   9.228  0.7999 -0.4308 -0.9371
   19SAPC  C310 2521  -0.286   2.164   9.130 -0.8088 -0.2129 -0.0327
   19SAPC  H10X 2522  -0.385   2.208   9.153  0.0836  0.7912  2.1446
   19SAPC  H10Y 2523  -0.310   2.085   9.056 -2.1106 -0.5590  0.7312
   19SAPC  C311 2524  -0.190   2.263   9.065  0.4263 -0.6251  0.3981
   19SAPC  H11X 2525  -0.093   2.215   9.040  0.8283  1.5732 -2.8771
   19SAPC  H11Y 2526  -0.178   2.349   9.135 -0.2143 -0.9266  0.8814
   19SAPC  C312 2527  -0.243   2.308   8.929 -0.4915 -0.2472  0.3791
   19SAPC  H12X 2528  -0.348   2.343   8.938 -0.9188 -1.8200  2.0635
   19SAPC  H12Y 2529  -0.245   2.220   8.861  2.4784 -0.4049  0.3683
   19SAPC  C313 2530  -0.166   2.408   8.843 -0.1953  0.0507 -0.3245
   19SAPC  H13X 2531  -0.069   2.359   8.819 -1.7365 -3.4400  0.0485
   19SAPC  H13Y 2532  -0.137   2.496   8.905  1.5359 -0.9896  0.4048
   19SAPC  C314 2533  -0.236   2.447   8.713 -0.5956 -0.5844  0.5925
   19SAPC  H14X 2534  -0.320   2.510   8.748  1.2974  2.2476  0.4035
   19SAPC  H14Y 2535  -0.259   2.358   8.652 -3.0244 -0.1548  0.7890
   19SAPC  C315 2536  -0.136   2.547   8.643  0.1674  0.0516 -0.6268
   19SAPC  H15X 2537  -0.037   2.497   8.642 -0.2546 -0.8450  0.5172
   19SAPC  H15Y 2538  -0.121   2.643   8.696 -0.6999 -0.8671  1.3839
   19SAPC  C316 2539  -0.188   2.592   8.504  0.5005 -0.0050  0.7585
   19SAPC  H16X 2540  -0.107   2.654   8.461  2.0812 -1.8293  0.9874
   19SAPC  H16Y 2541  -0.279   2.655   8.496  0.5817  0.2226  1.5682
   19SAPC  C317 2542  -0.201   2.477   8.404 -0.2344  0.1731  0.5992
   19SAPC  H17X 2543  -0.277   2.404   8.437  0.8424 -0.7052  1.2011
   19SAPC  H17Y 2544  -0.105   2.421   8.398  0.5037  1.5419 -1.7591
   19SAPC  C318 2545  -0.243   2.520   8.266 -0.5308  0.0982  0.5099
   19SAPC  H18X 2546  -0.162   2.580   8.220 -0.3124 -0.1924  0.5156
   19SAPC  H18Y 2547  -0.338   2.575   8.249 -0.0383 -0.0814 -4.2416
   19SAPC  H18Z 2548  -0.250   2.431   8.200 -0.7162 -0.3746  1.1524
   20SAPC     N 2549   2.720   4.689  10.391  0.0709  0.1355  0.3716
   20SAPC   C12 2550   2.631   4.650  10.504 -0.0626  0.1484 -0.3402
   20SAPC  H12A 2551   2.577   4.736  10.541 -0.2227  0.7526 -1.8922
   20SAPC  H12B 2552   2.701   4.623  10.582 -0.4480 -1.4988 -0.5389
   20SAPC   C13 2553   2.854   4.618  10.396 -0.4557 -0.2089 -0.2271
   20SAPC  H13A 2554   2.904   4.639  10.490  3.2154  3.5944 -2.6161
   20SAPC  H13B 2555   2.843   4.511  10.385  1.2998 -0.7455  2.1754
   20SAPC  H13C 2556   2.924   4.661  10.326  0.2003  0.0003  0.5371
   20SAPC   C14 2557   2.662   4.645  10.261 -0.3178  0.1929 -0.4576
   20SAPC  H14A 2558   2.659   4.537  10.257  0.7836  0.0867  0.8803
   20SAPC  H14B 2559   2.563   4.686  10.253 -0.8722 -1.1182 -0.6532
   20SAPC  H14C 2560   2.721   4.673  10.174 -0.7659 -0.6442 -1.0487
   20SAPC   C15 2561   2.744   4.838  10.397  0.5699 -0.4328 -0.3958
   20SAPC  H15A 2562   2.651   4.892  10.387 -0.9002 -2.9080 -0.6588
   20SAPC  H15B 2563   2.781   4.868  10.494 -2.8847 -1.6752  1.4923
   20SAPC  H15C 2564   2.819   4.870  10.326  2.9027  0.6862  2.3556
   20SAPC   C11 2565   2.531   4.527  10.504 -0.5201  0.2629 -0.1914
   20SAPC  H11A 2566   2.472   4.531  10.410 -1.5848  0.9728  0.4944
   20SAPC  H11B 2567   2.454   4.524  10.584 -2.4252  0.0684 -1.9484
   20SAPC     P 2568   2.556   4.267  10.501 -0.6891 -0.2651  0.0228
   20SAPC   O13 2569   2.665   4.171  10.466 -0.2763  0.6630  0.1399
   20SAPC   O14 2570   2.479   4.231  10.620 -0.0019 -0.2452  0.1034
   20SAPC   O12 2571   2.611   4.415  10.512 -0.1586 -0.1344  0.3708
   20SAPC   O11 2572   2.465   4.266  10.377 -0.2480  0.1863  0.3321
   20SAPC    C1 2573   2.369   4.163  10.358 -0.4001  0.3747 -0.5268
   20SAPC    HA 2574   2.295   4.152  10.441 -0.4336  2.7237 -0.1805
   20SAPC    HB 2575   2.309   4.192  10.269 -0.2666  0.8302 -0.4711
   20SAPC    C2 2576   2.437   4.026  10.309  0.0058 -0.4440  0.5468
   20SAPC    HS 2577   2.507   3.992  10.389  0.0577 -1.7917 -0.0320
   20SAPC   O21 2578   2.521   4.066  10.194  0.4670 -0.8356  0.2041
   20SAPC   C21 2579   2.619   3.984  10.173  0.4427 -1.2368  0.6089
   20SAPC   O22 2580   2.624   3.876  10.226 -0.0776  0.2388 -0.2681
   20SAPC   C22 2581   2.714   4.042  10.063  0.2405  0.0655 -0.0807
   20SAPC   H2R 2582   2.658   4.112   9.996  0.8413  0.2269 -0.4204
   20SAPC   H2S 2583   2.793   4.104  10.112  1.6092 -1.2946 -0.5031
   20SAPC    C3 2584   2.326   3.919  10.277 -0.3868  0.5598  0.3991
   20SAPC    HX 2585   2.264   3.893  10.365  1.2563  2.7844  2.3546
   20SAPC    HY 2586   2.381   3.829  10.243 -0.9697  0.2182  0.3599
   20SAPC   O31 2587   2.235   3.961  10.172  0.7077  0.4259  0.0926
   20SAPC   C31 2588   2.263   3.929  10.051 -0.2487  0.0614 -0.3625
   20SAPC   O32 2589   2.355   3.853  10.014 -0.2272 -0.0474 -0.0303
   20SAPC   C32 2590   2.191   4.026   9.964 -0.0054  0.3483  0.1675
   20SAPC   H2X 2591   2.252   4.119   9.963 -1.0652  1.0939  1.7315
   20SAPC   H2Y 2592   2.093   4.052  10.008  0.1434 -0.5946  1.1066
   20SAPC   C23 2593   2.765   3.933   9.969  0.3673 -0.1647 -0.2820
   20SAPC   H3R 2594   2.801   3.846  10.029 -3.7113 -0.8285  1.5359
   20SAPC   H3S 2595   2.856   3.966   9.915  0.7598 -0.5271  0.1429
   20SAPC   C24 2596   2.654   3.913   9.860 -0.9692 -0.3195  0.1592
   20SAPC   H4R 2597   2.672   3.997   9.790  1.9264 -1.3990 -0.5276
   20SAPC   H4S 2598   2.553   3.921   9.906 -1.6051  1.3545 -1.4180
   20SAPC   C25 2599   2.675   3.782   9.788 -0.2946  1.0053  0.0042
   20SAPC   H5R 2600   2.738   3.709   9.841 -0.6409  0.4229 -0.3828
   20SAPC   C26 2601   2.627   3.751   9.665  0.0775 -0.0217 -0.4485
   20SAPC   H6R 2602   2.652   3.653   9.623  0.3889  0.4507 -1.3937
   20SAPC   C27 2603   2.550   3.846   9.577  1.2585  0.8425 -0.0781
   20SAPC   H7R 2604   2.490   3.916   9.639 -0.9716 -0.8534 -0.1648
   20SAPC   H7S 2605   2.467   3.789   9.531  1.4026  0.6440 -0.0943
   20SAPC   C28 2606   2.636   3.920   9.474 -0.6050  0.1415  0.4087
   20SAPC   H8R 2607   2.723   3.971   9.517 -0.4920  1.3078 -1.1219
   20SAPC   C29 2608   2.624   3.914   9.339  0.6419 -0.5425 -0.2193
   20SAPC   H9R 2609   2.697   3.973   9.281 -0.9835 -0.4785 -2.3073
   20SAPC  C210 2610   2.527   3.834   9.259  0.0296  0.2957  0.4116
   20SAPC  H10R 2611   2.443   3.795   9.320  1.2575  0.1602  2.0768
   20SAPC  H10S 2612   2.594   3.757   9.214  1.8986  2.4980 -0.8263
   20SAPC  C211 2613   2.456   3.917   9.155 -0.2997 -0.5657  0.0632
   20SAPC  H11R 2614   2.394   3.999   9.195  1.2259  0.1375  1.0705
   20SAPC  C212 2615   2.456   3.895   9.019  0.1479  0.4292  0.3516
   20SAPC  H12R 2616   2.411   3.970   8.952  1.8695  1.4221  0.2517
   20SAPC  C213 2617   2.526   3.787   8.946  0.4875 -0.3285 -0.1844
   20SAPC  H13R 2618   2.449   3.739   8.882  1.1041 -0.2550 -1.0131
   20SAPC  H13S 2619   2.559   3.711   9.019  3.6009 -0.1162 -1.1810
   20SAPC  C214 2620   2.642   3.841   8.868 -0.3837 -0.7304 -0.3193
   20SAPC  H14R 2621   2.680   3.939   8.900  1.2245 -1.4202 -0.0045
   20SAPC  C215 2622   2.703   3.779   8.761 -0.4408 -1.3966  0.5415
   20SAPC  H15R 2623   2.781   3.836   8.708 -0.6024 -2.6859 -1.1844
   20SAPC  C216 2624   2.662   3.655   8.694  0.5035 -0.4927 -0.0216
   20SAPC  H16R 2625   2.577   3.611   8.750 -0.5633  0.2088 -1.0435
   20SAPC  H16S 2626   2.737   3.574   8.711  0.3976 -0.1898  2.1886
   20SAPC  C217 2627   2.633   3.665   8.545  0.0295  0.2165  0.4653
   20SAPC  H17R 2628   2.727   3.697   8.495 -0.5437  1.9518  0.4088
   20SAPC  H17S 2629   2.544   3.727   8.517  0.1316 -0.1419 -0.7041
   20SAPC  C218 2630   2.608   3.518   8.485  0.6529  0.0665 -0.3153
   20SAPC  H18R 2631   2.506   3.479   8.509  1.3027 -0.4258  1.8382
   20SAPC  H18S 2632   2.678   3.450   8.537 -0.1771 -0.8746 -0.3877
   20SAPC  C219 2633   2.641   3.514   8.337 -0.5088 -0.4857 -0.9164
   20SAPC  H19R 2634   2.655   3.411   8.296 -1.2518  0.1272 -2.8320
   20SAPC  H19S 2635   2.743   3.556   8.330  0.6387 -2.9072  0.0107
   20SAPC  C220 2636   2.564   3.602   8.241 -0.1523 -0.4250 -0.0349
   20SAPC  H20R 2637   2.623   3.620   8.149 -0.3380 -0.6905 -0.2044
   20SAPC  H20S 2638   2.553   3.699   8.295  0.1532  0.6191 -1.7954
   20SAPC  H20T 2639   2.463   3.562   8.221 -1.1309  0.0730  3.2242
   20SAPC   C33 2640   2.166   3.969   9.822  0.1593  0.8587  0.1515
   20SAPC   H3X 2641   2.257   3.934   9.768 -0.7485  0.7633 -1.3764
   20SAPC   H3Y 2642   2.119   4.053   9.767  2.0687  2.1337  0.3713
   20SAPC   C34 2643   2.051   3.862   9.813  0.3936 -0.4707  0.2293
   20SAPC   H4X 2644   1.952   3.913   9.810  1.1111  0.9482 -0.4017
   20SAPC   H4Y 2645   2.066   3.801   9.905  0.9713 -0.0445  0.4224
   20SAPC   C35 2646   2.056   3.783   9.682 -0.3110 -0.1744 -0.2265
   20SAPC   H5X 2647   2.047   3.678   9.718  0.7214 -0.2910 -0.2799
   20SAPC   H5Y 2648   2.155   3.788   9.632 -0.4861 -1.3792 -0.7356
   20SAPC   C36 2649   1.948   3.822   9.583  0.4681  0.4041 -0.5914
   20SAPC   H6X 2650   1.939   3.932   9.568 -0.9310  0.2066 -1.3791
   20SAPC   H6Y 2651   1.860   3.799   9.646  1.3359 -0.0128  0.5153
   20SAPC   C37 2652   1.943   3.733   9.462  0.4378  0.4685 -0.4053
   20SAPC   H7X 2653   1.916   3.633   9.500  2.3330  0.2823  0.5682
   20SAPC   H7Y 2654   2.045   3.713   9.423 -0.6469 -3.6948 -1.5548
   20SAPC   C38 2655   1.853   3.783   9.344  0.2970  0.3168  0.4813
   20SAPC   H8X 2656   1.902   3.875   9.306  1.5338 -0.3640  0.3661
   20SAPC   H8Y 2657   1.757   3.819   9.386  1.0908  0.4934  2.2577
   20SAPC   C39 2658   1.843   3.676   9.233  0.5041  0.1704 -0.2125
   20SAPC   H9X 2659   1.749   3.678   9.174  1.5071 -0.6290 -1.9022
   20SAPC   H9Y 2660   1.831   3.578   9.286  4.6179  0.9880  2.6652
   20SAPC  C310 2661   1.964   3.668   9.150  0.0375  0.2728  0.4737
   20SAPC  H10X 2662   1.991   3.573   9.100  0.8211  0.6315  0.1895
   20SAPC  H10Y 2663   2.050   3.675   9.219 -0.3759 -0.6911  1.1050
   20SAPC  C311 2664   1.983   3.766   9.034 -0.1728  0.3436 -0.0217
   20SAPC  H11X 2665   2.032   3.855   9.078  0.8775  0.3484 -1.1358
   20SAPC  H11Y 2666   1.883   3.785   8.990 -0.3437 -0.1787  0.1256
   20SAPC  C312 2667   2.075   3.717   8.926  0.6757  0.4523 -0.1817
   20SAPC  H12X 2668   2.043   3.626   8.872  0.8735  1.2962 -1.7641
   20SAPC  H12Y 2669   2.172   3.681   8.967 -0.6180 -3.1565  0.0331
   20SAPC  C313 2670   2.105   3.819   8.815 -0.0388  0.3328 -0.0694
   20SAPC  H13X 2671   2.165   3.895   8.869  0.4742  0.1849 -0.4191
   20SAPC  H13Y 2672   2.013   3.875   8.789 -2.1936 -2.3598  1.2048
   20SAPC  C314 2673   2.195   3.771   8.700 -0.2927 -0.2514 -0.1676
   20SAPC  H14X 2674   2.270   3.709   8.753 -0.9754 -0.6270  0.3669
   20SAPC  H14Y 2675   2.240   3.861   8.652 -1.4863  0.5004  0.0893
   20SAPC  C315 2676   2.119   3.687   8.601  0.0497  0.2650 -0.0774
   20SAPC  H15X 2677   2.026   3.653   8.651 -0.3746  0.7007 -0.5662
   20SAPC  H15Y 2678   2.190   3.605   8.578  2.7359  2.3949  0.1094
   20SAPC  C316 2679   2.078   3.762   8.477 -0.0028 -0.0170 -0.1974
   20SAPC  H16X 2680   2.046   3.867   8.493  0.4654  0.2943 -1.2148
   20SAPC  H16Y 2681   1.989   3.707   8.439 -0.4001  1.1902 -1.0577
   20SAPC  C317 2682   2.173   3.747   8.359 -0.1243 -0.5444 -1.0134
   20SAPC  H17X 2683   2.106   3.769   8.273 -1.2605  1.5982  0.3238
   20SAPC  H17Y 2684   2.210   3.642   8.354 -0.3302 -0.6772  0.1797
   20SAPC  C318 2685   2.290   3.844   8.357  0.0702 -0.0044  0.1213
   20SAPC  H18X 2686   2.244   3.945   8.349 -1.4789 -0.6459  0.5657
   20SAPC  H18Y 2687   2.368   3.828   8.280  1.5461  0.4829  1.4359
   20SAPC  H18Z 2688   2.347   3.829   8.452  0.4210 -0.3774 -0.1424
   21SAPC     N 2689   0.289   3.382  10.777 -0.3732 -0.6235  0.2399
   21SAPC   C12 2690   0.411   3.461  10.729  0.5188  0.0614 -0.7731
   21SAPC  H12A 2691   0.453   3.427  10.636 -2.3563  1.4708 -2.7125
   21SAPC  H12B 2692   0.480   3.454  10.812  0.4831 -1.9485 -0.8642
   21SAPC   C13 2693   0.235   3.428  10.912  0.5781 -0.0120 -0.0659
   21SAPC  H13A 2694   0.156   3.364  10.948 -1.7612  2.5964 -0.2407
   21SAPC  H13B 2695   0.313   3.434  10.985 -1.4271  2.6007  2.0260
   21SAPC  H13C 2696   0.188   3.524  10.900  2.8182  1.1422 -0.1273
   21SAPC   C14 2697   0.187   3.398  10.675 -0.0080 -1.0345 -0.2379
   21SAPC  H14A 2698   0.209   3.336  10.589 -1.5118 -1.8311 -0.0818
   21SAPC  H14B 2699   0.088   3.361  10.699 -0.7073 -0.4977 -2.1063
   21SAPC  H14C 2700   0.174   3.500  10.642  1.3661 -1.4428 -2.2775
   21SAPC   C15 2701   0.323   3.240  10.792 -0.1342 -0.5143 -0.2142
   21SAPC  H15A 2702   0.238   3.173  10.792  0.5550 -1.4104  0.5185
   21SAPC  H15B 2703   0.390   3.205  10.715  1.5995  0.5317  0.7604
   21SAPC  H15C 2704   0.389   3.227  10.876  0.2839 -0.2660 -0.4959
   21SAPC   C11 2705   0.400   3.615  10.706 -0.2000  0.1762  0.7508
   21SAPC  H11A 2706   0.498   3.667  10.701 -0.4110  0.9015  2.9951
   21SAPC  H11B 2707   0.332   3.664  10.779 -0.6194  1.8534 -0.7002
   21SAPC     P 2708   0.395   3.622  10.449 -0.0241  0.2916 -0.0024
   21SAPC   O13 2709   0.459   3.496  10.452 -0.4146  0.0758 -0.5518
   21SAPC   O14 2710   0.307   3.650  10.336  0.1160 -0.2956 -0.3014
   21SAPC   O12 2711   0.326   3.648  10.591  0.1246 -0.2337 -0.3161
   21SAPC   O11 2712   0.517   3.726  10.461 -0.0854  0.3340 -0.1532
   21SAPC    C1 2713   0.489   3.864  10.441  0.4127  0.0751  0.3323
   21SAPC    HA 2714   0.381   3.886  10.427  1.0245  2.1023 -2.0458
   21SAPC    HB 2715   0.525   3.931  10.522  2.7256 -1.5716  0.7625
   21SAPC    C2 2716   0.552   3.908  10.304 -0.6425  0.6452  0.2131
   21SAPC    HS 2717   0.519   4.012  10.280 -0.4621  0.6307 -0.1032
   21SAPC   O21 2718   0.518   3.810  10.200  0.2653 -0.0632  0.5947
   21SAPC   C21 2719   0.405   3.837  10.143  0.1378  0.0798 -0.2015
   21SAPC   O22 2720   0.325   3.916  10.187  0.3252 -0.3836  0.0770
   21SAPC   C22 2721   0.397   3.757  10.014  0.7409 -0.4452 -0.4888
   21SAPC   H2R 2722   0.500   3.725   9.989  0.5589 -2.7614  1.3263
   21SAPC   H2S 2723   0.352   3.657  10.033  1.6824 -0.7323  0.3094
   21SAPC    C3 2724   0.708   3.905  10.321 -0.4872 -0.1691  0.4025
   21SAPC    HX 2725   0.730   3.797  10.338  1.3183  0.2261  0.7795
   21SAPC    HY 2726   0.739   3.958  10.413 -0.6607 -0.5314  0.6723
   21SAPC   O31 2727   0.778   3.950  10.208  0.1835 -0.7376  0.4312
   21SAPC   C31 2728   0.787   4.082  10.187  0.4961 -0.0267  0.0436
   21SAPC   O32 2729   0.743   4.168  10.257 -0.0601  0.0388  0.2292
   21SAPC   C32 2730   0.860   4.106  10.057 -0.5817 -0.1347 -0.2589
   21SAPC   H2X 2731   0.797   4.064   9.976  1.5685  0.3389 -2.2842
   21SAPC   H2Y 2732   0.952   4.045  10.064 -0.3941  0.3413  3.2621
   21SAPC   C23 2733   0.333   3.838   9.901  0.0617  1.0163 -0.5007
   21SAPC   H3R 2734   0.239   3.888   9.933 -0.0411  1.7801 -1.9445
   21SAPC   H3S 2735   0.302   3.765   9.823 -0.2709  0.3993  0.1942
   21SAPC   C24 2736   0.425   3.944   9.845  0.2870  0.0623  0.4377
   21SAPC   H4R 2737   0.511   3.879   9.816 -0.2596 -1.5476  2.1969
   21SAPC   H4S 2738   0.470   4.009   9.923  2.4048 -2.4654  1.4719
   21SAPC   C25 2739   0.355   4.023   9.732  0.3753  0.9599  0.0791
   21SAPC   H5R 2740   0.302   4.114   9.763  0.0420  0.8792 -0.2533
   21SAPC   C26 2741   0.353   3.994   9.601  0.2929 -0.3774  0.5275
   21SAPC   H6R 2742   0.302   4.061   9.530 -1.0447  0.0342  1.8227
   21SAPC   C27 2743   0.414   3.876   9.533 -0.9403  0.4498 -0.1583
   21SAPC   H7R 2744   0.489   3.831   9.603  0.1738  2.0026 -0.2957
   21SAPC   H7S 2745   0.471   3.909   9.443 -0.0897 -1.2852 -0.3097
   21SAPC   C28 2746   0.316   3.762   9.501 -0.4725 -0.2373  0.0545
   21SAPC   H8R 2747   0.304   3.689   9.583  3.8813 -0.0443  1.1227
   21SAPC   C29 2748   0.251   3.746   9.387 -0.0815  0.0973 -0.5090
   21SAPC   H9R 2749   0.195   3.652   9.378  1.7702 -1.2766  1.1491
   21SAPC  C210 2750   0.262   3.838   9.263 -0.3361  0.5514  0.0150
   21SAPC  H10R 2751   0.345   3.816   9.193  1.3999  1.5489  1.6583
   21SAPC  H10S 2752   0.260   3.947   9.284 -2.0100  0.4222  0.7018
   21SAPC  C211 2753   0.133   3.804   9.193 -0.3459 -0.4091  0.3874
   21SAPC  H11R 2754   0.052   3.769   9.258 -0.6796 -0.1393  0.1167
   21SAPC  C212 2755   0.115   3.789   9.061  0.3162  0.2688  0.0206
   21SAPC  H12R 2756   0.009   3.769   9.036  0.1476 -0.8061  1.4307
   21SAPC  C213 2757   0.205   3.830   8.951  0.2856 -0.0884 -0.5732
   21SAPC  H13R 2758   0.286   3.891   8.997  0.1679  1.0328 -1.8024
   21SAPC  H13S 2759   0.157   3.904   8.884  0.4817 -2.1916 -3.1757
   21SAPC  C214 2760   0.262   3.711   8.882  0.4209  0.6726 -0.0292
   21SAPC  H14R 2761   0.320   3.645   8.947 -0.6794 -1.1691 -0.8594
   21SAPC  C215 2762   0.235   3.674   8.752  0.0334  0.2672 -0.2081
   21SAPC  H15R 2763   0.284   3.584   8.713 -1.4120 -0.6044 -0.0913
   21SAPC  C216 2764   0.156   3.760   8.659  0.7754 -0.1227  0.7738
   21SAPC  H16R 2765   0.122   3.860   8.695  2.4910  0.8046  0.0072
   21SAPC  H16S 2766   0.057   3.711   8.652  0.9483 -0.2679 -1.5893
   21SAPC  C217 2767   0.206   3.764   8.510  0.6395  0.4521  0.5287
   21SAPC  H17R 2768   0.120   3.776   8.441 -0.2394  0.5447  1.6143
   21SAPC  H17S 2769   0.248   3.666   8.481 -0.6456 -0.1027  0.4881
   21SAPC  C218 2770   0.310   3.883   8.474 -0.0701  0.4421  0.0861
   21SAPC  H18R 2771   0.357   3.863   8.376  1.4808  0.9940  0.6857
   21SAPC  H18S 2772   0.377   3.890   8.563 -0.3516 -0.8913  0.4233
   21SAPC  C219 2773   0.223   4.005   8.450 -0.0234 -0.1966 -0.4190
   21SAPC  H19R 2774   0.181   4.035   8.548  1.8612  1.1989  0.0106
   21SAPC  H19S 2775   0.142   3.976   8.379  0.9606 -1.9654 -0.8733
   21SAPC  C220 2776   0.296   4.123   8.386 -0.0148 -0.5150  0.4588
   21SAPC  H20R 2777   0.371   4.173   8.451  0.3321 -0.1858 -0.1771
   21SAPC  H20S 2778   0.221   4.201   8.359  0.8335  0.1781  0.0427
   21SAPC  H20T 2779   0.339   4.080   8.294 -0.2629 -1.4657  0.7823
   21SAPC   C33 2780   0.887   4.257  10.037  0.4560  0.1488 -0.7348
   21SAPC   H3X 2781   0.981   4.282  10.090  0.5160 -1.9513  0.2295
   21SAPC   H3Y 2782   0.798   4.305  10.083  1.8902  1.0723  1.2428
   21SAPC   C34 2783   0.914   4.288   9.887  0.6095  0.3458  0.0483
   21SAPC   H4X 2784   0.928   4.398   9.872  0.0842  0.7973  2.3858
   21SAPC   H4Y 2785   0.824   4.248   9.837  0.1552  1.6872 -0.2464
   21SAPC   C35 2786   1.040   4.226   9.823 -0.8701  0.0335 -0.1777
   21SAPC   H5X 2787   1.050   4.132   9.882 -1.8427 -0.9556 -1.5392
   21SAPC   H5Y 2788   1.126   4.295   9.834 -0.2360 -0.7736  0.0934
   21SAPC   C36 2789   1.025   4.195   9.673  0.7626 -0.7393 -0.0898
   21SAPC   H6X 2790   0.921   4.164   9.647  0.9728 -0.7241 -1.0046
   21SAPC   H6Y 2791   1.088   4.107   9.645  2.1035  0.6872 -1.8454
   21SAPC   C37 2792   1.046   4.328   9.590  0.1108  0.2598 -0.1293
   21SAPC   H7X 2793   1.155   4.347   9.583  0.0260  1.0663  0.5720
   21SAPC   H7Y 2794   1.007   4.407   9.657 -0.6058 -0.5124  0.3866
   21SAPC   C38 2795   0.991   4.319   9.442 -0.0081 -0.3825  0.4153
   21SAPC   H8X 2796   0.983   4.422   9.403  1.2426 -0.2058  0.5767
   21SAPC   H8Y 2797   0.888   4.280   9.452  0.4994 -2.0143 -0.3171
   21SAPC   C39 2798   1.075   4.224   9.352 -0.1631  0.0764 -0.1922
   21SAPC   H9X 2799   1.058   4.119   9.383 -0.7908 -0.2963 -1.7177
   21SAPC   H9Y 2800   1.184   4.244   9.350 -0.1489  0.3468  1.4326
   21SAPC  C310 2801   1.021   4.249   9.205 -0.1288  0.1704 -0.7545
   21SAPC  H10X 2802   1.027   4.358   9.183  0.3030  0.4580  0.7136
   21SAPC  H10Y 2803   0.918   4.208   9.203 -0.3929  0.6700  1.0768
   21SAPC  C311 2804   1.101   4.180   9.086 -0.4169  1.1952  0.2158
   21SAPC  H11X 2805   1.078   4.072   9.102  0.4334  0.8211 -0.9131
   21SAPC  H11Y 2806   1.209   4.200   9.099  0.0549  1.3153 -3.0735
   21SAPC  C312 2807   1.072   4.229   8.938 -0.4155 -0.0725 -0.6768
   21SAPC  H12X 2808   1.086   4.339   8.941  3.6809 -0.4594  1.7043
   21SAPC  H12Y 2809   0.966   4.208   8.911 -1.0836 -0.3751  1.9059
   21SAPC  C313 2810   1.161   4.166   8.834 -0.7784 -0.1890  0.0262
   21SAPC  H13X 2811   1.157   4.055   8.832  0.4944 -0.2485 -1.4839
   21SAPC  H13Y 2812   1.266   4.195   8.858 -0.8451  1.6513 -1.6079
   21SAPC  C314 2813   1.132   4.231   8.698 -0.1727 -0.4901 -0.3035
   21SAPC  H14X 2814   1.154   4.336   8.724  1.7425 -1.6705  3.6509
   21SAPC  H14Y 2815   1.028   4.210   8.664  0.8897 -4.1894 -1.7886
   21SAPC  C315 2816   1.231   4.206   8.587 -0.4357  0.5097 -0.1507
   21SAPC  H15X 2817   1.337   4.232   8.610  0.1817 -1.5837 -0.4201
   21SAPC  H15Y 2818   1.203   4.259   8.493  0.2622  1.3823  0.1124
   21SAPC  C316 2819   1.223   4.056   8.550 -0.0257  0.1521  0.3337
   21SAPC  H16X 2820   1.115   4.035   8.536  0.3054 -0.3069 -1.8916
   21SAPC  H16Y 2821   1.275   3.995   8.627  2.1319  2.6107  0.9646
   21SAPC  C317 2822   1.286   4.020   8.412  0.2116  0.1657 -0.5427
   21SAPC  H17X 2823   1.383   3.968   8.424  1.2559  2.2881  0.8028
   21SAPC  H17Y 2824   1.320   4.116   8.368 -0.5998  0.6184 -0.2206
   21SAPC  C318 2825   1.203   3.936   8.319 -0.2563 -0.4894 -0.7831
   21SAPC  H18X 2826   1.251   3.937   8.218  1.8732 -0.1497  0.1719
   21SAPC  H18Y 2827   1.098   3.974   8.317  0.1030  1.0201  2.5107
   21SAPC  H18Z 2828   1.200   3.828   8.344 -1.1484 -0.0980  0.9357
   22SAPC     N 2829   4.078   5.852  10.713 -0.2942  0.8669 -0.4399
   22SAPC   C12 2830   4.151   5.867  10.576  0.5084 -0.6702 -0.0629
   22SAPC  H12A 2831   4.105   5.802  10.504 -3.7598  0.8498  0.9944
   22SAPC  H12B 2832   4.252   5.831  10.578  0.4634 -0.7965 -0.0256
   22SAPC   C13 2833   3.933   5.894  10.702  0.4509  0.9441  0.8829
   22SAPC  H13A 2834   3.887   5.901  10.799  0.6801 -1.1615  1.1886
   22SAPC  H13B 2835   3.925   5.996  10.666 -0.4574  1.1995  1.7877
   22SAPC  H13C 2836   3.876   5.822  10.645  1.5688 -0.3582  1.3264
   22SAPC   C14 2837   4.095   5.709  10.758 -0.1685  0.4139 -0.1076
   22SAPC  H14A 2838   4.058   5.698  10.859  1.4907 -0.2432  0.4713
   22SAPC  H14B 2839   4.032   5.642  10.702 -3.0517  0.7259  2.4531
   22SAPC  H14C 2840   4.196   5.671  10.765 -0.0750  0.7402  0.3650
   22SAPC   C15 2841   4.149   5.940  10.813  0.5248  0.8981 -0.2495
   22SAPC  H15A 2842   4.253   5.911  10.821  0.6100  0.8995 -1.2038
   22SAPC  H15B 2843   4.134   6.042  10.782  0.1176  1.3445  1.3332
   22SAPC  H15C 2844   4.095   5.921  10.904 -0.8655 -0.7420 -1.3592
   22SAPC   C11 2845   4.158   6.009  10.506  0.3125 -1.0137 -0.3218
   22SAPC  H11A 2846   4.053   6.045  10.499  1.0589  1.1411 -1.2966
   22SAPC  H11B 2847   4.193   5.996  10.401  1.0404 -1.8556  0.0091
   22SAPC     P 2848   4.392   6.112  10.575 -0.2367  0.1601 -0.2726
   22SAPC   O13 2849   4.444   6.203  10.680 -0.6781  0.4192 -0.1645
   22SAPC   O14 2850   4.443   5.975  10.589  0.7369  0.8719  0.5817
   22SAPC   O12 2851   4.231   6.105  10.587 -0.1877 -0.1320  0.1144
   22SAPC   O11 2852   4.416   6.174  10.431  0.2070  0.3057  0.9381
   22SAPC    C1 2853   4.363   6.299  10.417 -0.2021  0.3411 -0.1638
   22SAPC    HA 2854   4.355   6.361  10.509  0.7118  0.8215 -0.3947
   22SAPC    HB 2855   4.438   6.362  10.366 -1.4903  0.5579 -1.8996
   22SAPC    C2 2856   4.231   6.303  10.335 -0.1119  0.5859  0.2862
   22SAPC    HS 2857   4.153   6.259  10.401  0.7160 -0.5922  0.4953
   22SAPC   O21 2858   4.242   6.227  10.212  0.0878 -0.1381  0.1917
   22SAPC   C21 2859   4.133   6.197  10.150 -0.0346  0.2385 -0.3698
   22SAPC   O22 2860   4.021   6.213  10.187 -0.7111 -0.2426 -0.3843
   22SAPC   C22 2861   4.180   6.117  10.028  0.2406 -0.2473 -0.1796
   22SAPC   H2R 2862   4.280   6.143   9.988  0.1519  1.6374  0.7527
   22SAPC   H2S 2863   4.185   6.016  10.076 -1.4157  1.0718  3.1345
   22SAPC    C3 2864   4.180   6.449  10.311  0.3809 -0.3599 -0.8335
   22SAPC    HX 2865   4.149   6.489  10.410  1.0975 -1.9056  0.0504
   22SAPC    HY 2866   4.083   6.433  10.260 -0.4527 -0.2776  0.6645
   22SAPC   O31 2867   4.271   6.537  10.244 -0.1131 -0.8523 -1.3798
   22SAPC   C31 2868   4.253   6.565  10.120  0.6432  0.1535 -0.3209
   22SAPC   O32 2869   4.174   6.519  10.039 -0.4719  0.1293  0.3260
   22SAPC   C32 2870   4.348   6.686  10.094  0.4446 -0.4130  1.1027
   22SAPC   H2X 2871   4.455   6.658  10.107  0.3786 -1.7580 -0.9112
   22SAPC   H2Y 2872   4.324   6.761  10.173 -1.5587 -1.4329  1.5157
   22SAPC   C23 2873   4.066   6.114   9.925  0.5809 -0.3695  0.1921
   22SAPC   H3R 2874   3.974   6.082   9.979 -0.4083 -0.3920 -1.4595
   22SAPC   H3S 2875   4.089   6.044   9.842  1.1705  0.1833 -0.1248
   22SAPC   C24 2876   4.044   6.255   9.868  1.2592 -0.4668  0.3154
   22SAPC   H4R 2877   4.009   6.319   9.952 -2.8380 -3.5077  1.2317
   22SAPC   H4S 2878   3.949   6.246   9.811  1.4159 -0.8487  0.1158
   22SAPC   C25 2879   4.151   6.313   9.784  0.2283  0.4135 -0.0240
   22SAPC   H5R 2880   4.212   6.374   9.852 -0.1369  0.1777  0.5190
   22SAPC   C26 2881   4.180   6.303   9.652  0.1551 -0.3160  0.1913
   22SAPC   H6R 2882   4.259   6.364   9.605 -0.3397 -1.0484 -1.6626
   22SAPC   C27 2883   4.097   6.227   9.547  0.0120 -0.6917 -0.4753
   22SAPC   H7R 2884   4.036   6.304   9.495 -0.6991 -0.5364  0.5696
   22SAPC   H7S 2885   4.030   6.159   9.603  0.8867 -0.4506  0.9016
   22SAPC   C28 2886   4.183   6.125   9.469 -0.5130 -0.0992  0.4770
   22SAPC   H8R 2887   4.218   6.040   9.529 -1.3143 -2.7727 -2.5167
   22SAPC   C29 2888   4.245   6.133   9.345  0.0873  0.3238 -0.1494
   22SAPC   H9R 2889   4.297   6.039   9.320 -1.0420 -0.4412  0.2755
   22SAPC  C210 2890   4.237   6.239   9.233  0.7696  0.5859  0.3148
   22SAPC  H10R 2891   4.253   6.342   9.271 -0.7487  0.8457  0.3324
   22SAPC  H10S 2892   4.131   6.238   9.198  0.3124  2.2067  1.5148
   22SAPC  C211 2893   4.338   6.223   9.120  0.8854  0.4842  0.0442
   22SAPC  H11R 2894   4.442   6.224   9.157 -0.1729 -1.4495  3.4203
   22SAPC  C212 2895   4.315   6.212   8.986 -0.4883 -0.1519  0.9602
   22SAPC  H12R 2896   4.403   6.203   8.920 -0.4673 -1.3183  1.1104
   22SAPC  C213 2897   4.188   6.206   8.923 -0.0027  0.1918  0.8330
   22SAPC  H13R 2898   4.186   6.283   8.843  1.7264 -0.7117 -0.1259
   22SAPC  H13S 2899   4.096   6.233   8.979  0.2179 -1.2307  1.9374
   22SAPC  C214 2900   4.173   6.066   8.865  0.6427  0.0317  0.0328
   22SAPC  H14R 2901   4.147   5.994   8.944  0.8714 -1.8309 -1.5336
   22SAPC  C215 2902   4.174   6.024   8.733  0.3491  0.2838  0.6259
   22SAPC  H15R 2903   4.157   5.918   8.710  0.5495  0.5310 -0.7702
   22SAPC  C216 2904   4.195   6.118   8.613 -0.6725  1.5632 -0.1621
   22SAPC  H16R 2905   4.244   6.045   8.546 -1.5636  0.5775  0.2249
   22SAPC  H16S 2906   4.268   6.196   8.644 -1.3735  1.5541  1.6761
   22SAPC  C217 2907   4.080   6.199   8.548 -0.1901 -0.3943  0.2808
   22SAPC  H17R 2908   4.023   6.251   8.628 -0.9043  0.0235 -0.4865
   22SAPC  H17S 2909   4.005   6.133   8.501 -0.0886  0.6363 -1.4081
   22SAPC  C218 2910   4.129   6.311   8.453 -0.1658 -0.3573 -0.5351
   22SAPC  H18R 2911   4.190   6.383   8.511  0.5205  0.1534 -1.8457
   22SAPC  H18S 2912   4.042   6.373   8.424  0.5476  1.5216  1.1475
   22SAPC  C219 2913   4.210   6.247   8.335 -0.0597  0.5130  0.3769
   22SAPC  H19R 2914   4.287   6.183   8.384 -0.2720 -0.4858 -0.5621
   22SAPC  H19S 2915   4.263   6.317   8.267 -0.2099  3.1158  2.7556
   22SAPC  C220 2916   4.118   6.149   8.257 -0.6522  0.2806 -0.1287
   22SAPC  H20R 2917   4.031   6.200   8.211 -0.5509  1.0183  0.4905
   22SAPC  H20S 2918   4.079   6.075   8.330  2.5123 -0.2374  1.2225
   22SAPC  H20T 2919   4.174   6.091   8.180 -0.9917 -1.5467  0.9443
   22SAPC   C33 2920   4.326   6.737   9.949 -0.0310  0.2489 -0.1959
   22SAPC   H3X 2921   4.351   6.845   9.955  1.1779  0.2065 -3.0423
   22SAPC   H3Y 2922   4.225   6.718   9.906  1.1208  0.5802 -3.3554
   22SAPC   C34 2923   4.428   6.658   9.864 -0.0427 -0.7914  0.0849
   22SAPC   H4X 2924   4.423   6.551   9.894  1.9577 -0.5473  1.5048
   22SAPC   H4Y 2925   4.533   6.688   9.882  0.6323 -0.6513 -3.3709
   22SAPC   C35 2926   4.394   6.674   9.708 -0.3247 -0.1677 -0.4720
   22SAPC   H5X 2927   4.362   6.777   9.683 -0.7360  0.3567  1.9646
   22SAPC   H5Y 2928   4.293   6.630   9.704  0.3147 -2.2849  2.8351
   22SAPC   C36 2929   4.494   6.609   9.617 -0.0153  0.4425  0.3634
   22SAPC   H6X 2930   4.523   6.506   9.646 -0.5672  0.0719 -0.3606
   22SAPC   H6Y 2931   4.589   6.664   9.598 -0.6835  1.4802 -0.0382
   22SAPC   C37 2932   4.424   6.592   9.482  0.2254  0.6339 -0.3056
   22SAPC   H7X 2933   4.370   6.687   9.461  0.1733  1.1119  1.7726
   22SAPC   H7Y 2934   4.346   6.512   9.476  1.1159 -0.3825  1.0542
   22SAPC   C38 2935   4.529   6.576   9.368 -0.3764 -0.2205  1.2057
   22SAPC   H8X 2936   4.597   6.663   9.355  0.0010 -0.5340  1.0553
   22SAPC   H8Y 2937   4.477   6.571   9.270 -1.9312  1.3836  1.9203
   22SAPC   C39 2938   4.621   6.451   9.374  0.1031  0.3470 -0.2907
   22SAPC   H9X 2939   4.557   6.360   9.363 -0.6313  0.6909  0.9401
   22SAPC   H9Y 2940   4.674   6.434   9.470  0.0778  0.2234 -0.2980
   22SAPC  C310 2941   4.734   6.456   9.270  0.6441 -0.7866  0.7624
   22SAPC  H10X 2942   4.804   6.540   9.292  2.7931 -2.2526 -0.0808
   22SAPC  H10Y 2943   4.684   6.486   9.176 -0.7154 -1.1786  1.3444
   22SAPC  C311 2944   4.809   6.324   9.258  0.9491  0.1245 -0.1950
   22SAPC  H11X 2945   4.777   6.263   9.345  0.7923  0.9634  0.3439
   22SAPC  H11Y 2946   4.920   6.331   9.260  1.0134 -0.8074  1.2013
   22SAPC  C312 2947   4.787   6.238   9.128  0.0842 -0.0661 -0.3361
   22SAPC  H12X 2948   4.682   6.249   9.092  0.2754  1.5830 -0.4420
   22SAPC  H12Y 2949   4.807   6.130   9.142 -4.4849 -1.1224 -0.1612
   22SAPC  C313 2950   4.879   6.278   9.007 -0.7467 -0.1037 -0.0872
   22SAPC  H13X 2951   4.979   6.258   9.051 -1.8422 -3.2669  1.2406
   22SAPC  H13Y 2952   4.864   6.385   8.982  4.3247  0.8512 -0.0405
   22SAPC  C314 2953   4.872   6.189   8.884  0.1858 -0.0486 -0.1751
   22SAPC  H14X 2954   4.775   6.188   8.830 -0.0700 -0.1100  0.2798
   22SAPC  H14Y 2955   4.884   6.084   8.917 -2.0048 -0.4514 -0.4997
   22SAPC  C315 2956   4.977   6.222   8.772 -0.4050 -0.1412 -0.4929
   22SAPC  H15X 2957   5.077   6.209   8.818 -0.9509 -0.5494  0.6432
   22SAPC  H15Y 2958   4.964   6.326   8.734 -0.2411 -0.7469 -2.2502
   22SAPC  C316 2959   4.973   6.119   8.659  0.9554  0.2825 -0.5048
   22SAPC  H16X 2960   4.874   6.109   8.609 -0.4667  0.0756  2.2100
   22SAPC  H16Y 2961   4.999   6.017   8.694 -1.2555  0.3662  1.6056
   22SAPC  C317 2962   5.078   6.150   8.547  0.0359  0.3833 -0.0144
   22SAPC  H17X 2963   5.182   6.142   8.586 -0.7777 -0.2509  2.1801
   22SAPC  H17Y 2964   5.072   6.257   8.518  0.6383  0.5464  0.4467
   22SAPC  C318 2965   5.079   6.062   8.423 -0.4647 -0.2348  0.6025
   22SAPC  H18X 2966   4.983   6.067   8.367  0.2975 -0.9122 -0.8092
   22SAPC  H18Y 2967   5.085   5.954   8.449 -2.9386 -1.3481 -2.7280
   22SAPC  H18Z 2968   5.161   6.097   8.357 -0.7227 -1.2750 -0.3025
   23SAPC     N 2969   1.146   0.842  10.999  0.6874  0.3691 -0.2977
   23SAPC   C12 2970   1.081   0.895  10.880 -0.1708 -0.4838 -0.2734
   23SAPC  H12A 2971   1.167   0.912  10.817 -0.5906 -1.0281 -0.9956
   23SAPC  H12B 2972   1.048   0.997  10.891  0.4569 -0.2981 -0.0397
   23SAPC   C13 2973   1.052   0.781  11.091  0.0456  0.4756  0.4641
   23SAPC  H13A 2974   1.100   0.747  11.181 -0.9779 -3.4563 -0.2631
   23SAPC  H13B 2975   0.990   0.861  11.129  3.1015  2.9835  0.5619
   23SAPC  H13C 2976   0.991   0.704  11.046  0.8464 -0.5583  1.1087
   23SAPC   C14 2977   1.242   0.737  10.961  0.0368 -0.2680  0.1710
   23SAPC  H14A 2978   1.338   0.775  10.931  0.6689 -0.9243  1.2772
   23SAPC  H14B 2979   1.266   0.671  11.044  0.4712 -2.3081 -1.4903
   23SAPC  H14C 2980   1.194   0.666  10.895 -0.0224 -0.7989  0.7721
   23SAPC   C15 2981   1.226   0.949  11.057 -1.0826 -0.0391  0.0232
   23SAPC  H15A 2982   1.280   0.922  11.147  1.0751  0.8402 -0.9447
   23SAPC  H15B 2983   1.300   0.986  10.988  2.1736 -0.8912  2.7982
   23SAPC  H15C 2984   1.157   1.025  11.091 -2.6479 -1.5474  0.4012
   23SAPC   C11 2985   0.976   0.817  10.811 -0.3541  0.2715  0.2409
   23SAPC  H11A 2986   0.918   0.889  10.751 -0.5453  0.7911  1.0264
   23SAPC  H11B 2987   0.913   0.772  10.891  0.3482  0.6656  1.0290
   23SAPC     P 2988   1.105   0.748  10.585  0.5035  0.2056  0.3123
   23SAPC   O13 2989   1.223   0.836  10.601  0.1877  0.2193  0.0199
   23SAPC   O14 2990   1.114   0.626  10.495 -0.5561 -0.4799 -0.2110
   23SAPC   O12 2991   1.044   0.718  10.728  0.2003 -0.3939 -0.4208
   23SAPC   O11 2992   0.986   0.838  10.528  0.1339  0.5832 -0.2444
   23SAPC    C1 2993   1.000   0.902  10.393  0.0671 -0.1620  0.0558
   23SAPC    HA 2994   1.104   0.885  10.359 -0.0996  1.4555 -1.3931
   23SAPC    HB 2995   0.937   0.841  10.325  2.5415 -0.7108 -1.8621
   23SAPC    C2 2996   0.955   1.049  10.383 -0.1513 -0.1869  0.2203
   23SAPC    HS 2997   0.860   1.060  10.439  0.5347 -0.5892  1.5005
   23SAPC   O21 2998   0.931   1.086  10.245 -0.0449  0.6060 -0.0151
   23SAPC   C21 2999   0.869   1.202  10.235 -0.3624  0.0127  0.4672
   23SAPC   O22 3000   0.821   1.273  10.327  0.1264 -0.5809  0.0610
   23SAPC   C22 3001   0.868   1.237  10.086  0.0109 -0.4838  0.5852
   23SAPC   H2R 3002   0.834   1.343  10.089 -0.8307 -0.6489 -1.5353
   23SAPC   H2S 3003   0.971   1.230  10.044 -0.1110 -2.6802  0.5168
   23SAPC    C3 3004   1.060   1.133  10.461  0.1726  0.0602  0.1212
   23SAPC    HX 3005   1.055   1.109  10.569 -2.3325  0.0659  0.0689
   23SAPC    HY 3006   1.028   1.239  10.463 -0.0282  0.0165 -0.5241
   23SAPC   O31 3007   1.189   1.115  10.410 -0.1382 -0.0651  0.4686
   23SAPC   C31 3008   1.226   1.199  10.315  0.7120  0.1253  0.0203
   23SAPC   O32 3009   1.172   1.301  10.281  0.7041  0.0313 -0.0215
   23SAPC   C32 3010   1.355   1.142  10.260 -0.0646 -0.2305  0.5365
   23SAPC   H2X 3011   1.425   1.084  10.325 -0.0711 -0.1128  0.6498
   23SAPC   H2Y 3012   1.426   1.221  10.227 -0.9796 -0.1031 -1.1990
   23SAPC   C23 3013   0.767   1.147  10.021 -0.0148  0.2212  0.0582
   23SAPC   H3R 3014   0.671   1.159  10.076  0.7379  0.0878  1.4653
   23SAPC   H3S 3015   0.799   1.041  10.032  3.3080  1.0517 -0.5200
   23SAPC   C24 3016   0.745   1.160   9.862 -0.4141  0.2575  0.4570
   23SAPC   H4R 3017   0.760   1.267   9.838 -2.3124  0.4585 -0.0585
   23SAPC   H4S 3018   0.636   1.138   9.853 -0.1477 -0.8937 -0.1825
   23SAPC   C25 3019   0.833   1.075   9.781  0.5391  0.1767 -1.0559
   23SAPC   H5R 3020   0.933   1.055   9.822  0.1014  1.6429  0.8215
   23SAPC   C26 3021   0.788   1.006   9.673 -0.9049  0.3997  0.3383
   23SAPC   H6R 3022   0.846   0.929   9.620 -1.6887 -0.4616  0.7055
   23SAPC   C27 3023   0.659   1.029   9.606  0.2232  0.1284  0.1233
   23SAPC   H7R 3024   0.574   1.015   9.676  0.7828 -0.4386  0.7061
   23SAPC   H7S 3025   0.657   0.932   9.552 -1.3386 -1.0799  2.2095
   23SAPC   C28 3026   0.654   1.141   9.515 -0.3753 -0.0035  0.1729
   23SAPC   H8R 3027   0.631   1.239   9.558  2.0395  0.3105  0.9308
   23SAPC   C29 3028   0.660   1.143   9.380  1.4408  0.8216 -0.0152
   23SAPC   H9R 3029   0.647   1.238   9.325 -2.2664 -0.1457 -1.1019
   23SAPC  C210 3030   0.682   1.017   9.299  0.2520  0.6128 -0.2947
   23SAPC  H10R 3031   0.588   0.957   9.298  1.1817 -0.8905 -0.0060
   23SAPC  H10S 3032   0.768   0.964   9.344 -0.0351  2.1231  2.2673
   23SAPC  C211 3033   0.716   1.059   9.152 -0.4172 -0.2455  0.0409
   23SAPC  H11R 3034   0.696   1.164   9.125 -0.0894  0.0323  0.8777
   23SAPC  C212 3035   0.752   0.974   9.048  0.1086 -0.2374 -0.9298
   23SAPC  H12R 3036   0.744   1.019   8.948 -1.4631 -0.4842 -0.9468
   23SAPC  C213 3037   0.776   0.824   9.064  0.0144 -0.0936 -0.0246
   23SAPC  H13R 3038   0.703   0.762   9.007  2.5750 -1.4128 -2.1018
   23SAPC  H13S 3039   0.768   0.791   9.170  0.8877 -0.3198 -0.0182
   23SAPC  C214 3040   0.913   0.786   9.002 -0.8685  0.5947  0.3179
   23SAPC  H14R 3041   0.992   0.846   9.050 -1.7396  0.9225  1.3883
   23SAPC  C215 3042   0.943   0.707   8.891 -0.1970  0.2211 -0.0532
   23SAPC  H15R 3043   1.049   0.700   8.859 -0.5955 -2.3436 -1.0802
   23SAPC  C216 3044   0.828   0.640   8.811 -0.7885 -0.5175  0.3044
   23SAPC  H16R 3045   0.740   0.707   8.807 -1.5527 -1.4467  0.8995
   23SAPC  H16S 3046   0.790   0.546   8.857  0.1578 -0.0566  2.1128
   23SAPC  C217 3047   0.865   0.597   8.665 -0.4505 -0.2898  0.3250
   23SAPC  H17R 3048   0.911   0.685   8.615  0.1793 -0.7623  0.0558
   23SAPC  H17S 3049   0.768   0.577   8.614  0.9996 -1.9380 -1.9461
   23SAPC  C218 3050   0.969   0.483   8.659  0.8333 -0.0100  0.4328
   23SAPC  H18R 3051   1.069   0.514   8.695  1.3393 -0.4341 -0.5546
   23SAPC  H18S 3052   0.979   0.447   8.554  0.0896 -0.2738  0.4422
   23SAPC  C219 3053   0.935   0.357   8.740 -0.6882 -0.1233 -0.9057
   23SAPC  H19R 3054   0.950   0.392   8.845 -0.7087 -0.1824 -0.8832
   23SAPC  H19S 3055   1.014   0.279   8.733 -1.5452 -1.2605  1.0907
   23SAPC  C220 3056   0.796   0.304   8.721 -0.1340  0.8302 -0.0586
   23SAPC  H20R 3057   0.790   0.249   8.624 -2.2939 -0.0706  0.5401
   23SAPC  H20S 3058   0.720   0.384   8.708 -2.1655 -0.8493  0.8839
   23SAPC  H20T 3059   0.762   0.235   8.801  1.8215  0.4327  0.4770
   23SAPC   C33 3060   1.320   1.067  10.132  0.1840 -0.1208  0.0048
   23SAPC   H3X 3061   1.230   1.002  10.140 -1.1522  1.2833 -2.4504
   23SAPC   H3Y 3062   1.410   1.007  10.106 -0.7179 -1.2900 -0.5411
   23SAPC   C34 3063   1.298   1.159  10.008 -0.7150  0.7261 -0.7155
   23SAPC   H4X 3064   1.395   1.213  10.001 -0.1067 -0.1856  0.2256
   23SAPC   H4Y 3065   1.216   1.229  10.033 -1.8256 -0.5136 -0.7844
   23SAPC   C35 3066   1.280   1.080   9.882  0.0239  0.8030  0.0733
   23SAPC   H5X 3067   1.202   1.001   9.889  1.5295 -0.9051 -1.3457
   23SAPC   H5Y 3068   1.376   1.031   9.854 -1.5369 -2.1886 -0.5218
   23SAPC   C36 3069   1.247   1.169   9.755  0.0914  0.4784 -0.2962
   23SAPC   H6X 3070   1.343   1.218   9.729  0.3592  0.5205  0.7350
   23SAPC   H6Y 3071   1.173   1.244   9.791 -0.4806 -0.6817  1.0760
   23SAPC   C37 3072   1.201   1.090   9.632  0.2596 -0.6228  0.0900
   23SAPC   H7X 3073   1.112   1.030   9.660  1.0224 -0.6578  2.7374
   23SAPC   H7Y 3074   1.286   1.022   9.610  0.7814 -0.0415  0.2504
   23SAPC   C38 3075   1.178   1.176   9.506 -0.1593  0.0037 -0.4335
   23SAPC   H8X 3076   1.267   1.242   9.492  0.9298 -1.5245 -1.0909
   23SAPC   H8Y 3077   1.086   1.238   9.506 -1.4050 -1.7628 -1.1038
   23SAPC   C39 3078   1.174   1.096   9.375  0.0384  0.2435  0.2089
   23SAPC   H9X 3079   1.090   1.023   9.384  0.5239 -0.1501  1.9672
   23SAPC   H9Y 3080   1.271   1.044   9.368 -0.5604 -0.9763  0.7025
   23SAPC  C310 3081   1.164   1.181   9.246  0.4899  0.1678 -0.2534
   23SAPC  H10X 3082   1.263   1.228   9.223  0.6424 -0.4084 -0.7920
   23SAPC  H10Y 3083   1.089   1.262   9.256  1.3624  1.0611 -0.7191
   23SAPC  C311 3084   1.143   1.092   9.120 -0.5924  0.5318  0.4930
   23SAPC  H11X 3085   1.052   1.028   9.126  0.2816 -1.0185 -1.5697
   23SAPC  H11Y 3086   1.226   1.019   9.127 -2.1017 -1.4016 -0.5343
   23SAPC  C312 3087   1.135   1.161   8.986  0.2312 -1.0294  0.5278
   23SAPC  H12X 3088   1.051   1.233   8.980  0.5822 -0.6373  0.3284
   23SAPC  H12Y 3089   1.122   1.088   8.903  1.4930 -1.7627  0.9456
   23SAPC  C313 3090   1.260   1.244   8.950 -0.4779  0.3021  0.5621
   23SAPC  H13X 3091   1.348   1.184   8.982 -1.3931 -1.0707  0.6260
   23SAPC  H13Y 3092   1.247   1.347   8.988  1.3685  0.3940  1.0289
   23SAPC  C314 3093   1.259   1.264   8.795 -0.6905  0.3007  0.7972
   23SAPC  H14X 3094   1.158   1.297   8.762 -0.5575  0.7444  0.8271
   23SAPC  H14Y 3095   1.258   1.165   8.744 -2.5310 -0.1261  1.5775
   23SAPC  C315 3096   1.367   1.358   8.740 -0.5344 -0.7105  0.4486
   23SAPC  H15X 3097   1.470   1.339   8.777  0.8812 -1.5083 -3.4769
   23SAPC  H15Y 3098   1.345   1.463   8.771  0.6518 -0.8135  1.7123
   23SAPC  C316 3099   1.370   1.357   8.583 -0.2616  0.3670 -0.4066
   23SAPC  H16X 3100   1.270   1.383   8.542 -0.6129 -2.9697 -1.9826
   23SAPC  H16Y 3101   1.404   1.260   8.542  0.6374 -0.6264  2.4487
   23SAPC  C317 3102   1.484   1.452   8.544  0.2826  0.1694 -0.0865
   23SAPC  H17X 3103   1.580   1.396   8.548  1.8420  2.6981  0.4143
   23SAPC  H17Y 3104   1.492   1.540   8.612 -0.1628  0.5865 -0.5654
   23SAPC  C318 3105   1.483   1.509   8.404 -0.2791  0.0694  0.0876
   23SAPC  H18X 3106   1.482   1.421   8.337 -1.1288 -0.0132  0.2033
   23SAPC  H18Y 3107   1.567   1.577   8.379 -2.1772  2.5406  0.0288
   23SAPC  H18Z 3108   1.393   1.569   8.377  1.5678  2.9371 -0.1458
   24SAPC     N 3109   2.137   2.238  11.128 -0.4625  0.9101  0.0209
   24SAPC   C12 3110   2.148   2.094  11.183  0.4077  0.1855 -0.5350
   24SAPC  H12A 3111   2.070   2.042  11.128 -0.5403  0.5279  0.4514
   24SAPC  H12B 3112   2.105   2.090  11.282  0.2940 -1.0698 -0.6223
   24SAPC   C13 3113   2.238   2.324  11.197 -0.5026  0.5186 -0.4008
   24SAPC  H13A 3114   2.255   2.416  11.143 -1.3615  0.3972 -0.8931
   24SAPC  H13B 3115   2.221   2.349  11.300  1.4601 -0.0616  0.1113
   24SAPC  H13C 3116   2.330   2.267  11.189 -0.3878  0.9313 -3.1935
   24SAPC   C14 3117   2.165   2.232  10.987 -0.6292 -0.2370  0.3092
   24SAPC  H14A 3118   2.179   2.333  10.952  0.2195 -0.3483  0.2973
   24SAPC  H14B 3119   2.251   2.171  10.964  1.2780  2.2696  0.4378
   24SAPC  H14C 3120   2.078   2.194  10.936 -0.4296  0.2519 -0.4152
   24SAPC   C15 3121   2.006   2.291  11.141 -0.5337  0.3749 -0.2004
   24SAPC  H15A 3122   1.933   2.235  11.086 -1.4091  1.0269  0.2714
   24SAPC  H15B 3123   1.978   2.293  11.246 -0.0329  1.3293 -0.0675
   24SAPC  H15C 3124   1.992   2.390  11.101  0.6859  0.1098 -1.3403
   24SAPC   C11 3125   2.277   2.019  11.188 -0.0543  0.3730  0.5341
   24SAPC  H11A 3126   2.250   1.924  11.239 -1.4347 -0.1074 -1.0003
   24SAPC  H11B 3127   2.348   2.075  11.251 -1.7190  3.5276 -0.1886
   24SAPC     P 3128   2.470   1.928  11.037  0.3166 -0.0941  0.0555
   24SAPC   O13 3129   2.574   2.021  11.088  0.2610  0.1348  0.0800
   24SAPC   O14 3130   2.468   1.787  11.096 -0.5338  0.1910  0.4480
   24SAPC   O12 3131   2.326   1.997  11.056 -0.1245 -0.6771 -0.6403
   24SAPC   O11 3132   2.487   1.924  10.884 -0.1771  0.2680  0.0517
   24SAPC    C1 3133   2.461   2.038  10.801  0.4133  0.0221 -0.0084
   24SAPC    HA 3134   2.362   2.032  10.750  1.0642 -2.4811 -1.1862
   24SAPC    HB 3135   2.467   2.134  10.855 -0.8415 -0.5203  1.1522
   24SAPC    C2 3136   2.564   2.033  10.684 -0.6413  0.1579 -0.6285
   24SAPC    HS 3137   2.549   2.124  10.622 -0.2070 -1.5175 -3.3918
   24SAPC   O21 3138   2.569   1.916  10.600 -0.4439 -0.0088 -0.2264
   24SAPC   C21 3139   2.456   1.902  10.531  0.1922 -1.0621 -0.0403
   24SAPC   O22 3140   2.361   1.982  10.525 -0.1081  0.8955 -0.1915
   24SAPC   C22 3141   2.480   1.789  10.437  0.2800  0.8905  0.9276
   24SAPC   H2R 3142   2.581   1.744  10.454 -0.2324 -1.1397 -0.9113
   24SAPC   H2S 3143   2.406   1.712  10.468 -0.9479  2.0025  0.8128
   24SAPC    C3 3144   2.709   2.056  10.740  0.2762 -0.0441  0.1585
   24SAPC    HX 3145   2.740   1.969  10.801 -2.7716 -1.8439 -0.6864
   24SAPC    HY 3146   2.699   2.133  10.820  5.0155 -0.6757  1.6804
   24SAPC   O31 3147   2.809   2.113  10.643  0.1957 -0.8082 -0.3387
   24SAPC   C31 3148   2.891   2.026  10.592  0.1832 -0.1712  0.7780
   24SAPC   O32 3149   2.889   1.902  10.613  0.6463 -0.3608  0.0968
   24SAPC   C32 3150   2.985   2.090  10.493  0.7043 -0.0816  0.5302
   24SAPC   H2X 3151   3.089   2.108  10.529  1.2950 -0.2293 -1.0221
   24SAPC   H2Y 3152   2.950   2.193  10.469  0.5599  0.0022  1.0737
   24SAPC   C23 3153   2.456   1.839  10.295 -0.1218 -0.1061  0.4580
   24SAPC   H3R 3154   2.532   1.919  10.282 -1.0053  0.9679  1.6050
   24SAPC   H3S 3155   2.355   1.880  10.270 -1.3334 -2.3389  1.4094
   24SAPC   C24 3156   2.476   1.722  10.195  0.4599  0.2803 -0.2714
   24SAPC   H4R 3157   2.571   1.676  10.231  0.0142  1.1062  2.1300
   24SAPC   H4S 3158   2.489   1.781  10.101 -1.5547  0.0737 -0.7224
   24SAPC   C25 3159   2.364   1.629  10.184  0.5811  0.5071 -0.7283
   24SAPC   H5R 3160   2.340   1.596  10.286 -2.7605  3.2665 -0.4241
   24SAPC   C26 3161   2.285   1.596  10.084 -0.2824  0.3519 -0.6539
   24SAPC   H6R 3162   2.211   1.516  10.099 -0.1325  0.4098  0.5083
   24SAPC   C27 3163   2.304   1.624   9.936  0.2481 -0.2847  0.2130
   24SAPC   H7R 3164   2.371   1.709   9.912 -1.2268  0.2621 -2.4017
   24SAPC   H7S 3165   2.208   1.648   9.886  0.5579  0.7908  0.1027
   24SAPC   C28 3166   2.357   1.508   9.861  0.7618 -0.2608  0.3943
   24SAPC   H8R 3167   2.363   1.411   9.913 -0.0892 -1.1901 -1.1590
   24SAPC   C29 3168   2.388   1.504   9.731 -0.2774  0.1782 -0.4328
   24SAPC   H9R 3169   2.429   1.411   9.688  3.4391  1.2172  0.4823
   24SAPC  C210 3170   2.368   1.620   9.630  0.1881 -0.2933 -0.2262
   24SAPC  H10R 3171   2.464   1.642   9.579 -0.8885  0.2895 -2.1229
   24SAPC  H10S 3172   2.336   1.711   9.686  1.8623 -0.1437  0.5523
   24SAPC  C211 3173   2.253   1.579   9.533 -0.0314 -0.2623  0.9351
   24SAPC  H11R 3174   2.167   1.523   9.574 -0.6641 -1.0776 -1.3294
   24SAPC  C212 3175   2.265   1.606   9.398 -0.3427 -0.1609 -1.4125
   24SAPC  H12R 3176   2.190   1.576   9.324  0.0040 -0.9215 -1.4651
   24SAPC  C213 3177   2.381   1.675   9.325 -0.7831 -0.2780  0.5598
   24SAPC  H13R 3178   2.403   1.635   9.224  2.0301 -0.3570  1.1122
   24SAPC  H13S 3179   2.479   1.657   9.375  0.3118  1.3563 -0.9158
   24SAPC  C214 3180   2.358   1.824   9.340 -0.0405 -0.5388  0.0680
   24SAPC  H14R 3181   2.331   1.859   9.441 -2.1333 -0.1574 -0.5753
   24SAPC  C215 3182   2.377   1.909   9.235  0.1499 -0.3521  0.4513
   24SAPC  H15R 3183   2.352   2.015   9.250 -1.9803 -0.6287 -0.7732
   24SAPC  C216 3184   2.431   1.869   9.096  0.6121  0.3651 -1.4935
   24SAPC  H16R 3185   2.348   1.858   9.023  1.0331  0.1052 -1.9408
   24SAPC  H16S 3186   2.488   1.774   9.085 -0.5395 -0.5777  0.2967
   24SAPC  C217 3187   2.523   1.987   9.051 -0.7074  0.1071 -0.6718
   24SAPC  H17R 3188   2.606   1.982   9.124 -0.2192 -0.1443 -1.2389
   24SAPC  H17S 3189   2.470   2.084   9.063 -0.0657  0.8226 -3.1071
   24SAPC  C218 3190   2.573   1.971   8.912  0.5220 -0.2456  0.1607
   24SAPC  H18R 3191   2.644   2.055   8.899  0.7377 -0.2341  1.3251
   24SAPC  H18S 3192   2.484   1.978   8.845 -1.4202  1.9484  2.7801
   24SAPC  C219 3193   2.656   1.850   8.894 -1.1093 -0.5139  0.2738
   24SAPC  H19R 3194   2.597   1.759   8.921  0.2401 -0.7299  2.7578
   24SAPC  H19S 3195   2.736   1.847   8.970 -1.8148 -2.1167  1.0129
   24SAPC  C220 3196   2.726   1.831   8.759  0.1434 -0.2588  0.5921
   24SAPC  H20R 3197   2.782   1.919   8.721 -0.6313 -0.4455 -1.0577
   24SAPC  H20S 3198   2.658   1.797   8.679  1.0351 -0.5832 -0.0401
   24SAPC  H20T 3199   2.805   1.754   8.774 -0.4793 -0.5835  2.4823
   24SAPC   C33 3200   3.000   1.991  10.366  0.5756  0.0884 -0.2417
   24SAPC   H3X 3201   3.029   1.891  10.404  0.3665  0.4032  0.7719
   24SAPC   H3Y 3202   3.085   2.034  10.309  2.4332  0.3393  2.5184
   24SAPC   C34 3203   2.865   1.976  10.284  0.5182 -0.3850  0.4872
   24SAPC   H4X 3204   2.839   2.070  10.231  1.0439 -1.9328 -2.7002
   24SAPC   H4Y 3205   2.784   1.931  10.345  1.9213 -3.9378 -0.0242
   24SAPC   C35 3206   2.869   1.871  10.170  0.0778  0.5971 -0.3148
   24SAPC   H5X 3207   2.765   1.839  10.146  0.7389 -2.8341  0.7666
   24SAPC   H5Y 3208   2.912   1.772  10.200 -1.3784  0.1888  0.5333
   24SAPC   C36 3209   2.945   1.929  10.047  0.7160 -0.2895 -0.0147
   24SAPC   H6X 3210   3.048   1.947  10.084  0.1683 -0.0408  1.4378
   24SAPC   H6Y 3211   2.897   2.026  10.020 -0.2865 -1.8533 -5.0138
   24SAPC   C37 3212   2.947   1.845   9.925  0.2549 -0.0353 -0.5301
   24SAPC   H7X 3213   2.851   1.802   9.892  0.5202  0.7043 -2.4109
   24SAPC   H7Y 3214   2.995   1.746   9.940 -1.3743 -0.7341  0.2031
   24SAPC   C38 3215   3.025   1.902   9.808  0.0355  0.0625  0.3612
   24SAPC   H8X 3216   3.127   1.929   9.842 -0.6956 -0.3166  3.0458
   24SAPC   H8Y 3217   2.985   1.998   9.770 -0.0958  0.3723  1.2689
   24SAPC   C39 3218   3.025   1.808   9.686  0.0508  0.7667 -0.1321
   24SAPC   H9X 3219   3.079   1.719   9.723  1.5538  1.8858  0.4851
   24SAPC   H9Y 3220   3.099   1.842   9.610  0.2091 -1.0372 -0.8352
   24SAPC  C310 3221   2.891   1.766   9.623  0.1991 -0.3036 -0.8836
   24SAPC  H10X 3222   2.846   1.862   9.589 -2.3973 -1.1420 -0.0821
   24SAPC  H10Y 3223   2.828   1.719   9.701  1.4593 -0.6838 -0.0623
   24SAPC  C311 3224   2.916   1.670   9.511  0.3323 -0.1805  0.1511
   24SAPC  H11X 3225   2.966   1.581   9.555  1.6128  1.1018  1.3911
   24SAPC  H11Y 3226   2.981   1.714   9.432 -2.0582  2.0369 -0.6963
   24SAPC  C312 3227   2.792   1.633   9.434  0.2459  1.0967  0.0173
   24SAPC  H12X 3228   2.731   1.724   9.416 -0.9351  0.0210 -1.7699
   24SAPC  H12Y 3229   2.729   1.564   9.494 -0.6480  2.1677  0.3537
   24SAPC  C313 3230   2.827   1.569   9.303 -0.2894 -0.5809  0.3257
   24SAPC  H13X 3231   2.904   1.489   9.311  1.2598  0.8942  0.8611
   24SAPC  H13Y 3232   2.877   1.653   9.250 -1.4899  0.5143  0.8789
   24SAPC  C314 3233   2.703   1.518   9.225  0.6029  0.3241 -0.7768
   24SAPC  H14X 3234   2.632   1.603   9.213  1.5884  1.1221 -1.1383
   24SAPC  H14Y 3235   2.646   1.440   9.280 -0.4352  2.2615  1.0590
   24SAPC  C315 3236   2.747   1.472   9.086 -0.3787  0.0320  0.2693
   24SAPC  H15X 3237   2.813   1.384   9.084  0.4297  0.6166  0.6420
   24SAPC  H15Y 3238   2.797   1.560   9.040  0.1829 -1.6362 -2.5010
   24SAPC  C316 3239   2.623   1.446   9.005  0.0752  0.4367 -0.4416
   24SAPC  H16X 3240   2.536   1.513   9.026  0.3141  0.2104  1.4387
   24SAPC  H16Y 3241   2.593   1.342   9.031  4.1944 -0.4015  1.6977
   24SAPC  C317 3242   2.649   1.446   8.856  0.2474 -0.2290 -0.2084
   24SAPC  H17X 3243   2.676   1.549   8.823 -0.3414  1.5458  4.1261
   24SAPC  H17Y 3244   2.562   1.418   8.793 -0.7816  1.3749  0.4133
   24SAPC  C318 3245   2.762   1.357   8.822  0.2661 -0.1711 -0.1642
   24SAPC  H18X 3246   2.858   1.378   8.876 -0.5882 -0.4115  1.5160
   24SAPC  H18Y 3247   2.776   1.350   8.712 -0.4265  1.1191 -0.3604
   24SAPC  H18Z 3248   2.734   1.254   8.851 -0.0528  0.5115  2.2104
   25SAPC     N 3249   0.052   5.800   6.049  0.4606  0.2678 -0.0052
   25SAPC   C12 3250   0.153   5.906   6.039 -0.8944 -0.3381  0.1265
   25SAPC  H12A 3251   0.108   5.989   5.986 -0.4330  1.3887  2.3028
   25SAPC  H12B 3252   0.223   5.868   5.966  1.4043  1.6995  1.1593
   25SAPC   C13 3253   0.030   5.742   5.912 -0.3724 -0.3991 -0.1061
   25SAPC  H13A 3254  -0.022   5.800   5.837 -0.5048 -1.8823 -1.1900
   25SAPC  H13B 3255   0.125   5.723   5.865 -0.9914  1.0398 -2.0489
   25SAPC  H13C 3256  -0.029   5.652   5.914  0.1714 -0.7557  0.5088
   25SAPC   C14 3257   0.086   5.684   6.141  0.7673  0.2790 -0.1992
   25SAPC  H14A 3258   0.165   5.625   6.097  1.2847 -0.2417  1.3544
   25SAPC  H14B 3259   0.118   5.721   6.238 -1.7198 -1.2112  1.2982
   25SAPC  H14C 3260  -0.003   5.628   6.164  0.0105  1.8785  0.9780
   25SAPC   C15 3261  -0.078   5.857   6.107  0.0810  0.2323  0.1886
   25SAPC  H15A 3262  -0.122   5.929   6.040 -1.2677  1.4101  2.2661
   25SAPC  H15B 3263  -0.145   5.772   6.115 -0.5072  0.6966  0.2445
   25SAPC  H15C 3264  -0.063   5.894   6.207 -0.4905  2.2021 -0.4182
   25SAPC   C11 3265   0.238   5.948   6.162  0.6249  0.1187  0.2436
   25SAPC  H11A 3266   0.299   6.029   6.117 -0.2751  0.6019 -0.1290
   25SAPC  H11B 3267   0.299   5.862   6.196  1.1204  0.2542 -0.2980
   25SAPC     P 3268   0.103   6.139   6.282  0.3240 -0.1460 -0.4443
   25SAPC   O13 3269   0.157   6.230   6.175 -0.7019  0.2252 -0.4108
   25SAPC   O14 3270  -0.035   6.153   6.324 -0.0558  0.0349  0.0547
   25SAPC   O12 3271   0.138   5.983   6.260  0.0750 -0.0650 -0.0528
   25SAPC   O11 3272   0.200   6.175   6.408  0.5002 -0.2240 -0.1505
   25SAPC    C1 3273   0.202   6.319   6.443 -0.1273 -0.5579  0.3165
   25SAPC    HA 3274   0.306   6.357   6.431  0.8712 -3.5311 -1.6126
   25SAPC    HB 3275   0.127   6.384   6.394 -0.5012  0.9895  2.7385
   25SAPC    C2 3276   0.171   6.342   6.593 -0.4255  0.5402  0.1137
   25SAPC    HS 3277   0.204   6.446   6.617 -1.1316  1.0217 -0.9150
   25SAPC   O21 3278   0.247   6.247   6.680  0.2141  0.6187  0.3231
   25SAPC   C21 3279   0.377   6.291   6.697  0.9075  0.4370  0.0266
   25SAPC   O22 3280   0.425   6.389   6.637 -0.1119 -0.2915  0.2444
   25SAPC   C22 3281   0.457   6.204   6.794  0.7965 -0.6941  0.3007
   25SAPC   H2R 3282   0.393   6.149   6.866 -2.4674  1.9777 -0.3284
   25SAPC   H2S 3283   0.487   6.126   6.721 -0.5369  0.6630 -1.8152
   25SAPC    C3 3284   0.014   6.322   6.616 -0.3998  0.4038 -0.0352
   25SAPC    HX 3285  -0.020   6.220   6.589 -0.4603 -0.7790  3.8538
   25SAPC    HY 3286  -0.038   6.400   6.557  0.7152  1.1533 -0.0706
   25SAPC   O31 3287  -0.016   6.352   6.752  0.3829 -0.2134 -0.3135
   25SAPC   C31 3288  -0.030   6.247   6.828  0.2400 -0.3373 -0.2039
   25SAPC   O32 3289  -0.043   6.128   6.793 -0.3546  0.1054  0.7276
   25SAPC   C32 3290  -0.034   6.277   6.982 -0.4060  0.2962 -0.9006
   25SAPC   H2X 3291  -0.053   6.386   6.995 -1.5946 -0.0524  0.4768
   25SAPC   H2Y 3292   0.067   6.253   7.024  0.2019  0.1667 -2.3896
   25SAPC   C23 3293   0.567   6.270   6.886 -0.9026 -0.3516 -0.0619
   25SAPC   H3R 3294   0.629   6.350   6.840  1.6687 -0.7296  2.4793
   25SAPC   H3S 3295   0.623   6.181   6.921 -0.4560 -0.1048 -0.1401
   25SAPC   C24 3296   0.502   6.325   7.020 -0.0771  0.1415  0.1907
   25SAPC   H4R 3297   0.588   6.371   7.074 -0.1998 -3.6596  4.2155
   25SAPC   H4S 3298   0.457   6.242   7.080 -0.1984  0.0303 -0.0532
   25SAPC   C25 3299   0.398   6.430   7.002  0.1618 -0.3169 -0.0405
   25SAPC   H5R 3300   0.392   6.485   6.907  1.0133 -0.3697 -0.1320
   25SAPC   C26 3301   0.283   6.444   7.078  0.1382  0.5456  0.0441
   25SAPC   H6R 3302   0.227   6.537   7.059 -0.5838 -0.4247 -3.1966
   25SAPC   C27 3303   0.244   6.375   7.209  0.2082  0.1769 -0.0514
   25SAPC   H7R 3304   0.257   6.265   7.198  1.3932  0.0532  2.0956
   25SAPC   H7S 3305   0.137   6.398   7.227  0.2342  1.3162 -1.1657
   25SAPC   C28 3306   0.320   6.419   7.334  0.0811 -0.4393 -0.5383
   25SAPC   H8R 3307   0.417   6.460   7.301  0.0758  0.1957  0.2128
   25SAPC   C29 3308   0.278   6.446   7.461  0.2114  0.5781 -0.3949
   25SAPC   H9R 3309   0.358   6.470   7.533  0.2738 -1.6904  0.3712
   25SAPC  C210 3310   0.133   6.433   7.510  0.3448  0.1994 -0.2050
   25SAPC  H10R 3311   0.068   6.408   7.423  2.9466 -0.0012 -2.2179
   25SAPC  H10S 3312   0.097   6.532   7.543 -0.0359 -0.4570  1.4669
   25SAPC  C211 3313   0.121   6.332   7.619  0.5444  0.4076  0.0526
   25SAPC  H11R 3314   0.097   6.228   7.592 -0.1966 -0.2881  3.0443
   25SAPC  C212 3315   0.157   6.350   7.750  0.8419 -0.5234 -0.3389
   25SAPC  H12R 3316   0.135   6.271   7.823 -1.5226 -0.5468 -1.0101
   25SAPC  C213 3317   0.197   6.489   7.808 -0.4257  0.5551 -0.1053
   25SAPC  H13R 3318   0.155   6.500   7.910  3.9107  0.4371  1.9514
   25SAPC  H13S 3319   0.156   6.576   7.755 -1.8501 -1.7732 -3.1269
   25SAPC  C214 3320   0.342   6.505   7.819 -0.1558 -0.0272 -0.6133
   25SAPC  H14R 3321   0.399   6.555   7.740  1.8620 -1.5005 -0.1648
   25SAPC  C215 3322   0.414   6.460   7.924 -0.3621  0.5939 -0.1626
   25SAPC  H15R 3323   0.522   6.481   7.925 -0.1665 -0.2567 -0.9432
   25SAPC  C216 3324   0.357   6.390   8.048  0.1892 -0.0225  0.5323
   25SAPC  H16R 3325   0.444   6.340   8.097 -1.0214 -1.4555  1.2931
   25SAPC  H16S 3326   0.273   6.321   8.030  0.4293 -0.9718  2.7053
   25SAPC  C217 3327   0.297   6.490   8.156  0.0116  0.3618 -0.0092
   25SAPC  H17R 3328   0.258   6.415   8.228  1.4950 -1.2328 -0.8114
   25SAPC  H17S 3329   0.217   6.552   8.110  0.5225  0.0638 -1.3350
   25SAPC  C218 3330   0.397   6.591   8.215 -0.0956 -0.2273 -0.3344
   25SAPC  H18R 3331   0.340   6.675   8.261  0.7520  1.7044 -2.6398
   25SAPC  H18S 3332   0.457   6.639   8.136  0.2056  0.2060  0.1489
   25SAPC  C219 3333   0.496   6.526   8.310 -0.0879 -0.1166  0.3935
   25SAPC  H19R 3334   0.562   6.459   8.251  0.0993  0.1727  0.2689
   25SAPC  H19S 3335   0.435   6.461   8.376 -0.1788 -1.5382 -1.0389
   25SAPC  C220 3336   0.567   6.626   8.397  0.0225 -0.1008  0.1833
   25SAPC  H20R 3337   0.504   6.715   8.417  1.0941  1.1689 -1.7266
   25SAPC  H20S 3338   0.660   6.667   8.353 -0.8849 -0.4338 -2.2337
   25SAPC  H20T 3339   0.576   6.577   8.496  0.2063  1.7983  1.1480
   25SAPC   C33 3340  -0.142   6.204   7.060  0.5781 -0.2923 -0.0442
   25SAPC   H3X 3341  -0.106   6.099   7.054  0.8857 -0.3207  1.7756
   25SAPC   H3Y 3342  -0.241   6.211   7.009  1.0467 -1.6806 -1.2043
   25SAPC   C34 3343  -0.148   6.240   7.211  0.0302  0.2095 -0.6180
   25SAPC   H4X 3344  -0.047   6.255   7.254  0.3286 -3.6890  0.4066
   25SAPC   H4Y 3345  -0.180   6.146   7.261  1.9650 -0.3080 -0.2946
   25SAPC   C35 3346  -0.248   6.354   7.238 -0.6700  0.6385 -0.3749
   25SAPC   H5X 3347  -0.350   6.320   7.211 -1.2147 -0.6105  2.8374
   25SAPC   H5Y 3348  -0.213   6.436   7.171  1.8449 -0.1280 -0.1130
   25SAPC   C36 3349  -0.247   6.398   7.378 -0.4947 -0.1684 -0.3421
   25SAPC   H6X 3350  -0.302   6.494   7.385 -1.6374 -0.9068  1.5480
   25SAPC   H6Y 3351  -0.143   6.433   7.393  1.1205 -2.7567 -4.0820
   25SAPC   C37 3352  -0.291   6.307   7.493 -0.8793 -0.4826 -0.4759
   25SAPC   H7X 3353  -0.235   6.211   7.491  0.3766  0.2054  0.1194
   25SAPC   H7Y 3354  -0.400   6.294   7.477 -1.0432  0.0458  0.1616
   25SAPC   C38 3355  -0.255   6.379   7.628  0.0505  0.0222 -0.6777
   25SAPC   H8X 3356  -0.306   6.477   7.630  0.8737  0.4955 -1.6579
   25SAPC   H8Y 3357  -0.150   6.415   7.624 -0.5977  1.9811 -0.7658
   25SAPC   C39 3358  -0.270   6.284   7.748  0.3212 -0.0387 -0.0077
   25SAPC   H9X 3359  -0.212   6.193   7.722  0.4197  0.5085 -1.8141
   25SAPC   H9Y 3360  -0.373   6.242   7.755 -0.6020  2.3163  1.7264
   25SAPC  C310 3361  -0.219   6.348   7.879  0.0848  0.1951  0.4341
   25SAPC  H10X 3362  -0.111   6.362   7.855 -0.2091  0.6872 -0.6065
   25SAPC  H10Y 3363  -0.239   6.278   7.964  3.4125  0.0586  1.2558
   25SAPC  C311 3364  -0.282   6.484   7.897  0.3806  0.0987  0.1433
   25SAPC  H11X 3365  -0.390   6.466   7.881  0.4461  0.2408 -0.4654
   25SAPC  H11Y 3366  -0.237   6.560   7.829  0.0800  0.5963  0.4875
   25SAPC  C312 3367  -0.264   6.545   8.040  0.4697 -0.6390  0.2289
   25SAPC  H12X 3368  -0.320   6.639   8.056 -1.3460 -1.5548 -0.5127
   25SAPC  H12Y 3369  -0.155   6.566   8.049  0.4409  0.0113 -0.8787
   25SAPC  C313 3370  -0.307   6.459   8.161  0.3366 -0.6912  0.2632
   25SAPC  H13X 3371  -0.231   6.377   8.167 -0.4543 -1.3838  0.9756
   25SAPC  H13Y 3372  -0.404   6.427   8.118  0.1848  1.8279 -1.5141
   25SAPC  C314 3373  -0.304   6.534   8.298  0.2188 -0.8268  0.3358
   25SAPC  H14X 3374  -0.357   6.486   8.383 -0.8911 -0.7585 -0.2977
   25SAPC  H14Y 3375  -0.368   6.625   8.286 -2.4111 -2.6377 -0.1550
   25SAPC  C315 3376  -0.159   6.560   8.336  0.8471  0.1118 -0.0285
   25SAPC  H15X 3377  -0.108   6.588   8.241  0.3110  0.4881 -0.2069
   25SAPC  H15Y 3378  -0.127   6.464   8.380 -2.5509 -1.8276 -1.4122
   25SAPC  C316 3379  -0.148   6.686   8.424  0.2332  0.6502  0.1243
   25SAPC  H16X 3380  -0.182   6.653   8.525 -0.4186 -0.5061 -0.4562
   25SAPC  H16Y 3381  -0.209   6.772   8.392  1.8963  1.8456  0.0029
   25SAPC  C317 3382   0.001   6.736   8.422 -0.5865  0.0642  0.4117
   25SAPC  H17X 3383   0.033   6.783   8.327  2.6498  0.4889  1.5780
   25SAPC  H17Y 3384   0.073   6.655   8.445  1.1288  1.2614 -0.4688
   25SAPC  C318 3385   0.036   6.836   8.532  0.2509  0.6131  0.7383
   25SAPC  H18X 3386  -0.019   6.932   8.529 -0.7208  0.0465 -0.2397
   25SAPC  H18Y 3387   0.144   6.863   8.530  0.8287 -1.4603 -1.2109
   25SAPC  H18Z 3388   0.018   6.790   8.631 -2.7029 -0.4565 -0.1818
   26SAPC     N 3389   4.866   6.572   6.192 -0.0369  0.6382 -0.5684
   26SAPC   C12 3390   4.847   6.541   6.341 -0.2862 -0.4686 -0.4127
   26SAPC  H12A 3391   4.747   6.567   6.373 -1.5090 -1.5914 -3.0131
   26SAPC  H12B 3392   4.920   6.606   6.386  0.3666 -0.6030 -1.2586
   26SAPC   C13 3393   4.817   6.699   6.161 -0.6281 -0.2777 -0.1303
   26SAPC  H13A 3394   4.884   6.775   6.198  1.4978 -1.6458 -0.9654
   26SAPC  H13B 3395   4.834   6.708   6.055  1.0304  2.4447  0.2853
   26SAPC  H13C 3396   4.709   6.694   6.171 -0.6078 -0.0539  0.1905
   26SAPC   C14 3397   5.003   6.548   6.144 -0.2910 -0.3744  1.0289
   26SAPC  H14A 3398   5.063   6.629   6.182 -0.8523  0.7204 -0.3348
   26SAPC  H14B 3399   5.038   6.456   6.189 -1.7803 -0.5768  1.8209
   26SAPC  H14C 3400   5.006   6.536   6.036 -0.7523 -0.7399  1.0558
   26SAPC   C15 3401   4.786   6.462   6.121  0.9947 -0.4341 -0.6757
   26SAPC  H15A 3402   4.807   6.362   6.153  0.9667 -0.2534 -0.0743
   26SAPC  H15B 3403   4.686   6.478   6.158  1.0023  3.5825 -1.8827
   26SAPC  H15C 3404   4.770   6.468   6.014 -2.6514  0.7656 -0.2182
   26SAPC   C11 3405   4.874   6.400   6.389 -0.0209 -0.3957 -0.1072
   26SAPC  H11A 3406   4.804   6.327   6.343  1.4245 -1.2685 -1.0204
   26SAPC  H11B 3407   4.840   6.410   6.494 -1.2445 -0.0854 -0.5155
   26SAPC     P 3408   5.131   6.412   6.461  0.3839 -0.1181 -0.6588
   26SAPC   O13 3409   5.254   6.421   6.374  0.3837 -0.3205 -0.4669
   26SAPC   O14 3410   5.094   6.536   6.529 -0.4078 -0.2846  0.2895
   26SAPC   O12 3411   5.009   6.366   6.369 -0.3417 -0.0059 -0.7403
   26SAPC   O11 3412   5.150   6.296   6.559  0.6475 -0.2862 -0.3542
   26SAPC    C1 3413   5.042   6.210   6.591  0.0753 -0.6003 -0.3960
   26SAPC    HA 3414   4.966   6.197   6.512  0.6601  0.1269 -1.0899
   26SAPC    HB 3415   5.081   6.108   6.613  1.5972 -0.4417 -2.1246
   26SAPC    C2 3416   4.970   6.279   6.711  0.6057 -0.2172  0.5399
   26SAPC    HS 3417   4.926   6.376   6.681  2.2859  0.2943 -0.4462
   26SAPC   O21 3418   5.065   6.290   6.819  0.2365 -0.9138  0.1482
   26SAPC   C21 3419   5.061   6.402   6.890  0.3719  0.4012  0.5625
   26SAPC   O22 3420   4.970   6.489   6.883 -0.0823  0.3708 -0.0012
   26SAPC   C22 3421   5.179   6.421   6.983 -0.0879  0.5215  0.0651
   26SAPC   H2R 3422   5.187   6.335   7.053 -1.8075  0.2392 -0.0367
   26SAPC   H2S 3423   5.270   6.421   6.919  1.8940  0.5022  2.6925
   26SAPC    C3 3424   4.850   6.197   6.756  0.1033  0.1529 -0.3627
   26SAPC    HX 3425   4.881   6.094   6.786  1.4478  0.4403 -0.6706
   26SAPC    HY 3426   4.784   6.181   6.668 -1.1146  0.9665  0.3736
   26SAPC   O31 3427   4.775   6.255   6.864 -0.2269 -0.1185 -0.1407
   26SAPC   C31 3428   4.692   6.351   6.829  0.2898  0.0674  0.2637
   26SAPC   O32 3429   4.680   6.381   6.710 -0.0688  0.0130  0.1728
   26SAPC   C32 3430   4.624   6.420   6.946 -0.1379 -0.5902 -0.6936
   26SAPC   H2X 3431   4.544   6.347   6.971  1.0517 -1.8637 -0.4739
   26SAPC   H2Y 3432   4.581   6.509   6.895  0.7648 -1.1146 -2.4594
   26SAPC   C23 3433   5.174   6.551   7.077  0.3134  0.4624 -0.1800
   26SAPC   H3R 3434   5.095   6.515   7.146  1.3978 -0.2198  0.7488
   26SAPC   H3S 3435   5.143   6.638   7.015  1.4370  1.0358  0.0331
   26SAPC   C24 3436   5.301   6.573   7.162  0.2379  0.0781  0.5181
   26SAPC   H4R 3437   5.373   6.629   7.100 -0.4882 -1.5265 -1.9227
   26SAPC   H4S 3438   5.363   6.489   7.200  0.7504  0.0444 -0.3853
   26SAPC   C25 3439   5.261   6.662   7.275  0.0024  0.0993 -0.9133
   26SAPC   H5R 3440   5.178   6.733   7.258  0.0395  0.7252  1.1724
   26SAPC   C26 3441   5.308   6.663   7.402  1.0596  0.1214  0.4367
   26SAPC   H6R 3442   5.255   6.719   7.481  0.9865 -0.9033  1.1245
   26SAPC   C27 3443   5.411   6.588   7.476  0.3508  0.5885 -0.2100
   26SAPC   H7R 3444   5.466   6.518   7.408 -0.4074 -0.2952  0.0668
   26SAPC   H7S 3445   5.367   6.522   7.553  3.2353 -0.9356  0.2862
   26SAPC   C28 3446   5.519   6.671   7.538 -0.4515  0.1536 -0.4842
   26SAPC   H8R 3447   5.548   6.755   7.472 -1.1799 -0.8262 -2.1167
   26SAPC   C29 3448   5.588   6.652   7.650  0.4015  0.7682  0.0003
   26SAPC   H9R 3449   5.665   6.725   7.682 -1.2683  2.2852  0.7874
   26SAPC  C210 3450   5.550   6.530   7.742  0.2853 -0.2093 -0.5606
   26SAPC  H10R 3451   5.562   6.436   7.685 -0.4010 -1.6877  1.6039
   26SAPC  H10S 3452   5.444   6.533   7.775  0.2852  2.6802 -0.5589
   26SAPC  C211 3453   5.648   6.507   7.854  0.1663 -0.0761  0.3923
   26SAPC  H11R 3454   5.727   6.432   7.838  1.2234  0.9673  0.5064
   26SAPC  C212 3455   5.646   6.567   7.969 -0.2240 -0.3035  0.1004
   26SAPC  H12R 3456   5.725   6.553   8.045 -0.1157 -1.6141 -0.2435
   26SAPC  C213 3457   5.548   6.670   8.015  0.0428 -0.0496 -0.2587
   26SAPC  H13R 3458   5.463   6.608   8.050 -0.4125  0.1894 -0.9240
   26SAPC  H13S 3459   5.504   6.720   7.926 -2.0674 -0.0864  0.7103
   26SAPC  C214 3460   5.589   6.776   8.111 -0.0132  0.3010 -0.3572
   26SAPC  H14R 3461   5.694   6.806   8.095  0.1452  0.3927  0.7397
   26SAPC  C215 3462   5.527   6.832   8.215 -0.1678  0.8584 -0.2661
   26SAPC  H15R 3463   5.582   6.908   8.272  1.5821 -0.6644  0.1466
   26SAPC  C216 3464   5.380   6.815   8.263 -0.0748 -0.1381  0.3331
   26SAPC  H16R 3465   5.312   6.788   8.179  1.0598 -1.6155 -0.1683
   26SAPC  H16S 3466   5.344   6.914   8.299  0.2529 -0.3760  1.3461
   26SAPC  C217 3467   5.362   6.714   8.377  0.2622  1.3166 -0.4965
   26SAPC  H17R 3468   5.409   6.767   8.463 -0.2479  0.7790  0.1165
   26SAPC  H17S 3469   5.420   6.622   8.354  4.9695  4.0344 -0.8789
   26SAPC  C218 3470   5.214   6.700   8.416  0.1504  0.9994  0.0901
   26SAPC  H18R 3471   5.167   6.644   8.332  0.9194  0.6152 -0.1003
   26SAPC  H18S 3472   5.174   6.803   8.428  0.0420  1.2624 -2.1119
   26SAPC  C219 3473   5.197   6.618   8.550  0.4478  0.5884  0.5059
   26SAPC  H19R 3474   5.261   6.671   8.624  0.5859  1.8115 -0.4657
   26SAPC  H19S 3475   5.246   6.521   8.528 -0.6434  0.4543 -1.6023
   26SAPC  C220 3476   5.053   6.595   8.586  0.8456 -0.3405  0.3741
   26SAPC  H20R 3477   5.014   6.519   8.514 -0.6059  1.2799 -0.6440
   26SAPC  H20S 3478   5.003   6.694   8.591  0.7488 -0.3541 -0.1769
   26SAPC  H20T 3479   5.040   6.542   8.683 -2.5577 -0.3465  0.0342
   26SAPC   C33 3480   4.714   6.441   7.062 -0.4526 -0.5779 -0.0062
   26SAPC   H3X 3481   4.778   6.532   7.052 -3.1379  1.3853 -0.6308
   26SAPC   H3Y 3482   4.784   6.357   7.080  0.2421 -0.2031 -0.8568
   26SAPC   C34 3483   4.632   6.466   7.191  0.1545 -0.5298 -0.6366
   26SAPC   H4X 3484   4.575   6.371   7.204 -0.1624 -0.0415  2.3968
   26SAPC   H4Y 3485   4.565   6.553   7.172 -3.5689 -2.7165  1.2064
   26SAPC   C35 3486   4.708   6.502   7.317  0.3875  0.0727 -0.1668
   26SAPC   H5X 3487   4.794   6.570   7.297 -0.0265  0.8512  0.6050
   26SAPC   H5Y 3488   4.749   6.413   7.369  0.4372  1.9649  3.3727
   26SAPC   C36 3489   4.614   6.593   7.406 -0.5233  0.6558 -0.3915
   26SAPC   H6X 3490   4.513   6.546   7.403 -0.1354 -0.2154 -0.0498
   26SAPC   H6Y 3491   4.609   6.694   7.358 -1.2877  0.2515 -1.2015
   26SAPC   C37 3492   4.669   6.619   7.548 -0.3860  0.0559 -0.4778
   26SAPC   H7X 3493   4.738   6.704   7.568 -0.4856 -0.5750  3.5751
   26SAPC   H7Y 3494   4.719   6.525   7.582 -4.1942 -1.7324  0.7581
   26SAPC   C38 3495   4.555   6.643   7.645 -0.4302  0.1456  0.7194
   26SAPC   H8X 3496   4.507   6.545   7.664  1.0550 -0.2648  2.7824
   26SAPC   H8Y 3497   4.482   6.711   7.597 -1.7716 -1.4891  0.3400
   26SAPC   C39 3498   4.592   6.692   7.786 -0.0529  0.2644 -0.3530
   26SAPC   H9X 3499   4.639   6.791   7.770  0.0418  0.2015 -0.4589
   26SAPC   H9Y 3500   4.662   6.613   7.823 -2.2287 -1.3891  0.4736
   26SAPC  C310 3501   4.466   6.696   7.875 -0.0301  0.2185 -0.1788
   26SAPC  H10X 3502   4.421   6.594   7.885  0.3601  0.1151  0.5339
   26SAPC  H10Y 3503   4.386   6.738   7.810  0.0253 -0.1705 -0.4981
   26SAPC  C311 3504   4.480   6.748   8.021 -0.1926  0.1759 -0.9903
   26SAPC  H11X 3505   4.425   6.842   8.040 -0.2410 -0.4021  2.2153
   26SAPC  H11Y 3506   4.589   6.765   8.036 -0.5820 -0.0268  3.0321
   26SAPC  C312 3507   4.447   6.640   8.127  0.0747 -0.1963  0.2488
   26SAPC  H12X 3508   4.506   6.550   8.098  2.4272  1.3344 -0.0052
   26SAPC  H12Y 3509   4.341   6.610   8.118 -0.0544  0.2581  0.2400
   26SAPC  C313 3510   4.460   6.684   8.267 -0.8481 -0.1755  0.2700
   26SAPC  H13X 3511   4.405   6.780   8.279  1.4941  1.5776 -1.9116
   26SAPC  H13Y 3512   4.565   6.715   8.285 -0.5684 -2.1958  2.5870
   26SAPC  C314 3513   4.422   6.583   8.377  0.4772 -0.5380  0.7301
   26SAPC  H14X 3514   4.427   6.486   8.324 -2.5200 -0.6950  0.5442
   26SAPC  H14Y 3515   4.319   6.601   8.415  0.3270 -0.6559  0.3870
   26SAPC  C315 3516   4.512   6.601   8.504 -0.4527 -0.3497 -0.5281
   26SAPC  H15X 3517   4.497   6.704   8.544 -3.0843 -1.1361  0.7275
   26SAPC  H15Y 3518   4.617   6.580   8.475 -0.3792  0.2605 -0.7086
   26SAPC  C316 3519   4.477   6.493   8.619  0.3691  0.1525 -0.5643
   26SAPC  H16X 3520   4.458   6.394   8.572 -0.2290 -0.1812  0.3579
   26SAPC  H16Y 3521   4.381   6.520   8.668  0.5999  2.8087 -1.4390
   26SAPC  C317 3522   4.583   6.503   8.736 -0.1329 -0.1968 -0.4195
   26SAPC  H17X 3523   4.550   6.440   8.822  0.3220 -0.5623 -0.5087
   26SAPC  H17Y 3524   4.580   6.609   8.771 -2.3756 -0.6854  1.0745
   26SAPC  C318 3525   4.723   6.450   8.709 -0.1344  0.7945 -0.5679
   26SAPC  H18X 3526   4.707   6.348   8.668  2.5768  0.6163 -1.3539
   26SAPC  H18Y 3527   4.785   6.444   8.802  0.0208  0.3403 -0.6972
   26SAPC  H18Z 3528   4.778   6.510   8.634  0.1736  3.3822  1.5704
   27SAPC     N 3529   2.753   2.758   5.807  0.2615 -0.1819 -0.1566
   27SAPC   C12 3530   2.738   2.694   5.945  0.8619  0.0846 -0.2186
   27SAPC  H12A 3531   2.785   2.762   6.014 -3.6006  3.7064 -0.2145
   27SAPC  H12B 3532   2.800   2.607   5.936 -1.7201 -1.9566  0.3303
   27SAPC   C13 3533   2.897   2.781   5.789 -0.3435  0.0403 -0.2113
   27SAPC  H13A 3534   2.956   2.698   5.825  0.0664  1.3072  2.2255
   27SAPC  H13B 3535   2.930   2.807   5.689  0.0784  0.1236 -0.0526
   27SAPC  H13C 3536   2.935   2.855   5.857 -0.0942 -0.7196  0.4919
   27SAPC   C14 3537   2.690   2.670   5.706  0.4602  0.3219 -1.1003
   27SAPC  H14A 3538   2.583   2.671   5.725  0.6440 -1.3549  0.2705
   27SAPC  H14B 3539   2.707   2.705   5.605  0.2787  1.6216 -0.7060
   27SAPC  H14C 3540   2.714   2.567   5.725 -1.2026  0.0108 -0.4857
   27SAPC   C15 3541   2.680   2.889   5.806 -0.2989  0.3556 -0.5926
   27SAPC  H15A 3542   2.577   2.883   5.836 -0.2354  0.1321 -0.4179
   27SAPC  H15B 3543   2.728   2.968   5.862 -1.5116  0.2063  0.7074
   27SAPC  H15C 3544   2.685   2.929   5.705 -2.8578 -1.3687 -1.5056
   27SAPC   C11 3545   2.608   2.659   6.006  0.5853 -0.3395  0.6174
   27SAPC  H11A 3546   2.545   2.750   6.001 -1.5291 -1.8024 -0.9414
   27SAPC  H11B 3547   2.615   2.635   6.114  1.8330  1.0645  0.8805
   27SAPC     P 3548   2.387   2.538   5.936 -0.2999 -0.0126 -0.0970
   27SAPC   O13 3549   2.338   2.606   5.813  0.6395 -0.4036  0.4723
   27SAPC   O14 3550   2.346   2.397   5.951  0.4321 -0.7110 -0.4232
   27SAPC   O12 3551   2.545   2.549   5.939  0.7494 -0.5391  0.2613
   27SAPC   O11 3552   2.341   2.623   6.061 -0.3466  0.1461  0.4158
   27SAPC    C1 3553   2.226   2.714   6.052 -0.2107  0.5224  0.4273
   27SAPC    HA 3554   2.242   2.794   5.977 -2.7982 -1.0599 -1.9682
   27SAPC    HB 3555   2.143   2.658   6.004  0.8044 -0.1216 -0.6259
   27SAPC    C2 3556   2.183   2.766   6.193  0.5763 -0.2301  0.0273
   27SAPC    HS 3557   2.088   2.819   6.168  1.1723  0.3822 -1.0003
   27SAPC   O21 3558   2.284   2.840   6.266  1.0258 -0.1278 -0.0129
   27SAPC   C21 3559   2.301   2.967   6.224 -0.5303  0.4886  0.5907
   27SAPC   O22 3560   2.223   3.027   6.154 -0.1324 -0.5756  0.2254
   27SAPC   C22 3561   2.411   3.038   6.300  0.3869 -0.6066 -0.2647
   27SAPC   H2R 3562   2.486   2.963   6.332 -0.1372 -1.1147 -0.2164
   27SAPC   H2S 3563   2.464   3.107   6.231 -0.0978  0.4626  0.3990
   27SAPC    C3 3564   2.138   2.648   6.288  0.1526 -0.3417 -0.0758
   27SAPC    HX 3565   2.224   2.580   6.307  0.9112  0.7716  0.6278
   27SAPC    HY 3566   2.065   2.594   6.225 -1.5859 -0.9132  2.3173
   27SAPC   O31 3567   2.074   2.700   6.409  0.4647  0.3277 -0.1469
   27SAPC   C31 3568   2.149   2.705   6.513 -0.0101  0.2979  0.1206
   27SAPC   O32 3569   2.265   2.665   6.515  0.3613  0.2183 -0.2591
   27SAPC   C32 3570   2.067   2.766   6.622 -0.3696 -0.0696 -0.5659
   27SAPC   H2X 3571   1.981   2.701   6.650 -0.0231 -0.0057  0.6927
   27SAPC   H2Y 3572   2.032   2.860   6.573  1.1048  0.3752 -0.7967
   27SAPC   C23 3573   2.353   3.122   6.415 -0.9414 -0.4923 -0.1036
   27SAPC   H3R 3574   2.305   3.049   6.484 -1.5626 -0.1572 -0.1752
   27SAPC   H3S 3575   2.272   3.190   6.383  0.3590  1.1501 -0.0293
   27SAPC   C24 3576   2.462   3.208   6.480  0.3052 -0.2516 -0.0737
   27SAPC   H4R 3577   2.499   3.283   6.407  1.6842 -0.9984 -0.1882
   27SAPC   H4S 3578   2.543   3.136   6.506 -2.2036 -2.7203  1.5142
   27SAPC   C25 3579   2.402   3.260   6.609 -0.3314  0.5717  0.1829
   27SAPC   H5R 3580   2.331   3.344   6.602 -1.9620 -0.6148  1.6717
   27SAPC   C26 3581   2.430   3.226   6.736  0.1035  0.1864 -0.3184
   27SAPC   H6R 3582   2.383   3.283   6.818 -1.9326  0.0174 -1.2977
   27SAPC   C27 3583   2.516   3.106   6.778 -0.3623 -0.1758  0.5176
   27SAPC   H7R 3584   2.617   3.152   6.789 -1.1931  1.7517  0.3558
   27SAPC   H7S 3585   2.512   3.033   6.694  0.2031 -0.0723  0.3935
   27SAPC   C28 3586   2.477   3.039   6.910  0.0581 -0.1192 -0.0101
   27SAPC   H8R 3587   2.409   2.954   6.893 -0.6675  0.5162 -0.3737
   27SAPC   C29 3588   2.525   3.063   7.033  0.5400 -0.3629  0.0580
   27SAPC   H9R 3589   2.478   3.017   7.121 -0.2389 -0.5626 -0.4535
   27SAPC  C210 3590   2.620   3.156   7.082  0.1722 -0.2334  0.0109
   27SAPC  H10R 3591   2.570   3.231   7.147  0.1294 -0.3414  0.1037
   27SAPC  H10S 3592   2.647   3.219   6.994 -1.8973  0.8873  0.1140
   27SAPC  C211 3593   2.748   3.082   7.134 -0.1505 -0.1327 -0.6283
   27SAPC  H11R 3594   2.834   3.092   7.066  0.4177 -0.4229  0.0344
   27SAPC  C212 3595   2.764   3.010   7.252 -0.4451  0.1578  0.6445
   27SAPC  H12R 3596   2.864   2.968   7.272 -0.0075  0.7767 -0.1722
   27SAPC  C213 3597   2.651   3.000   7.359  0.5429 -0.9032  0.2817
   27SAPC  H13R 3598   2.591   2.907   7.364 -0.1099 -0.5043  0.0426
   27SAPC  H13S 3599   2.567   3.071   7.339  0.7370  0.1341  2.7809
   27SAPC  C214 3600   2.716   3.033   7.493  0.0263  0.7367  0.1038
   27SAPC  H14R 3601   2.792   2.961   7.528 -0.9243 -1.2672 -1.7336
   27SAPC  C215 3602   2.697   3.145   7.554 -0.5382 -0.7675 -0.0940
   27SAPC  H15R 3603   2.754   3.156   7.647  0.3037 -0.7910 -0.6004
   27SAPC  C216 3604   2.600   3.256   7.527  0.7162  0.0207  0.2003
   27SAPC  H16R 3605   2.513   3.242   7.595  1.7365  0.9601  1.7541
   27SAPC  H16S 3606   2.563   3.252   7.422 -2.3944 -1.2881  1.2137
   27SAPC  C217 3607   2.651   3.402   7.542 -0.5572  0.2889  0.0145
   27SAPC  H17R 3608   2.573   3.471   7.505 -1.4290 -0.3617  0.5852
   27SAPC  H17S 3609   2.740   3.409   7.476 -0.5231 -0.2933 -0.0129
   27SAPC  C218 3610   2.673   3.437   7.691 -0.1879 -0.2832  0.1082
   27SAPC  H18R 3611   2.757   3.381   7.737  0.6098 -0.5601 -1.5929
   27SAPC  H18S 3612   2.577   3.413   7.741 -0.2966  0.4424  0.2501
   27SAPC  C219 3613   2.688   3.591   7.713  0.5935  0.7617  0.2678
   27SAPC  H19R 3614   2.606   3.636   7.654 -1.2025 -1.1469  1.1615
   27SAPC  H19S 3615   2.782   3.620   7.659  1.0116 -2.0524 -0.6852
   27SAPC  C220 3616   2.687   3.645   7.857 -0.5670 -0.9541  0.5155
   27SAPC  H20R 3617   2.751   3.588   7.928  1.0148 -0.0131 -0.0844
   27SAPC  H20S 3618   2.586   3.654   7.902 -1.0850  1.2565 -0.9154
   27SAPC  H20T 3619   2.726   3.749   7.849 -1.5849 -0.5285  0.8410
   27SAPC   C33 3620   2.155   2.800   6.750 -0.6441 -0.0718 -0.1967
   27SAPC   H3X 3621   2.245   2.861   6.727  0.2906 -0.3242  2.4225
   27SAPC   H3Y 3622   2.197   2.705   6.789  0.1816 -0.0795 -1.0494
   27SAPC   C34 3623   2.098   2.868   6.870  0.2217 -0.7461 -0.2005
   27SAPC   H4X 3624   1.989   2.846   6.877  0.3345 -0.7473  4.6090
   27SAPC   H4Y 3625   2.114   2.977   6.854  3.0208 -1.3150 -1.9251
   27SAPC   C35 3626   2.165   2.819   7.003 -0.5494 -0.1222  0.0416
   27SAPC   H5X 3627   2.272   2.852   7.000 -0.1313 -1.4675 -0.6818
   27SAPC   H5Y 3628   2.161   2.709   6.993  0.0549 -0.0344 -1.4411
   27SAPC   C36 3629   2.103   2.870   7.135 -0.2500 -0.2904  0.7514
   27SAPC   H6X 3630   1.995   2.843   7.130  0.1367 -1.8322  0.1433
   27SAPC   H6Y 3631   2.094   2.981   7.144 -1.9207 -0.2913 -0.4017
   27SAPC   C37 3632   2.163   2.809   7.262 -0.2727  0.2189  0.3924
   27SAPC   H7X 3633   2.271   2.795   7.241 -0.3633 -1.0428  0.6642
   27SAPC   H7Y 3634   2.119   2.708   7.276 -0.4373  0.0930 -0.9174
   27SAPC   C38 3635   2.148   2.901   7.385 -0.2057  0.0083  0.8511
   27SAPC   H8X 3636   2.040   2.909   7.408 -0.0375 -1.5684  2.4510
   27SAPC   H8Y 3637   2.184   3.005   7.370  1.8763 -1.0113 -2.2667
   27SAPC   C39 3638   2.231   2.850   7.503  0.0161 -0.4632 -0.2907
   27SAPC   H9X 3639   2.338   2.831   7.478  0.5334 -1.5871  2.4827
   27SAPC   H9Y 3640   2.198   2.750   7.538  1.5331 -0.8997 -0.0203
   27SAPC  C310 3641   2.226   2.943   7.627 -0.1811  0.1269 -0.1771
   27SAPC  H10X 3642   2.126   2.939   7.675 -0.6624  2.4002 -0.8777
   27SAPC  H10Y 3643   2.239   3.045   7.587 -1.8315  0.3368 -0.2413
   27SAPC  C311 3644   2.347   2.931   7.723 -0.3788  0.4731 -0.0899
   27SAPC  H11X 3645   2.443   2.922   7.667 -0.0182 -2.1499  0.7919
   27SAPC  H11Y 3646   2.342   2.843   7.791 -2.2120 -0.3895 -1.2492
   27SAPC  C312 3647   2.351   3.044   7.828 -0.0010  0.6073  0.0910
   27SAPC  H12X 3648   2.252   3.055   7.877  0.3095 -0.0997  0.8986
   27SAPC  H12Y 3649   2.354   3.138   7.769 -2.1514  0.4578 -0.3141
   27SAPC  C313 3650   2.464   3.026   7.929  0.8394 -0.1001 -0.4111
   27SAPC  H13X 3651   2.450   2.935   7.991 -0.8916 -1.9373 -3.2471
   27SAPC  H13Y 3652   2.460   3.116   7.994  1.2557 -0.3458 -0.0465
   27SAPC  C314 3653   2.597   3.004   7.859  0.1521  0.0004  0.0987
   27SAPC  H14X 3654   2.600   3.079   7.777  1.0092  1.5909  1.4945
   27SAPC  H14Y 3655   2.601   2.898   7.828  1.8593  0.3492 -1.0399
   27SAPC  C315 3656   2.718   3.032   7.948 -0.1950 -0.0051  0.5389
   27SAPC  H15X 3657   2.807   3.002   7.888 -0.4850  1.3395 -0.6182
   27SAPC  H15Y 3658   2.705   2.968   8.038  0.1407  1.1698  1.4572
   27SAPC  C316 3659   2.734   3.181   7.990  0.3933  0.0106  0.5856
   27SAPC  H16X 3660   2.652   3.231   8.045 -0.5611  0.4049 -1.1425
   27SAPC  H16Y 3661   2.731   3.245   7.900  0.1147 -0.7757  0.0257
   27SAPC  C317 3662   2.865   3.199   8.064  0.0812 -1.0020 -0.0847
   27SAPC  H17X 3663   2.890   3.307   8.074 -0.8693 -0.9668  2.9997
   27SAPC  H17Y 3664   2.949   3.159   8.003  1.3384  1.8906 -0.4312
   27SAPC  C318 3665   2.860   3.138   8.197  0.1179 -0.0593 -0.2932
   27SAPC  H18X 3666   2.841   3.029   8.189 -3.1044  0.3163  0.6293
   27SAPC  H18Y 3667   2.788   3.197   8.258  0.2322 -1.1686  0.9698
   27SAPC  H18Z 3668   2.961   3.165   8.234  0.0586  2.1946 -1.5938
   28SAPC     N 3669   2.469   2.370   6.344  0.0280 -0.3441  0.0939
   28SAPC   C12 3670   2.572   2.339   6.452 -0.2541  0.5600 -0.9990
   28SAPC  H12A 3671   2.549   2.390   6.544 -1.8267  0.8772 -1.5259
   28SAPC  H12B 3672   2.667   2.380   6.423  1.6656 -3.4840 -0.9856
   28SAPC   C13 3673   2.332   2.339   6.371  0.1518 -0.1663  0.2766
   28SAPC  H13A 3674   2.334   2.235   6.402  1.7298  0.7536  3.7142
   28SAPC  H13B 3675   2.302   2.399   6.455  0.6968  0.7898 -0.1943
   28SAPC  H13C 3676   2.269   2.347   6.283  2.1704 -0.6821 -1.2858
   28SAPC   C14 3677   2.467   2.509   6.312 -0.8638  0.1645 -0.1373
   28SAPC  H14A 3678   2.394   2.524   6.233 -0.2139  0.2081 -0.7410
   28SAPC  H14B 3679   2.434   2.574   6.391  2.3127  1.7625  0.0551
   28SAPC  H14C 3680   2.563   2.538   6.271 -0.3944  2.2833  2.2298
   28SAPC   C15 3681   2.502   2.295   6.215  0.8874 -0.3928 -0.6520
   28SAPC  H15A 3682   2.492   2.191   6.244 -1.1793  0.5000  2.1722
   28SAPC  H15B 3683   2.437   2.319   6.132  0.1419 -0.5238 -0.1103
   28SAPC  H15C 3684   2.605   2.307   6.185  1.9076 -0.8876  2.3055
   28SAPC   C11 3685   2.598   2.189   6.480 -0.1676  0.1612 -0.9041
   28SAPC  H11A 3686   2.502   2.136   6.501  0.4156  0.1494  2.2891
   28SAPC  H11B 3687   2.658   2.178   6.573 -0.5924  0.5587 -0.5819
   28SAPC     P 3688   2.825   2.156   6.351 -0.2336  0.0144 -0.2033
   28SAPC   O13 3689   2.897   2.064   6.252  0.3153 -0.4844  0.0834
   28SAPC   O14 3690   2.850   2.302   6.339  0.8683 -0.0312  0.5962
   28SAPC   O12 3691   2.673   2.138   6.364 -0.2951  0.4311  0.6276
   28SAPC   O11 3692   2.881   2.105   6.494  0.2124  0.3393  0.0759
   28SAPC    C1 3693   2.867   1.965   6.521  0.2284  0.2894 -1.0312
   28SAPC    HA 3694   2.792   1.920   6.453 -1.6618  0.5806  0.7671
   28SAPC    HB 3695   2.965   1.915   6.503  0.7537  0.4276  1.1321
   28SAPC    C2 3696   2.840   1.932   6.671 -0.2315 -0.8390 -0.4262
   28SAPC    HS 3697   2.736   1.963   6.697 -0.0973  1.0817 -2.0009
   28SAPC   O21 3698   2.941   1.983   6.760  0.5316 -0.2720  0.5716
   28SAPC   C21 3699   2.911   2.098   6.818  1.0226  0.3451  0.1898
   28SAPC   O22 3700   2.812   2.171   6.799  0.4974  0.1451 -0.3965
   28SAPC   C22 3701   3.028   2.121   6.924  0.1166  0.0759  1.0768
   28SAPC   H2R 3702   2.991   2.065   7.013 -2.8642 -1.2207 -0.8088
   28SAPC   H2S 3703   3.127   2.081   6.893  0.5909  0.9780  1.4026
   28SAPC    C3 3704   2.839   1.777   6.684 -1.1140  0.0194  0.6028
   28SAPC    HX 3705   2.947   1.755   6.667 -1.1896  0.2007 -0.1155
   28SAPC    HY 3706   2.777   1.747   6.597 -0.6395  1.8250 -0.4077
   28SAPC   O31 3707   2.792   1.737   6.815  0.6340  0.2259 -0.1807
   28SAPC   C31 3708   2.743   1.613   6.818  0.3997 -0.0358  0.5959
   28SAPC   O32 3709   2.730   1.538   6.726  0.3840  0.7187 -0.9098
   28SAPC   C32 3710   2.715   1.584   6.963  0.8507 -0.1545 -0.0331
   28SAPC   H2X 3711   2.735   1.678   7.020 -0.8989 -0.0406  0.4419
   28SAPC   H2Y 3712   2.781   1.503   6.998  0.7890 -0.1533  0.0846
   28SAPC   C23 3713   3.039   2.268   6.969  0.1341 -0.1037  0.9037
   28SAPC   H3R 3714   2.953   2.328   6.932  0.2648 -0.7007 -0.4351
   28SAPC   H3S 3715   3.127   2.322   6.929  0.0148  1.8202  3.0665
   28SAPC   C24 3716   3.049   2.283   7.117  0.7335  0.5003  0.2338
   28SAPC   H4R 3717   3.021   2.388   7.143 -1.2361 -0.1273  0.8166
   28SAPC   H4S 3718   2.969   2.226   7.170  0.7944  0.2154  0.0170
   28SAPC   C25 3719   3.187   2.250   7.163 -0.2060 -0.3776 -0.7371
   28SAPC   H5R 3720   3.267   2.293   7.101  0.0289  0.2186 -0.0421
   28SAPC   C26 3721   3.212   2.178   7.274 -0.6392  0.1520 -0.2136
   28SAPC   H6R 3722   3.314   2.149   7.303 -0.9756 -2.1713 -1.1123
   28SAPC   C27 3723   3.111   2.114   7.364 -0.6130 -0.1429 -0.1671
   28SAPC   H7R 3724   3.182   2.058   7.428 -2.2841 -1.2143  0.8158
   28SAPC   H7S 3725   3.055   2.032   7.314 -1.4438  1.3008 -1.7218
   28SAPC   C28 3726   3.021   2.205   7.442  1.1197  0.0546  0.6730
   28SAPC   H8R 3727   2.914   2.201   7.414  1.4127  1.0232 -0.7221
   28SAPC   C29 3728   3.056   2.287   7.543 -0.2165  0.4449 -0.8252
   28SAPC   H9R 3729   2.986   2.361   7.586  0.7587  3.0311 -3.3222
   28SAPC  C210 3730   3.202   2.311   7.586 -0.1796  0.2170 -0.5085
   28SAPC  H10R 3731   3.282   2.282   7.514  1.0579  0.1643  0.8346
   28SAPC  H10S 3732   3.211   2.242   7.672 -0.4173  2.9849  1.9090
   28SAPC  C211 3733   3.240   2.446   7.647 -0.2941  0.5465  0.0974
   28SAPC  H11R 3734   3.266   2.531   7.582  3.2080 -0.2869  0.2279
   28SAPC  C212 3735   3.247   2.466   7.779 -0.6626 -0.1178  0.0182
   28SAPC  H12R 3736   3.287   2.559   7.823  1.2275 -0.8239 -0.1075
   28SAPC  C213 3737   3.222   2.364   7.894  0.7680 -0.3531 -0.0712
   28SAPC  H13R 3738   3.294   2.379   7.977  2.2186 -0.0423 -1.3481
   28SAPC  H13S 3739   3.258   2.270   7.849  1.6132  0.7516 -1.8139
   28SAPC  C214 3740   3.077   2.351   7.939 -0.1211  0.1101  0.2194
   28SAPC  H14R 3741   3.003   2.364   7.858  1.3845 -0.9795 -1.3946
   28SAPC  C215 3742   3.033   2.324   8.063  0.3067  0.0952 -0.6473
   28SAPC  H15R 3743   2.926   2.305   8.082  0.6617  0.8606  2.6115
   28SAPC  C216 3744   3.125   2.281   8.179 -0.0786  0.0757  0.2775
   28SAPC  H16R 3745   3.232   2.311   8.175  0.6654 -2.2245  1.2421
   28SAPC  H16S 3746   3.119   2.174   8.210  0.2173 -0.5057 -1.5331
   28SAPC  C217 3747   3.072   2.357   8.305 -0.1620  0.4643 -0.3676
   28SAPC  H17R 3748   3.001   2.435   8.272 -1.1600 -0.8987 -1.5893
   28SAPC  H17S 3749   3.150   2.420   8.352 -0.6853  0.2923  0.7780
   28SAPC  C218 3750   3.008   2.265   8.414 -0.7330 -0.2462  0.0039
   28SAPC  H18R 3751   3.012   2.314   8.514 -0.0336 -1.4243  0.5747
   28SAPC  H18S 3752   3.073   2.178   8.437  0.2121 -0.1028 -1.9535
   28SAPC  C219 3753   2.872   2.211   8.377 -0.5242 -0.1637  0.0462
   28SAPC  H19R 3754   2.886   2.156   8.282 -0.6619 -0.0109 -0.0638
   28SAPC  H19S 3755   2.798   2.291   8.355  1.4227  1.5510 -0.6826
   28SAPC  C220 3756   2.811   2.118   8.486 -0.5893  0.3549  0.5759
   28SAPC  H20R 3757   2.883   2.040   8.516  1.7262  1.6227 -1.3356
   28SAPC  H20S 3758   2.709   2.079   8.464 -0.3323  0.3553 -0.7144
   28SAPC  H20T 3759   2.810   2.188   8.573  3.0326  0.9356  0.2803
   28SAPC   C33 3760   2.569   1.548   6.993  0.5763 -0.3051 -0.2112
   28SAPC   H3X 3761   2.563   1.440   6.969 -0.0657 -0.5506  0.9563
   28SAPC   H3Y 3762   2.494   1.606   6.936 -0.0566 -1.9741 -1.1418
   28SAPC   C34 3763   2.543   1.565   7.149  0.1274 -0.5270  0.8072
   28SAPC   H4X 3764   2.436   1.542   7.171  0.0916 -1.1371  0.0536
   28SAPC   H4Y 3765   2.566   1.666   7.189 -0.5312  0.0142 -0.1463
   28SAPC   C35 3766   2.626   1.463   7.227 -0.6394 -0.1718 -0.2431
   28SAPC   H5X 3767   2.732   1.498   7.225 -0.3071 -0.9680  1.5262
   28SAPC   H5Y 3768   2.631   1.362   7.183  1.0063 -0.4099  0.4332
   28SAPC   C36 3769   2.573   1.454   7.376  0.6129 -0.0510  0.1794
   28SAPC   H6X 3770   2.655   1.411   7.436  0.5192 -1.0959 -0.4199
   28SAPC   H6Y 3771   2.479   1.396   7.391  0.2066  0.3409 -0.7537
   28SAPC   C37 3772   2.561   1.590   7.443 -0.5448  0.8953 -0.4486
   28SAPC   H7X 3773   2.467   1.646   7.425  0.9742  3.7486 -0.0999
   28SAPC   H7Y 3774   2.642   1.654   7.401 -0.0437 -0.8671 -2.3015
   28SAPC   C38 3775   2.572   1.584   7.596 -0.7786  0.2578 -0.2616
   28SAPC   H8X 3776   2.590   1.690   7.625 -1.4264  0.1401  0.6348
   28SAPC   H8Y 3777   2.663   1.529   7.628 -0.6932 -0.2911 -1.4132
   28SAPC   C39 3778   2.439   1.543   7.669 -0.2701 -1.3619 -0.0793
   28SAPC   H9X 3779   2.436   1.432   7.667  0.6946 -1.4139  0.6697
   28SAPC   H9Y 3780   2.363   1.594   7.606  2.5717 -0.3731 -2.9887
   28SAPC  C310 3781   2.436   1.596   7.814  0.4358  0.6957  0.1689
   28SAPC  H10X 3782   2.399   1.701   7.815  2.7384  1.5908  2.6478
   28SAPC  H10Y 3783   2.534   1.579   7.863  0.1243 -0.9382  0.3008
   28SAPC  C311 3784   2.341   1.523   7.902 -0.8911  0.5777 -0.7963
   28SAPC  H11X 3785   2.334   1.416   7.874  1.4691 -0.9455  3.5910
   28SAPC  H11Y 3786   2.236   1.561   7.898 -0.3445  2.1870 -0.6461
   28SAPC  C312 3787   2.382   1.525   8.052 -0.4518  0.3063  1.0550
   28SAPC  H12X 3788   2.392   1.633   8.080  1.6484  1.1342 -2.3464
   28SAPC  H12Y 3789   2.482   1.476   8.055 -0.5703  0.1181  2.5550
   28SAPC  C313 3790   2.307   1.425   8.142 -0.2532  0.3854  0.1446
   28SAPC  H13X 3791   2.305   1.327   8.090  0.3415  0.9853 -1.0371
   28SAPC  H13Y 3792   2.201   1.452   8.162 -0.5320 -1.1823  0.9244
   28SAPC  C314 3793   2.376   1.415   8.275  0.4822  0.3782 -0.5250
   28SAPC  H14X 3794   2.374   1.516   8.322  3.2126  0.0744  0.4470
   28SAPC  H14Y 3795   2.479   1.384   8.245 -0.2498  0.3482 -3.1751
   28SAPC  C315 3796   2.322   1.304   8.371  1.0787 -0.2759 -0.3938
   28SAPC  H15X 3797   2.335   1.211   8.311  1.6524 -1.3759  1.3544
   28SAPC  H15Y 3798   2.215   1.326   8.392  0.9570 -0.0455 -1.2132
   28SAPC  C316 3799   2.397   1.309   8.501 -0.1810  0.2843 -1.3079
   28SAPC  H16X 3800   2.391   1.410   8.548 -0.0396 -0.0855 -0.4692
   28SAPC  H16Y 3801   2.504   1.302   8.474 -0.4070 -1.6142 -1.8535
   28SAPC  C317 3802   2.364   1.204   8.618 -0.3159 -1.0932 -0.0486
   28SAPC  H17X 3803   2.255   1.182   8.619 -1.1623  1.0920  6.2460
   28SAPC  H17Y 3804   2.402   1.249   8.713  2.1226 -0.2670 -1.3277
   28SAPC  C318 3805   2.432   1.071   8.627 -0.1221 -0.3391  0.9109
   28SAPC  H18X 3806   2.402   1.018   8.720  0.0910 -0.0051  1.1717
   28SAPC  H18Y 3807   2.543   1.072   8.623 -0.1002 -0.6480 -3.1485
   28SAPC  H18Z 3808   2.404   1.000   8.546 -0.7842 -0.9812  1.6846
   29SAPC     N 3809   3.360   2.870   5.900  0.0171  0.1608  0.4550
   29SAPC   C12 3810   3.304   2.787   6.015  0.3264 -0.2669  0.5709
   29SAPC  H12A 3811   3.392   2.741   6.057  1.5777 -0.0818 -1.7307
   29SAPC  H12B 3812   3.237   2.706   5.991 -1.8085  1.4958  0.2678
   29SAPC   C13 3813   3.441   2.985   5.949  0.6474  0.0356 -0.0038
   29SAPC  H13A 3814   3.484   3.040   5.866 -0.2145 -1.6871 -1.6774
   29SAPC  H13B 3815   3.379   3.048   6.011  0.9240 -0.8043  1.1616
   29SAPC  H13C 3816   3.513   2.944   6.019  2.0157  0.9458 -0.8321
   29SAPC   C14 3817   3.437   2.778   5.812  0.3238 -0.0195  0.0658
   29SAPC  H14A 3818   3.373   2.704   5.767  0.1985  0.2180 -0.1558
   29SAPC  H14B 3819   3.474   2.840   5.731 -0.6568 -1.3174 -1.4203
   29SAPC  H14C 3820   3.515   2.736   5.874  0.1277  1.1924  1.1814
   29SAPC   C15 3821   3.242   2.936   5.822  0.5649 -0.5593  0.2561
   29SAPC  H15A 3822   3.182   2.865   5.767  0.1376  0.3010 -0.4225
   29SAPC  H15B 3823   3.185   2.985   5.899 -0.6722 -3.1782  1.1378
   29SAPC  H15C 3824   3.272   3.016   5.755 -2.5567  0.6416  0.1355
   29SAPC   C11 3825   3.256   2.859   6.144  0.2668  0.3269 -0.3280
   29SAPC  H11A 3826   3.339   2.927   6.172  0.4572  0.0957 -0.3299
   29SAPC  H11B 3827   3.252   2.783   6.226  0.5141  1.4551  0.7540
   29SAPC     P 3828   2.998   2.896   6.162  0.0329 -0.5038  0.2494
   29SAPC   O13 3829   2.900   2.971   6.075 -0.3748 -0.0474 -0.3263
   29SAPC   O14 3830   2.986   2.753   6.160 -0.1932 -0.0852  0.5379
   29SAPC   O12 3831   3.144   2.945   6.122  0.1409 -0.1336  0.1039
   29SAPC   O11 3832   2.986   2.935   6.313 -0.5606  0.0529 -0.4592
   29SAPC    C1 3833   2.854   2.981   6.358 -0.3154  0.2710  0.5912
   29SAPC    HA 3834   2.831   3.073   6.299 -1.8318 -0.3530  0.1577
   29SAPC    HB 3835   2.783   2.905   6.320 -1.4438  1.0715  1.0292
   29SAPC    C2 3836   2.844   2.994   6.511 -0.0318 -0.2639  0.7976
   29SAPC    HS 3837   2.741   3.019   6.545  0.7282  2.7642  1.1668
   29SAPC   O21 3838   2.927   3.092   6.569  0.1734 -0.6094 -0.6962
   29SAPC   C21 3839   2.885   3.219   6.551 -0.4140 -0.5719  0.6539
   29SAPC   O22 3840   2.777   3.245   6.506 -0.0312  0.2655 -0.0521
   29SAPC   C22 3841   3.008   3.314   6.558 -0.3293  0.7065 -0.3982
   29SAPC   H2R 3842   3.098   3.251   6.537  0.1763  1.2453  0.0945
   29SAPC   H2S 3843   2.994   3.387   6.476 -0.0744  0.7161 -0.4355
   29SAPC    C3 3844   2.880   2.855   6.568  0.2867 -0.2755  0.2335
   29SAPC    HX 3845   2.971   2.823   6.513  0.8878 -0.0230  1.0662
   29SAPC    HY 3846   2.790   2.795   6.543  0.1018 -0.8971  2.1694
   29SAPC   O31 3847   2.901   2.855   6.711 -0.9513 -0.2378  0.3861
   29SAPC   C31 3848   3.022   2.875   6.760 -0.4281  0.3885  0.2122
   29SAPC   O32 3849   3.127   2.895   6.699 -0.1269 -0.3033  0.6719
   29SAPC   C32 3850   2.999   2.887   6.913  0.1813  0.0723 -0.2680
   29SAPC   H2X 3851   2.958   2.792   6.953  1.5621 -1.7528 -2.8788
   29SAPC   H2Y 3852   2.933   2.975   6.929  1.4313  0.7285  1.6141
   29SAPC   C23 3853   3.035   3.390   6.689  0.2428 -0.4624 -0.0236
   29SAPC   H3R 3854   2.947   3.445   6.730  0.9437 -1.4499  3.0593
   29SAPC   H3S 3855   3.112   3.464   6.660  0.5563 -0.6772  0.2592
   29SAPC   C24 3856   3.099   3.303   6.794 -0.2453  0.6918 -0.0139
   29SAPC   H4R 3857   3.181   3.238   6.757 -1.3812 -0.8825  0.0886
   29SAPC   H4S 3858   3.032   3.227   6.840  0.9639  1.1620  2.6968
   29SAPC   C25 3859   3.166   3.365   6.920  0.0898  0.9570  0.4144
   29SAPC   H5R 3860   3.275   3.348   6.923 -0.0530  0.1046  1.3067
   29SAPC   C26 3861   3.101   3.401   7.031  0.3120  0.7492 -0.2939
   29SAPC   H6R 3862   3.165   3.442   7.110  1.9548 -1.5733 -0.3229
   29SAPC   C27 3863   2.954   3.425   7.038  0.4194 -0.1935 -0.3764
   29SAPC   H7R 3864   2.895   3.354   6.977 -1.6647  0.4136  0.8429
   29SAPC   H7S 3865   2.927   3.518   6.982 -2.5636 -1.4376 -1.1867
   29SAPC   C28 3866   2.905   3.424   7.181  0.3781  0.3331  0.0852
   29SAPC   H8R 3867   2.847   3.332   7.200 -0.0864  0.8163  1.0515
   29SAPC   C29 3868   2.917   3.528   7.271  0.2105  0.1214 -0.2538
   29SAPC   H9R 3869   2.871   3.505   7.368  1.0653  0.0090  0.1336
   29SAPC  C210 3870   2.979   3.660   7.261  0.5087  0.8271 -1.1745
   29SAPC  H10R 3871   2.903   3.741   7.272 -2.4980 -2.1196  2.3512
   29SAPC  H10S 3872   3.025   3.676   7.161  0.5503 -1.6936 -1.6131
   29SAPC  C211 3873   3.086   3.667   7.374 -0.1988  0.5557 -0.4968
   29SAPC  H11R 3874   3.176   3.609   7.349  1.3990  2.9123 -0.4830
   29SAPC  C212 3875   3.088   3.728   7.494  0.5424 -0.3214  0.3095
   29SAPC  H12R 3876   3.184   3.724   7.546  1.2294  0.9980 -0.7879
   29SAPC  C213 3877   2.989   3.822   7.556  0.3111  0.1126  0.3568
   29SAPC  H13R 3878   2.944   3.774   7.645  0.0750  1.9132  1.2661
   29SAPC  H13S 3879   2.904   3.832   7.485  0.4854 -2.0099 -0.1961
   29SAPC  C214 3880   3.042   3.960   7.575  0.3039  0.1619  0.2552
   29SAPC  H14R 3881   3.048   4.028   7.489 -2.9580 -0.3096 -0.4993
   29SAPC  C215 3882   3.063   4.016   7.694 -0.0067  0.5921 -0.1852
   29SAPC  H15R 3883   3.075   4.125   7.688 -0.4462  0.5656 -2.1494
   29SAPC  C216 3884   3.042   3.955   7.829  0.2059  0.0372  0.8135
   29SAPC  H16R 3885   3.121   3.983   7.901  0.5736 -3.8135  2.1737
   29SAPC  H16S 3886   3.055   3.844   7.825 -3.2075 -0.4369 -1.2452
   29SAPC  C217 3887   2.895   3.971   7.877  0.0878  0.3520 -0.9751
   29SAPC  H17R 3888   2.824   3.933   7.800 -2.4465 -2.5596  2.4405
   29SAPC  H17S 3889   2.868   4.078   7.891  1.3987  0.7590 -1.3922
   29SAPC  C218 3890   2.865   3.898   8.010  0.0398 -0.1950 -0.1109
   29SAPC  H18R 3891   2.879   3.788   8.000  0.2422 -0.1742 -0.0527
   29SAPC  H18S 3892   2.759   3.912   8.040 -0.0213  1.3395 -0.9389
   29SAPC  C219 3893   2.953   3.938   8.130  0.2973 -0.6358 -0.0347
   29SAPC  H19R 3894   3.001   4.038   8.118 -2.1830  0.4269 -1.9453
   29SAPC  H19S 3895   3.040   3.871   8.144  1.1348  0.4612  0.1750
   29SAPC  C220 3896   2.875   3.941   8.267 -0.0643 -0.0408 -0.6443
   29SAPC  H20R 3897   2.841   3.840   8.299  0.6301  0.2305  1.0828
   29SAPC  H20S 3898   2.787   4.008   8.271  0.5792  0.7747  0.5606
   29SAPC  H20T 3899   2.944   3.981   8.345 -2.0771 -0.0453  1.2387
   29SAPC   C33 3900   3.135   2.908   6.991  0.1519  0.4114 -0.3485
   29SAPC   H3X 3901   3.173   3.005   6.953 -1.2102  0.7803 -0.8093
   29SAPC   H3Y 3902   3.207   2.831   6.957  0.0688  0.5727 -0.8956
   29SAPC   C34 3903   3.130   2.905   7.142 -0.8169  0.0417  0.5978
   29SAPC   H4X 3904   3.056   2.977   7.182 -4.0525 -2.0363 -1.2317
   29SAPC   H4Y 3905   3.234   2.919   7.179 -0.5651 -0.8093  0.2458
   29SAPC   C35 3906   3.107   2.755   7.191 -0.2457  0.2733  0.3867
   29SAPC   H5X 3907   3.171   2.680   7.140 -0.2984  0.2005  0.4260
   29SAPC   H5Y 3908   3.002   2.721   7.176 -0.0284 -1.7576  2.7675
   29SAPC   C36 3909   3.149   2.727   7.335 -0.2533  0.1375  0.2077
   29SAPC   H6X 3910   3.259   2.715   7.339 -0.2868 -0.8342 -1.1549
   29SAPC   H6Y 3911   3.101   2.631   7.362 -0.0351 -0.2470 -0.7369
   29SAPC   C37 3912   3.097   2.828   7.435 -0.0699  0.1103  0.0820
   29SAPC   H7X 3913   2.986   2.829   7.442 -0.3349 -4.6000 -0.7175
   29SAPC   H7Y 3914   3.131   2.931   7.410  1.7493  0.0279  1.8926
   29SAPC   C38 3915   3.143   2.802   7.573  0.1367 -0.1297 -0.1936
   29SAPC   H8X 3916   3.252   2.820   7.564 -0.0488  1.6054  0.6752
   29SAPC   H8Y 3917   3.137   2.693   7.595  0.8388  0.0207  0.7711
   29SAPC   C39 3918   3.072   2.899   7.675  0.0786 -0.0502  0.1927
   29SAPC   H9X 3919   2.987   2.848   7.725  1.4169 -2.4975  0.1555
   29SAPC   H9Y 3920   3.040   2.992   7.624  1.7040 -0.3673 -1.5052
   29SAPC  C310 3921   3.151   2.951   7.799 -0.1217  0.1498 -0.1280
   29SAPC  H10X 3922   3.096   3.023   7.864 -0.6730 -0.9418  0.6505
   29SAPC  H10Y 3923   3.244   3.006   7.769  1.5610 -1.2295  2.2064
   29SAPC  C311 3924   3.190   2.838   7.889 -0.0340  0.5767 -0.9294
   29SAPC  H11X 3925   3.243   2.889   7.972  0.3686 -0.5611 -0.4657
   29SAPC  H11Y 3926   3.263   2.765   7.847  0.3980 -1.1700  2.4994
   29SAPC  C312 3927   3.071   2.765   7.956  0.0191  0.4437 -0.2090
   29SAPC  H12X 3928   3.074   2.659   7.925  1.1382  0.7153 -1.0890
   29SAPC  H12Y 3929   2.970   2.800   7.923 -1.0679 -1.1381  1.2582
   29SAPC  C313 3930   3.069   2.791   8.105  0.5751 -0.2186 -0.2593
   29SAPC  H13X 3931   3.045   2.895   8.135 -0.3410 -0.5403  0.1803
   29SAPC  H13Y 3932   3.170   2.771   8.145  0.9865  0.0404 -1.1412
   29SAPC  C314 3933   2.965   2.710   8.185 -1.1354 -0.1495 -0.0706
   29SAPC  H14X 3934   2.974   2.600   8.169  1.4004 -0.4647  2.7276
   29SAPC  H14Y 3935   2.862   2.748   8.172 -2.1389 -1.4157  3.0897
   29SAPC  C315 3936   2.988   2.715   8.336 -0.1738 -0.7714 -0.2172
   29SAPC  H15X 3937   2.990   2.820   8.371  0.9054 -1.0463  0.6049
   29SAPC  H15Y 3938   3.091   2.677   8.355  0.2834 -0.9735 -2.6791
   29SAPC  C316 3939   2.877   2.641   8.420 -0.1982  0.2095  0.4450
   29SAPC  H16X 3940   2.922   2.569   8.492 -0.1422  0.4043  0.6053
   29SAPC  H16Y 3941   2.816   2.582   8.347 -0.5254  0.8661  0.1836
   29SAPC  C317 3942   2.773   2.727   8.493 -0.1113 -0.3262 -0.1848
   29SAPC  H17X 3943   2.820   2.774   8.582 -0.5090 -0.1161 -0.0827
   29SAPC  H17Y 3944   2.694   2.661   8.534  2.1618 -2.9860  0.1564
   29SAPC  C318 3945   2.722   2.840   8.405  0.3929  0.1194 -0.0715
   29SAPC  H18X 3946   2.807   2.904   8.372  1.0762 -0.5065  0.4559
   29SAPC  H18Y 3947   2.643   2.894   8.462 -1.8265 -3.3459  0.4466
   29SAPC  H18Z 3948   2.674   2.799   8.313  0.3622 -0.2317  0.1005
   30SAPC     N 3949   3.103   1.711   6.065  0.1313 -0.3798 -0.0040
   30SAPC   C12 3950   3.078   1.794   6.185 -0.3309  0.0876 -0.0145
   30SAPC  H12A 3951   3.058   1.729   6.269  2.0460  1.6523  1.8843
   30SAPC  H12B 3952   2.992   1.855   6.162 -0.1511 -0.1023 -1.3029
   30SAPC   C13 3953   3.234   1.636   6.074  0.5144 -0.2967 -0.0696
   30SAPC  H13A 3954   3.315   1.705   6.091  1.8168 -1.9990  1.0851
   30SAPC  H13B 3955   3.231   1.572   6.161 -1.8574 -0.5692 -0.2883
   30SAPC  H13C 3956   3.261   1.570   5.993 -0.6235 -2.0608  0.9296
   30SAPC   C14 3957   2.979   1.619   6.045 -0.7258  0.0009  0.3214
   30SAPC  H14A 3958   2.971   1.557   6.133 -1.6750  0.0941  0.3145
   30SAPC  H14B 3959   2.894   1.681   6.019  0.4730  1.0320 -1.2757
   30SAPC  H14C 3960   2.994   1.548   5.965 -0.0084  0.9775 -0.4348
   30SAPC   C15 3961   3.108   1.808   5.951 -0.0199 -0.7441  0.2118
   30SAPC  H15A 3962   3.016   1.856   5.921 -0.4066 -2.2061 -1.0896
   30SAPC  H15B 3963   3.172   1.891   5.977 -0.2951 -0.5460  0.2520
   30SAPC  H15C 3964   3.140   1.758   5.860  0.3824  0.4120 -0.2989
   30SAPC   C11 3965   3.183   1.894   6.243  0.4937  0.6436  0.2607
   30SAPC  H11A 3966   3.276   1.839   6.270 -0.3937 -2.0898 -1.7299
   30SAPC  H11B 3967   3.138   1.938   6.335  0.9984  1.8547 -0.0551
   30SAPC     P 3968   3.320   2.100   6.172  0.1200  0.0039  0.0654
   30SAPC   O13 3969   3.453   2.041   6.131  0.3214 -0.2467  0.1542
   30SAPC   O14 3970   3.280   2.221   6.100  0.4211 -0.3498  0.0465
   30SAPC   O12 3971   3.211   1.992   6.141  0.0306  0.0692 -0.0236
   30SAPC   O11 3972   3.329   2.119   6.330 -0.1429 -0.7608  0.4554
   30SAPC    C1 3973   3.232   2.199   6.401 -0.7417  0.4041 -0.1311
   30SAPC    HA 3974   3.235   2.305   6.369 -1.3891  0.6439  0.5670
   30SAPC    HB 3975   3.133   2.156   6.373  0.2427 -1.4536 -0.9033
   30SAPC    C2 3976   3.254   2.176   6.556  0.1679 -0.3714 -0.1088
   30SAPC    HS 3977   3.163   2.213   6.607  0.5719  0.1186  0.2725
   30SAPC   O21 3978   3.374   2.237   6.604 -0.3495  0.4515  0.0705
   30SAPC   C21 3979   3.360   2.372   6.604  0.2239 -0.8392  0.0962
   30SAPC   O22 3980   3.267   2.434   6.557 -0.0212  0.2558  0.4143
   30SAPC   C22 3981   3.487   2.433   6.665 -0.2744 -0.5044 -0.6561
   30SAPC   H2R 3982   3.572   2.401   6.602  0.3231 -0.7038  0.2449
   30SAPC   H2S 3983   3.476   2.544   6.658 -2.9062 -0.7798 -3.1222
   30SAPC    C3 3984   3.252   2.031   6.590  0.2234  0.0899 -0.1215
   30SAPC    HX 3985   3.315   1.972   6.521 -1.3501 -0.6437 -0.9837
   30SAPC    HY 3986   3.154   1.988   6.559  0.9114 -1.0026 -0.8312
   30SAPC   O31 3987   3.263   2.013   6.731 -0.0625  0.2263 -0.1874
   30SAPC   C31 3988   3.393   1.989   6.770 -0.2342 -0.3628  0.7795
   30SAPC   O32 3989   3.490   1.973   6.702 -0.1971  0.5658  0.3619
   30SAPC   C32 3990   3.403   2.011   6.925 -0.5513 -0.4117  0.1283
   30SAPC   H2X 3991   3.347   1.930   6.976 -0.9387 -0.9518 -1.1384
   30SAPC   H2Y 3992   3.362   2.110   6.956 -2.1929 -1.4641  1.5600
   30SAPC   C23 3993   3.520   2.391   6.807 -0.5269 -0.6867 -0.0477
   30SAPC   H3R 3994   3.618   2.442   6.819 -0.9372  0.1032 -0.0214
   30SAPC   H3S 3995   3.529   2.281   6.823  0.0995 -0.5256  0.8180
   30SAPC   C24 3996   3.418   2.420   6.922  0.1818 -0.2865  0.6997
   30SAPC   H4R 3997   3.449   2.368   7.015  0.5883  0.5477  1.0472
   30SAPC   H4S 3998   3.318   2.384   6.891 -0.3647 -0.5262  2.6454
   30SAPC   C25 3999   3.410   2.568   6.957  0.4162  1.1059  0.5924
   30SAPC   H5R 4000   3.338   2.629   6.902 -2.3098 -1.0768  1.4971
   30SAPC   C26 4001   3.483   2.616   7.052 -0.0260 -0.1499 -0.2230
   30SAPC   H6R 4002   3.485   2.725   7.069  1.7195 -0.5119  2.4200
   30SAPC   C27 4003   3.594   2.543   7.138 -0.4512  0.1274 -0.0911
   30SAPC   H7R 4004   3.665   2.515   7.057  1.1800 -0.3390  1.4253
   30SAPC   H7S 4005   3.545   2.455   7.186 -1.1506 -0.0911 -1.1610
   30SAPC   C28 4006   3.671   2.629   7.235  0.4604  0.0632  0.6704
   30SAPC   H8R 4007   3.734   2.710   7.194  0.5367  1.3773  3.1727
   30SAPC   C29 4008   3.654   2.627   7.366 -0.8244 -0.0159 -0.4180
   30SAPC   H9R 4009   3.713   2.697   7.428 -1.0870  0.6811 -0.9358
   30SAPC  C210 4010   3.568   2.535   7.450 -0.4155 -0.1137 -0.2427
   30SAPC  H10R 4011   3.475   2.536   7.389 -0.2014 -1.6290 -0.6315
   30SAPC  H10S 4012   3.538   2.578   7.547 -0.1735  1.4235 -0.8258
   30SAPC  C211 4013   3.611   2.391   7.475 -0.1431  0.2687  0.1725
   30SAPC  H11R 4014   3.572   2.321   7.401 -1.9603 -0.8395  2.0777
   30SAPC  C212 4015   3.664   2.340   7.586  0.0784  0.2877 -0.1652
   30SAPC  H12R 4016   3.682   2.232   7.578 -1.9158 -0.0064 -1.3003
   30SAPC  C213 4017   3.718   2.420   7.707 -0.7643 -0.0460  0.1346
   30SAPC  H13R 4018   3.721   2.527   7.676 -1.8467 -0.4722 -1.6108
   30SAPC  H13S 4019   3.822   2.394   7.734 -0.5367  1.1673  0.4740
   30SAPC  C214 4020   3.635   2.406   7.830  0.5197  0.5090 -0.5465
   30SAPC  H14R 4021   3.581   2.310   7.833 -0.8947  1.1700 -2.8223
   30SAPC  C215 4022   3.636   2.498   7.930 -0.4777 -0.5109  0.0911
   30SAPC  H15R 4023   3.571   2.479   8.017 -2.4397  0.3267 -1.1261
   30SAPC  C216 4024   3.710   2.631   7.927  0.0395  0.0520  0.2487
   30SAPC  H16R 4025   3.788   2.652   7.851  0.4189  2.1852  1.1456
   30SAPC  H16S 4026   3.782   2.634   8.011  1.6554  0.9109 -1.1088
   30SAPC  C217 4027   3.632   2.753   7.922  0.0551 -0.0334 -0.3808
   30SAPC  H17R 4028   3.692   2.846   7.926 -0.7354  0.4443  1.7686
   30SAPC  H17S 4029   3.563   2.763   8.009 -0.6120 -1.7281 -0.6729
   30SAPC  C218 4030   3.549   2.779   7.791 -0.0199 -0.4734 -0.1318
   30SAPC  H18R 4031   3.477   2.862   7.809  1.1169  0.7230 -0.8759
   30SAPC  H18S 4032   3.480   2.696   7.767 -0.2188 -0.4429  0.3178
   30SAPC  C219 4033   3.634   2.829   7.671 -0.3255 -0.6315  0.0718
   30SAPC  H19R 4034   3.699   2.741   7.648  3.3438  1.4176  1.6610
   30SAPC  H19S 4035   3.694   2.914   7.711 -1.0304  0.3154 -0.8222
   30SAPC  C220 4036   3.550   2.886   7.555  0.6867 -0.3636  0.3819
   30SAPC  H20R 4037   3.480   2.961   7.597  0.9625  0.9456 -1.4085
   30SAPC  H20S 4038   3.499   2.803   7.503 -0.1603 -0.5550  1.4836
   30SAPC  H20T 4039   3.606   2.936   7.473 -0.3547  0.0507 -0.0881
   30SAPC   C33 4040   3.553   2.006   6.973 -0.4682  0.6713  0.5622
   30SAPC   H3X 4041   3.604   2.086   6.915 -1.2776  2.2281  1.8895
   30SAPC   H3Y 4042   3.594   1.908   6.943  0.0115  0.4076  2.0158
   30SAPC   C34 4043   3.581   2.048   7.118 -0.3882 -0.3063 -0.4532
   30SAPC   H4X 4044   3.567   2.157   7.134  0.1632 -0.5166  1.7272
   30SAPC   H4Y 4045   3.688   2.021   7.134 -0.2950  0.6096  0.5139
   30SAPC   C35 4046   3.500   1.972   7.225  0.1015 -0.1341 -0.3180
   30SAPC   H5X 4047   3.506   1.861   7.217 -0.5305 -0.1648 -0.3896
   30SAPC   H5Y 4048   3.392   1.991   7.207  0.3862 -0.3596 -2.4918
   30SAPC   C36 4049   3.538   2.009   7.370  0.4677 -0.5253 -0.0907
   30SAPC   H6X 4050   3.508   2.115   7.383 -0.2824 -0.6201 -0.9530
   30SAPC   H6Y 4051   3.647   2.011   7.392  0.1566 -0.0457  1.5087
   30SAPC   C37 4052   3.476   1.915   7.474  0.7736 -0.0613  0.4227
   30SAPC   H7X 4053   3.499   1.807   7.463  0.8183 -0.1702  1.4812
   30SAPC   H7Y 4054   3.366   1.919   7.466  0.7791 -0.8383 -0.1454
   30SAPC   C38 4055   3.510   1.955   7.619  0.0434 -0.4095 -0.6109
   30SAPC   H8X 4056   3.511   2.065   7.627 -2.3877 -0.4068  0.2948
   30SAPC   H8Y 4057   3.607   1.912   7.653  0.3617 -0.3213 -1.3830
   30SAPC   C39 4058   3.388   1.934   7.712  0.5910 -0.4464 -0.4619
   30SAPC   H9X 4059   3.345   1.837   7.680  0.5035  0.2263 -2.5626
   30SAPC   H9Y 4060   3.318   2.011   7.673 -1.6044 -2.6603 -1.1310
   30SAPC  C310 4061   3.423   1.960   7.852  0.1423 -0.3830 -0.3264
   30SAPC  H10X 4062   3.483   2.054   7.854 -2.0141  1.0947 -0.7701
   30SAPC  H10Y 4063   3.487   1.878   7.890 -0.0162 -0.5957 -0.5187
   30SAPC  C311 4064   3.300   1.979   7.945 -0.0053  0.6817 -0.1406
   30SAPC  H11X 4065   3.233   1.892   7.927 -1.9937  2.3946 -1.3982
   30SAPC  H11Y 4066   3.232   2.056   7.902  0.8543  1.3085 -0.3953
   30SAPC  C312 4067   3.337   1.981   8.097  0.0275 -1.0599  0.5723
   30SAPC  H12X 4068   3.254   2.042   8.140  0.3680 -0.6498  0.6631
   30SAPC  H12Y 4069   3.426   2.044   8.120 -0.8960 -0.2691  2.1685
   30SAPC  C313 4070   3.349   1.845   8.173  0.2469 -0.1760 -0.1008
   30SAPC  H13X 4071   3.285   1.768   8.125 -1.7444  0.6096  1.1539
   30SAPC  H13Y 4072   3.305   1.870   8.272 -0.3775  2.5134 -0.9772
   30SAPC  C314 4073   3.492   1.802   8.205 -0.3962  0.1753  0.2380
   30SAPC  H14X 4074   3.540   1.874   8.275 -3.5096 -0.2911  3.1347
   30SAPC  H14Y 4075   3.545   1.798   8.108 -0.6771 -1.6027  0.1225
   30SAPC  C315 4076   3.493   1.657   8.273  0.8013 -0.1417  0.1007
   30SAPC  H15X 4077   3.582   1.612   8.223  0.6057  0.0999 -0.4763
   30SAPC  H15Y 4078   3.399   1.603   8.249 -0.4794  0.7798  2.6684
   30SAPC  C316 4079   3.503   1.660   8.420 -0.0869  0.8200 -0.1943
   30SAPC  H16X 4080   3.422   1.710   8.478 -1.4165 -1.5220  0.0857
   30SAPC  H16Y 4081   3.598   1.707   8.455  0.1859  1.0840 -1.2734
   30SAPC  C317 4082   3.500   1.510   8.475  0.4715  0.4297  0.0976
   30SAPC  H17X 4083   3.405   1.466   8.438  0.6613 -0.4694  0.6468
   30SAPC  H17Y 4084   3.502   1.518   8.586 -0.3279 -0.5847  0.1958
   30SAPC  C318 4085   3.613   1.419   8.430 -0.0473 -0.2630 -0.3791
   30SAPC  H18X 4086   3.582   1.319   8.469 -2.7847  0.2232 -1.0931
   30SAPC  H18Y 4087   3.717   1.447   8.456 -0.2771  0.5899 -0.3758
   30SAPC  H18Z 4088   3.606   1.411   8.319  2.7500 -2.8092 -0.5027
   31SAPC     N 4089   6.554   4.727   5.695 -0.5193 -0.3232 -0.1561
   31SAPC   C12 4090   6.624   4.728   5.826  0.5470  0.2459 -0.1381
   31SAPC  H12A 4091   6.691   4.643   5.829 -0.0657 -0.2385  2.6796
   31SAPC  H12B 4092   6.554   4.695   5.902 -0.9338  1.6207 -0.8560
   31SAPC   C13 4093   6.514   4.585   5.662  0.5423 -0.6775 -0.3453
   31SAPC  H13A 4094   6.598   4.518   5.656 -0.0136 -1.3324 -1.1558
   31SAPC  H13B 4095   6.429   4.557   5.724 -1.3961  1.8980 -1.6569
   31SAPC  H13C 4096   6.459   4.580   5.569 -2.9273  0.4303  1.4650
   31SAPC   C14 4097   6.430   4.808   5.700 -0.9098  0.5560  0.0773
   31SAPC  H14A 4098   6.356   4.760   5.762 -0.4874 -2.1653 -1.4031
   31SAPC  H14B 4099   6.449   4.905   5.744  1.0348 -0.4724  1.6478
   31SAPC  H14C 4100   6.385   4.829   5.604 -0.1263 -1.4931 -0.7741
   31SAPC   C15 4101   6.645   4.777   5.584  1.2497 -0.0232 -0.0433
   31SAPC  H15A 4102   6.646   4.884   5.592  1.7662 -0.1748  2.5157
   31SAPC  H15B 4103   6.745   4.738   5.588  1.4700  0.6283  1.3246
   31SAPC  H15C 4104   6.606   4.746   5.488  0.8529 -0.1812  0.1666
   31SAPC   C11 4105   6.704   4.852   5.876  0.2901 -0.0814  0.3845
   31SAPC  H11A 4106   6.698   4.858   5.987 -1.5328 -0.0382  0.3128
   31SAPC  H11B 4107   6.645   4.939   5.838  1.0029 -0.4148 -1.5869
   31SAPC     P 4108   6.944   4.725   5.860 -0.1958  0.2953  0.1700
   31SAPC   O13 4109   6.908   4.615   5.769  0.6231  0.1449 -0.2857
   31SAPC   O14 4110   7.083   4.773   5.848 -0.1279 -0.3893  0.1095
   31SAPC   O12 4111   6.842   4.840   5.833 -0.3331  0.0563 -0.1097
   31SAPC   O11 4112   6.912   4.670   6.006  0.3156  0.0418 -0.2413
   31SAPC    C1 4113   6.932   4.754   6.120 -0.3201 -0.2378  0.2193
   31SAPC    HA 4114   6.992   4.844   6.095  0.9234 -1.6085 -2.0959
   31SAPC    HB 4115   6.837   4.799   6.156 -1.1898 -1.8283 -0.0018
   31SAPC    C2 4116   7.017   4.683   6.231  0.7246 -0.5352 -0.2758
   31SAPC    HS 4117   7.123   4.669   6.201  1.2644 -1.7046  1.9189
   31SAPC   O21 4118   6.954   4.553   6.263  0.5309  0.5333 -0.0625
   31SAPC   C21 4119   7.018   4.445   6.231 -0.4782 -0.5232 -0.2112
   31SAPC   O22 4120   7.132   4.439   6.190 -0.3511  0.2611 -0.1482
   31SAPC   C22 4121   6.922   4.327   6.271  0.0029  0.0055 -0.6613
   31SAPC   H2R 4122   6.898   4.329   6.379 -3.6705  2.1825 -1.3378
   31SAPC   H2S 4123   6.827   4.340   6.214  0.8482 -1.1948 -2.4644
   31SAPC    C3 4124   7.022   4.773   6.360 -0.4392 -0.1696 -0.5048
   31SAPC    HX 4125   6.922   4.761   6.407  0.1357  2.0946  1.5354
   31SAPC    HY 4126   7.032   4.880   6.333  0.5557 -0.8500 -3.1260
   31SAPC   O31 4127   7.127   4.737   6.458  0.3867 -0.0408 -0.0261
   31SAPC   C31 4128   7.254   4.766   6.421  0.2522 -0.0165  0.5684
   31SAPC   O32 4129   7.277   4.817   6.314  0.2115  0.5788 -0.7379
   31SAPC   C32 4130   7.351   4.757   6.541 -1.1706  0.5920  0.4742
   31SAPC   H2X 4131   7.314   4.702   6.631 -0.5837  0.8266  0.8665
   31SAPC   H2Y 4132   7.353   4.862   6.578  0.4890  0.3134  1.2904
   31SAPC   C23 4133   6.992   4.188   6.238  0.8467  0.4258  0.0472
   31SAPC   H3R 4134   7.006   4.180   6.128  0.8100  3.0907 -0.2011
   31SAPC   H3S 4135   6.914   4.119   6.277  1.1677  1.4610  2.7164
   31SAPC   C24 4136   7.119   4.161   6.318  1.0589 -0.6547  0.1893
   31SAPC   H4R 4137   7.196   4.235   6.289 -0.8635  0.6879 -1.8694
   31SAPC   H4S 4138   7.147   4.063   6.274 -1.5192  0.0273 -3.4645
   31SAPC   C25 4139   7.084   4.151   6.462 -0.3609  0.0076  0.3440
   31SAPC   H5R 4140   7.006   4.075   6.477  0.1794 -0.0613  3.5089
   31SAPC   C26 4141   7.116   4.238   6.559  0.3605  0.6855  0.0441
   31SAPC   H6R 4142   7.089   4.208   6.662 -1.1509  1.6229 -0.0396
   31SAPC   C27 4143   7.199   4.365   6.556  0.1101  0.0071 -0.3000
   31SAPC   H7R 4144   7.222   4.403   6.454 -0.8719 -0.2305 -0.6188
   31SAPC   H7S 4145   7.299   4.346   6.601 -0.9885 -0.3808  2.1460
   31SAPC   C28 4146   7.126   4.475   6.636 -0.5123  0.4890 -0.0455
   31SAPC   H8R 4147   7.040   4.514   6.578  0.1830  0.4107 -1.1532
   31SAPC   C29 4148   7.163   4.543   6.752 -0.2484  0.3620 -0.9127
   31SAPC   H9R 4149   7.095   4.621   6.789 -0.8931 -0.7180  0.2660
   31SAPC  C210 4150   7.293   4.523   6.827 -0.0521 -0.0414 -0.0206
   31SAPC  H10R 4151   7.368   4.475   6.761 -1.5321 -3.1037  0.3223
   31SAPC  H10S 4152   7.273   4.439   6.897  2.2815 -0.9001 -0.2750
   31SAPC  C211 4153   7.327   4.647   6.902 -0.2359  0.0136 -0.6470
   31SAPC  H11R 4154   7.348   4.740   6.849  0.9129  2.0094  2.9861
   31SAPC  C212 4155   7.353   4.645   7.036 -0.4536 -0.5584 -0.6102
   31SAPC  H12R 4156   7.388   4.742   7.073  0.8350  0.1764 -3.4636
   31SAPC  C213 4157   7.358   4.530   7.135  0.2848 -0.4561 -0.6238
   31SAPC  H13R 4158   7.433   4.555   7.213 -0.3869  2.1165 -0.7048
   31SAPC  H13S 4159   7.389   4.436   7.083  0.6275 -0.1295 -1.0237
   31SAPC  C214 4160   7.231   4.498   7.202  0.1003 -0.0628  0.2074
   31SAPC  H14R 4161   7.145   4.521   7.137  1.1621 -2.6991 -2.3444
   31SAPC  C215 4162   7.212   4.447   7.326 -0.3520  0.1143 -0.1734
   31SAPC  H15R 4163   7.117   4.429   7.378 -0.8612 -1.1418 -1.4679
   31SAPC  C216 4164   7.333   4.407   7.411  1.2083 -0.0443 -0.5092
   31SAPC  H16R 4165   7.403   4.491   7.432  0.2140  0.5323  0.5974
   31SAPC  H16S 4166   7.399   4.326   7.373  1.7511 -0.3734  1.0641
   31SAPC  C217 4167   7.271   4.357   7.545  0.6693 -0.4070  0.1739
   31SAPC  H17R 4168   7.212   4.264   7.531  0.4174 -0.3056  0.5635
   31SAPC  H17S 4169   7.201   4.431   7.591  0.0086 -1.7803  1.4260
   31SAPC  C218 4170   7.373   4.320   7.646  0.4978 -0.0499  0.2384
   31SAPC  H18R 4171   7.469   4.289   7.600  1.4414  0.3362  1.8416
   31SAPC  H18S 4172   7.340   4.236   7.710  1.8328 -0.0135  1.0150
   31SAPC  C219 4173   7.401   4.435   7.747  0.6872 -0.3627 -0.7215
   31SAPC  H19R 4174   7.452   4.387   7.833  1.7542  0.7349 -0.7133
   31SAPC  H19S 4175   7.304   4.486   7.759  0.2132 -1.3466 -0.2531
   31SAPC  C220 4176   7.502   4.532   7.684  0.2062  0.4188 -0.1742
   31SAPC  H20R 4177   7.541   4.612   7.751 -1.0724  1.4735 -0.6548
   31SAPC  H20S 4178   7.456   4.586   7.598  2.2138  2.0940 -0.2687
   31SAPC  H20T 4179   7.588   4.480   7.636 -1.3106 -0.4721 -2.0684
   31SAPC   C33 4180   7.492   4.719   6.493  0.0891 -0.1919  0.0514
   31SAPC   H3X 4181   7.530   4.785   6.411  0.1448  0.4143  0.5538
   31SAPC   H3Y 4182   7.493   4.621   6.441 -1.9672  0.3509 -1.1086
   31SAPC   C34 4183   7.592   4.710   6.611 -0.2435 -0.0384  0.6937
   31SAPC   H4X 4184   7.675   4.655   6.562 -2.7683 -1.4418 -2.3596
   31SAPC   H4Y 4185   7.545   4.650   6.692 -0.0948  1.1644  1.7106
   31SAPC   C35 4186   7.645   4.846   6.658 -0.1654  0.2020 -0.5374
   31SAPC   H5X 4187   7.560   4.914   6.638  0.0334  1.0814  1.3903
   31SAPC   H5Y 4188   7.738   4.864   6.599 -0.6697 -1.1331 -1.8017
   31SAPC   C36 4189   7.651   4.856   6.816 -0.0467  0.2170  0.4092
   31SAPC   H6X 4190   7.562   4.819   6.870  0.5023 -0.1629  1.0741
   31SAPC   H6Y 4191   7.667   4.965   6.830 -0.2448  0.3409 -0.3004
   31SAPC   C37 4192   7.775   4.791   6.875 -0.3531  0.1547  0.9270
   31SAPC   H7X 4193   7.866   4.836   6.829 -0.4944 -0.4005  0.0844
   31SAPC   H7Y 4194   7.763   4.682   6.857  2.0250  0.0198 -0.1766
   31SAPC   C38 4195   7.785   4.809   7.033  0.2413  0.3619  0.3253
   31SAPC   H8X 4196   7.803   4.916   7.057  1.3001  0.3371 -0.2755
   31SAPC   H8Y 4197   7.867   4.748   7.076 -0.1518 -1.1353 -0.9553
   31SAPC   C39 4198   7.664   4.757   7.100  0.3438  0.3059  0.5362
   31SAPC   H9X 4199   7.633   4.658   7.060 -1.0375  0.2574  1.6035
   31SAPC   H9Y 4200   7.579   4.826   7.077  0.4939 -0.3941 -2.4509
   31SAPC  C310 4201   7.671   4.747   7.253 -0.0462  0.2219 -0.8126
   31SAPC  H10X 4202   7.774   4.756   7.294 -0.0457  2.3423 -1.1563
   31SAPC  H10Y 4203   7.618   4.656   7.286 -0.4082  0.4140 -0.8614
   31SAPC  C311 4204   7.592   4.858   7.333 -0.5349 -0.2974  0.7357
   31SAPC  H11X 4205   7.487   4.823   7.321 -0.6527 -0.2261  1.5047
   31SAPC  H11Y 4206   7.603   4.964   7.302 -0.6148 -0.2987  0.7022
   31SAPC  C312 4207   7.635   4.859   7.476  0.5895 -0.2925 -0.7161
   31SAPC  H12X 4208   7.742   4.886   7.486  0.6568 -1.1113  1.4464
   31SAPC  H12Y 4209   7.641   4.751   7.502  3.1809 -0.6695 -2.5347
   31SAPC  C313 4210   7.546   4.940   7.563  0.3369 -0.0207 -0.6727
   31SAPC  H13X 4211   7.455   4.879   7.546  0.8532 -0.9602 -0.1403
   31SAPC  H13Y 4212   7.523   5.042   7.526 -3.6163 -1.1593 -1.8093
   31SAPC  C314 4213   7.576   4.943   7.715 -0.1211  0.4175 -0.8676
   31SAPC  H14X 4214   7.654   5.021   7.731  0.1313  0.2435 -1.2238
   31SAPC  H14Y 4215   7.612   4.842   7.744 -0.6094 -0.9810 -4.6232
   31SAPC  C315 4216   7.453   4.986   7.793  0.5222 -0.2547  0.2339
   31SAPC  H15X 4217   7.376   4.907   7.790  0.9512 -0.7638  1.8114
   31SAPC  H15Y 4218   7.424   5.083   7.745 -0.9459  1.8952  4.9141
   31SAPC  C316 4219   7.475   5.026   7.943 -0.5316  0.3113  0.5644
   31SAPC  H16X 4220   7.369   5.047   7.972  0.1613  2.4689  1.7500
   31SAPC  H16Y 4221   7.525   5.125   7.951 -1.5955  1.2817 -2.8399
   31SAPC  C317 4222   7.525   4.914   8.029  0.8362 -0.4288 -0.6709
   31SAPC  H17X 4223   7.620   4.881   7.982  1.4074 -0.3415  0.4104
   31SAPC  H17Y 4224   7.453   4.829   8.033 -1.5964  1.5088  3.6861
   31SAPC  C318 4225   7.536   4.959   8.176 -0.2133 -0.2891  0.0175
   31SAPC  H18X 4226   7.433   4.980   8.213 -1.3291 -0.1500 -2.8477
   31SAPC  H18Y 4227   7.593   5.050   8.204 -2.0333  1.2340 -0.9865
   31SAPC  H18Z 4228   7.585   4.877   8.233 -0.2980 -0.0950  0.3712
   32SAPC     N 4229   3.288   0.455   5.760  0.1332 -0.0989 -0.3738
   32SAPC   C12 4230   3.211   0.453   5.894  0.6913 -0.4149 -0.3322
   32SAPC  H12A 4231   3.246   0.541   5.946  0.8139 -0.3277 -0.5607
   32SAPC  H12B 4232   3.234   0.365   5.952  0.2769  0.3244  1.0000
   32SAPC   C13 4233   3.271   0.582   5.689  0.0730 -0.5178  0.1598
   32SAPC  H13A 4234   3.322   0.661   5.741  0.3402 -0.9062  0.4991
   32SAPC  H13B 4235   3.313   0.572   5.590  1.2506  1.8635  0.3490
   32SAPC  H13C 4236   3.167   0.610   5.689 -0.0439 -0.8167  1.7741
   32SAPC   C14 4237   3.435   0.440   5.780 -0.5273 -0.5991 -0.1080
   32SAPC  H14A 4238   3.455   0.366   5.856 -1.0190 -1.1146 -0.4713
   32SAPC  H14B 4239   3.485   0.421   5.686  0.4254 -0.6018  0.3943
   32SAPC  H14C 4240   3.486   0.519   5.833 -0.4520 -0.8228  0.1525
   32SAPC   C15 4241   3.252   0.333   5.676  0.0897 -0.0676  0.2474
   32SAPC  H15A 4242   3.313   0.324   5.588  2.9627 -1.0651  2.1863
   32SAPC  H15B 4243   3.272   0.244   5.734  1.5444  0.1251  0.0780
   32SAPC  H15C 4244   3.146   0.333   5.656 -0.1384 -0.7028  1.3801
   32SAPC   C11 4245   3.058   0.461   5.892 -0.1157  0.4586  0.7842
   32SAPC  H11A 4246   3.012   0.521   5.810  0.9497 -1.0398 -0.9959
   32SAPC  H11B 4247   3.021   0.499   5.990  3.3543  1.3959  1.8742
   32SAPC     P 4248   2.997   0.209   5.970 -0.6939  0.1250 -0.2182
   32SAPC   O13 4249   2.854   0.175   5.960  0.0812 -0.2287 -0.7754
   32SAPC   O14 4250   3.104   0.116   5.934 -0.1370  0.3056  0.2892
   32SAPC   O12 4251   3.014   0.327   5.870  0.3311 -0.0071 -0.1574
   32SAPC   O11 4252   3.045   0.259   6.113  0.4793 -0.2254  0.1702
   32SAPC    C1 4253   2.973   0.354   6.200  0.0738 -0.1894  0.9374
   32SAPC    HA 4254   3.047   0.429   6.235  2.5599 -2.4387  0.8511
   32SAPC    HB 4255   2.899   0.408   6.138  1.8193  0.0140 -1.1109
   32SAPC    C2 4256   2.907   0.279   6.324 -0.3249  0.3154 -0.2295
   32SAPC    HS 4257   2.846   0.359   6.372 -0.9539 -0.3279  0.0741
   32SAPC   O21 4258   3.007   0.215   6.398  0.5660 -0.6995 -0.2999
   32SAPC   C21 4259   3.049   0.287   6.506 -0.4456  0.6291 -0.4212
   32SAPC   O22 4260   3.005   0.400   6.534 -0.6014  0.1982 -0.6732
   32SAPC   C22 4261   3.166   0.210   6.575  0.0358 -0.5414 -0.3696
   32SAPC   H2R 4262   3.139   0.102   6.582  0.5489 -0.5798  1.3422
   32SAPC   H2S 4263   3.250   0.216   6.503  2.1678 -1.2543  1.9537
   32SAPC    C3 4264   2.806   0.165   6.278 -0.0767  0.0760  0.4107
   32SAPC    HX 4265   2.868   0.080   6.243  1.2691  1.1123  0.1796
   32SAPC    HY 4266   2.752   0.216   6.194  1.7445  1.6462  0.1171
   32SAPC   O31 4267   2.713   0.121   6.385  0.3432  0.3581  0.4851
   32SAPC   C31 4268   2.587   0.180   6.389 -0.0135 -0.5816  0.2357
   32SAPC   O32 4269   2.541   0.261   6.310 -0.3998  0.1787  0.2611
   32SAPC   C32 4270   2.528   0.142   6.525  0.3824  0.3065  0.0196
   32SAPC   H2X 4271   2.586   0.063   6.577  0.1780 -0.2521 -0.5990
   32SAPC   H2Y 4272   2.426   0.102   6.509  1.1483 -0.8179 -2.5341
   32SAPC   C23 4273   3.210   0.262   6.712  0.6273 -0.6510  0.1190
   32SAPC   H3R 4274   3.151   0.351   6.743  0.3966 -1.3989  2.0383
   32SAPC   H3S 4275   3.318   0.288   6.711  0.3088  0.9306 -3.0617
   32SAPC   C24 4276   3.180   0.168   6.832 -0.2151 -0.3681 -0.1219
   32SAPC   H4R 4277   3.213   0.228   6.919 -0.9667  1.1312 -0.8153
   32SAPC   H4S 4278   3.245   0.079   6.820  1.6757  1.1640 -2.3297
   32SAPC   C25 4279   3.032   0.122   6.839  0.0502  0.8681 -0.5435
   32SAPC   H5R 4280   3.013   0.038   6.772  0.8299 -0.2037  0.5353
   32SAPC   C26 4281   2.937   0.166   6.926 -0.0711 -0.9434  0.2404
   32SAPC   H6R 4282   2.833   0.131   6.921 -0.4547  0.1381  0.3847
   32SAPC   C27 4283   2.962   0.274   7.027 -0.0096  0.0796  0.1865
   32SAPC   H7R 4284   3.013   0.356   6.972 -0.2851  1.6215  2.1034
   32SAPC   H7S 4285   3.037   0.238   7.101 -1.3312 -2.4734  0.4075
   32SAPC   C28 4286   2.844   0.337   7.091  0.0912 -0.1445  0.2702
   32SAPC   H8R 4287   2.780   0.388   7.018 -1.7026 -0.7231  1.3758
   32SAPC   C29 4288   2.808   0.328   7.223  0.1129  0.2347  0.1564
   32SAPC   H9R 4289   2.718   0.383   7.255  0.7961  1.3692  0.1723
   32SAPC  C210 4290   2.873   0.247   7.323 -0.5912 -0.1454 -0.3949
   32SAPC  H10R 4291   2.983   0.258   7.330 -0.5602 -0.2759 -0.6651
   32SAPC  H10S 4292   2.867   0.138   7.299 -2.0860 -0.3397  0.7337
   32SAPC  C211 4293   2.820   0.264   7.468  0.5841  0.2105  0.3183
   32SAPC  H11R 4294   2.883   0.310   7.546 -1.5860 -1.0810  3.0140
   32SAPC  C212 4295   2.705   0.222   7.513 -0.4865  0.2869 -0.6310
   32SAPC  H12R 4296   2.686   0.242   7.620  3.0851  0.5287  0.0729
   32SAPC  C213 4297   2.601   0.151   7.429  0.1372 -0.0991  0.5161
   32SAPC  H13R 4298   2.633   0.120   7.327 -1.0663 -3.4281  1.0444
   32SAPC  H13S 4299   2.523   0.227   7.406  2.2412  1.8905 -0.4960
   32SAPC  C214 4300   2.538   0.035   7.490 -0.9665  0.6527  0.8773
   32SAPC  H14R 4301   2.535   0.033   7.600  0.1956 -0.4249  0.9118
   32SAPC  C215 4302   2.486  -0.074   7.430  0.3298 -0.3678 -0.1823
   32SAPC  H15R 4303   2.433  -0.149   7.491  1.6712 -1.6243 -0.5069
   32SAPC  C216 4304   2.473  -0.095   7.278 -0.1228 -0.4608  0.3406
   32SAPC  H16R 4305   2.573  -0.096   7.230 -0.4858 -1.2038 -0.4359
   32SAPC  H16S 4306   2.428  -0.001   7.238  1.1915  0.9004  1.9194
   32SAPC  C217 4307   2.405  -0.229   7.245  0.5856 -0.4995 -0.3706
   32SAPC  H17R 4308   2.297  -0.215   7.267  0.5511 -0.6960 -0.4177
   32SAPC  H17S 4309   2.436  -0.305   7.320 -1.0195  0.4803  1.3645
   32SAPC  C218 4310   2.417  -0.292   7.108 -0.1366 -0.4957 -0.7072
   32SAPC  H18R 4311   2.398  -0.401   7.112  1.2095 -0.7147  0.3334
   32SAPC  H18S 4312   2.525  -0.285   7.080  0.1777  0.3296  0.6162
   32SAPC  C219 4313   2.338  -0.215   6.996 -0.4130 -0.2840  0.1005
   32SAPC  H19R 4314   2.386  -0.115   6.988 -1.2108  0.3711  2.7296
   32SAPC  H19S 4315   2.232  -0.221   7.030 -1.0677  0.9936 -1.5278
   32SAPC  C220 4316   2.345  -0.285   6.861  0.5611  0.1282 -0.4327
   32SAPC  H20R 4317   2.279  -0.236   6.786  1.3638 -1.3359 -2.1551
   32SAPC  H20S 4318   2.321  -0.393   6.867  0.8775  0.1092  0.9162
   32SAPC  H20T 4319   2.450  -0.274   6.826 -0.0808 -0.1579 -2.5574
   32SAPC   C33 4320   2.529   0.257   6.625 -0.3823 -0.7025 -0.5789
   32SAPC   H3X 4321   2.486   0.351   6.584  0.4936 -0.4746 -1.0078
   32SAPC   H3Y 4322   2.637   0.275   6.641 -0.5241 -2.3241  3.5102
   32SAPC   C34 4323   2.462   0.220   6.751  0.1374 -0.0170  0.3999
   32SAPC   H4X 4324   2.470   0.112   6.777 -0.2046  0.4108  2.4576
   32SAPC   H4Y 4325   2.355   0.242   6.729  0.6539  0.8038 -1.5148
   32SAPC   C35 4326   2.508   0.303   6.867  0.1115  0.3280  0.3590
   32SAPC   H5X 4327   2.513   0.412   6.845 -2.4408  0.8154  1.7813
   32SAPC   H5Y 4328   2.615   0.275   6.873 -0.2278 -1.0994  0.1539
   32SAPC   C36 4329   2.438   0.261   6.995  0.5748  0.4934  0.6042
   32SAPC   H6X 4330   2.488   0.299   7.086  0.1718  0.7935  0.7006
   32SAPC   H6Y 4331   2.452   0.151   6.994  3.4688  0.7692 -0.0566
   32SAPC   C37 4332   2.286   0.296   7.010 -0.4215  0.6275  0.4316
   32SAPC   H7X 4333   2.234   0.244   6.927  1.0971  2.9186 -2.1101
   32SAPC   H7Y 4334   2.273   0.405   6.996 -0.8251  0.8118  2.0011
   32SAPC   C38 4335   2.247   0.267   7.155 -0.4081 -0.3742 -0.1811
   32SAPC   H8X 4336   2.318   0.328   7.215  1.4789 -0.9348 -1.7238
   32SAPC   H8Y 4337   2.264   0.158   7.172  1.0575 -0.2480 -0.6389
   32SAPC   C39 4338   2.100   0.299   7.174 -0.0469  0.1790  0.8742
   32SAPC   H9X 4339   2.050   0.228   7.104 -0.7428  0.0419  1.4942
   32SAPC   H9Y 4340   2.066   0.394   7.126 -1.3396  0.5330  2.4162
   32SAPC  C310 4341   2.033   0.265   7.306  0.1971  0.4600 -0.9389
   32SAPC  H10X 4342   2.010   0.157   7.297  1.5982  0.2237 -2.1806
   32SAPC  H10Y 4343   1.939   0.323   7.317 -1.2991 -1.6247 -2.0789
   32SAPC  C311 4344   2.126   0.290   7.430  0.2858 -0.7169 -0.2064
   32SAPC  H11X 4345   2.123   0.401   7.441  1.2627 -0.4682 -2.1119
   32SAPC  H11Y 4346   2.231   0.267   7.403 -0.4429 -2.1274 -2.0432
   32SAPC  C312 4347   2.082   0.223   7.557 -0.0165 -0.0228  0.1164
   32SAPC  H12X 4348   1.975   0.193   7.556 -0.4091  1.3186 -1.0667
   32SAPC  H12Y 4349   2.094   0.290   7.645  2.2705 -0.1138 -0.0640
   32SAPC  C313 4350   2.161   0.098   7.603  0.2678  0.0249  0.0413
   32SAPC  H13X 4351   2.259   0.118   7.650 -0.7307 -0.0334  2.2424
   32SAPC  H13Y 4352   2.164   0.025   7.519  2.4824 -0.6432  0.6564
   32SAPC  C314 4353   2.076   0.013   7.712  0.3010  0.5620  0.1602
   32SAPC  H14X 4354   1.976  -0.015   7.671  0.8877  1.2949 -1.9155
   32SAPC  H14Y 4355   2.060   0.086   7.794  0.7816  0.3631  0.4337
   32SAPC  C315 4356   2.158  -0.102   7.770  0.7456  0.0796 -0.5619
   32SAPC  H15X 4357   2.100  -0.132   7.859  1.4257  3.6460  1.2490
   32SAPC  H15Y 4358   2.255  -0.064   7.807  0.6103  1.7326 -1.8055
   32SAPC  C316 4359   2.192  -0.224   7.689  0.4422  0.3227  0.2565
   32SAPC  H16X 4360   2.295  -0.214   7.648  0.1297  2.4579 -0.1683
   32SAPC  H16Y 4361   2.117  -0.214   7.608  1.2613  1.2420 -0.4049
   32SAPC  C317 4362   2.179  -0.365   7.759 -0.2660  0.1080 -0.2671
   32SAPC  H17X 4363   2.082  -0.394   7.804 -0.2882 -0.2373 -0.5319
   32SAPC  H17Y 4364   2.248  -0.363   7.846  0.8286 -1.2455 -1.0513
   32SAPC  C318 4365   2.216  -0.477   7.655  0.0429 -0.9561 -0.2349
   32SAPC  H18X 4366   2.128  -0.489   7.589  0.1543 -0.9398 -0.3885
   32SAPC  H18Y 4367   2.246  -0.572   7.705  0.6226 -0.7055 -0.0961
   32SAPC  H18Z 4368   2.308  -0.454   7.596  1.5810  0.9965  2.6968
   33POPC     N 4369   6.527   1.294  10.857 -0.6416  0.2094 -0.2103
   33POPC   C12 4370   6.617   1.191  10.785 -0.6689  0.3638  0.7006
   33POPC  H12A 4371   6.705   1.175  10.847 -2.2437 -0.9304  2.7581
   33POPC  H12B 4372   6.646   1.238  10.693 -2.5522 -1.6257 -1.0178
   33POPC   C13 4373   6.487   1.241  10.992 -0.0199  0.5275  0.0693
   33POPC  H13A 4374   6.565   1.249  11.067 -1.4775 -2.1418  2.0552
   33POPC  H13B 4375   6.395   1.285  11.028 -0.4269  0.1294 -0.4881
   33POPC  H13C 4376   6.482   1.134  10.988  0.9888  0.4475  0.6414
   33POPC   C14 4377   6.598   1.425  10.885  0.0168 -0.5186  0.5507
   33POPC  H14A 4378   6.520   1.487  10.929  0.4749  1.7398 -1.5903
   33POPC  H14B 4379   6.682   1.426  10.953 -1.3003 -0.3186  2.2528
   33POPC  H14C 4380   6.631   1.482  10.799  2.1890 -0.1162  1.5755
   33POPC   C15 4381   6.409   1.316  10.770 -0.3002 -0.2157 -0.0970
   33POPC  H15A 4382   6.334   1.369  10.827 -1.1993 -1.4842 -0.0737
   33POPC  H15B 4383   6.373   1.221  10.733  1.3035 -1.2997  0.9823
   33POPC  H15C 4384   6.437   1.361  10.676  0.5775 -1.5241 -0.4906
   33POPC   C11 4385   6.568   1.045  10.755  0.4194 -0.2499  0.4292
   33POPC  H11A 4386   6.576   0.978  10.842 -0.1415  0.7865  1.3064
   33POPC  H11B 4387   6.640   1.005  10.681  3.6374  4.4844  0.5140
   33POPC     P 4388   6.322   0.949  10.759 -0.0836  0.3332  0.2895
   33POPC   O13 4389   6.195   1.009  10.725 -0.6707  0.8204 -0.3731
   33POPC   O14 4390   6.341   0.935  10.905 -0.2515 -0.1361 -0.3682
   33POPC   O12 4391   6.437   1.034  10.696  0.0147  0.5629  0.2048
   33POPC   O11 4392   6.332   0.810  10.695  0.5371  0.4444  0.0751
   33POPC    C1 4393   6.407   0.775  10.582 -0.1895  0.8614  0.0064
   33POPC    HA 4394   6.505   0.828  10.584  0.0353  0.4520  1.7647
   33POPC    HB 4395   6.429   0.667  10.597 -0.5103  0.6649 -0.9136
   33POPC    C2 4396   6.338   0.796  10.440  0.0451 -0.6935 -0.1810
   33POPC    HS 4397   6.368   0.712  10.374  0.7877 -0.6128  0.0525
   33POPC   O21 4398   6.377   0.924  10.386  1.0465  0.5776  0.1496
   33POPC   C21 4399   6.507   0.938  10.342  0.3890  0.8511 -0.0810
   33POPC   O22 4400   6.595   0.850  10.354 -0.0384  0.8131 -0.0259
   33POPC   C22 4401   6.523   1.082  10.292  0.3446 -0.3086 -0.5183
   33POPC   H2R 4402   6.492   1.146  10.376  0.3271 -0.6039 -0.2987
   33POPC   H2S 4403   6.454   1.112  10.211  1.2294  1.0266 -0.8093
   33POPC    C3 4404   6.188   0.786  10.446 -0.8564 -0.3974 -0.5874
   33POPC    HX 4405   6.157   0.876  10.504  1.0710 -1.3092  2.0407
   33POPC    HY 4406   6.146   0.699  10.501  0.4823 -1.9496 -1.9321
   33POPC   O31 4407   6.144   0.786  10.308 -0.4633  0.9461  0.1844
   33POPC   C31 4408   6.091   0.894  10.257  0.2741 -0.2818 -0.2666
   33POPC   O32 4409   6.076   1.007  10.308  0.1484  0.5948  0.4472
   33POPC   C32 4410   6.033   0.876  10.113 -0.8284  0.3290  0.0401
   33POPC   H2X 4411   5.934   0.926  10.109  0.0852  2.1487 -1.8499
   33POPC   H2Y 4412   6.001   0.771  10.093 -1.4774  1.0073 -3.0055
   33POPC   C23 4413   6.670   1.127  10.267  0.3172 -0.2437 -0.8354
   33POPC   H3R 4414   6.737   1.090  10.348  1.0112 -0.2422 -1.4057
   33POPC   H3S 4415   6.671   1.238  10.275  0.4904 -0.2669 -0.4775
   33POPC   C24 4416   6.717   1.098  10.122 -0.1587  0.2245 -0.8171
   33POPC   H4R 4417   6.731   0.990  10.103  0.9866  0.3877 -1.0049
   33POPC   H4S 4418   6.817   1.145  10.109 -0.3590  0.8036 -0.3231
   33POPC   C25 4419   6.627   1.153  10.012 -0.2380  0.4561 -0.1627
   33POPC   H5R 4420   6.604   1.260  10.030  0.1431  0.4693  0.2586
   33POPC   H5S 4421   6.534   1.094   9.998  0.4782 -0.0113 -4.2160
   33POPC   C26 4422   6.707   1.152   9.874 -0.6623  0.9516 -1.0305
   33POPC   H6R 4423   6.737   1.046   9.857 -0.5258  0.9118 -0.5500
   33POPC   H6S 4424   6.797   1.216   9.875 -0.9152  1.3029 -0.5742
   33POPC   C27 4425   6.625   1.201   9.755 -0.3901 -0.1891  0.5932
   33POPC   H7R 4426   6.594   1.304   9.785  0.1980  0.2550 -0.2814
   33POPC   H7S 4427   6.531   1.142   9.755  0.7746 -2.2974 -2.5837
   33POPC   C28 4428   6.694   1.186   9.622  0.3694  0.1524 -0.3906
   33POPC   H8R 4429   6.735   1.083   9.612  0.8346  0.2899  0.0709
   33POPC   H8S 4430   6.775   1.262   9.628 -1.5855  2.2448  2.2576
   33POPC   C29 4431   6.607   1.204   9.501  0.4748  0.1878  0.2922
   33POPC   H91 4432   6.570   1.307   9.489  0.7620  0.2951  0.3287
   33POPC  C210 4433   6.574   1.107   9.409 -0.1946  0.1697  0.3876
   33POPC  H101 4434   6.510   1.130   9.322  1.1582  1.8826 -0.2234
   33POPC  C211 4435   6.621   0.962   9.420 -0.3174  0.2820 -0.3949
   33POPC  H11R 4436   6.544   0.920   9.487 -0.0550  0.3823 -0.0247
   33POPC  H11S 4437   6.721   0.939   9.464 -0.0391  0.9906 -0.6300
   33POPC  C212 4438   6.626   0.900   9.276 -1.0716  0.5380  0.1309
   33POPC  H12R 4439   6.712   0.946   9.222 -0.7545  0.6816  0.7516
   33POPC  H12S 4440   6.535   0.935   9.222  0.1508  0.3842 -2.1631
   33POPC  C213 4441   6.637   0.748   9.254  0.5523  0.0964 -0.7950
   33POPC  H13R 4442   6.545   0.699   9.292  0.8813  1.7319  2.4886
   33POPC  H13S 4443   6.719   0.712   9.321 -0.6531 -0.5109  0.4125
   33POPC  C214 4444   6.670   0.710   9.105  0.0620 -0.1978  0.1472
   33POPC  H14R 4445   6.680   0.599   9.106 -2.1495 -0.4398  0.3063
   33POPC  H14S 4446   6.766   0.752   9.068 -0.4723 -0.9868 -2.3398
   33POPC  C215 4447   6.558   0.743   9.006  0.2727 -0.3689  0.3719
   33POPC  H15R 4448   6.526   0.850   9.005 -1.3259 -0.7404 -2.7003
   33POPC  H15S 4449   6.468   0.691   9.045 -1.4596  0.8448 -1.7587
   33POPC  C216 4450   6.585   0.711   8.857  0.5907  0.1933  0.5086
   33POPC  H16R 4451   6.501   0.742   8.791  1.6291  0.3144 -0.8067
   33POPC  H16S 4452   6.604   0.603   8.837  0.6412  0.5010 -1.2604
   33POPC  C217 4453   6.707   0.781   8.793 -0.1319 -0.0754 -0.3302
   33POPC  H17R 4454   6.697   0.758   8.684  0.7111 -1.8819 -0.0685
   33POPC  H17S 4455   6.801   0.725   8.815 -0.2335 -0.6799 -1.3463
   33POPC  C218 4456   6.721   0.932   8.802  0.3581 -0.7547  0.1590
   33POPC  H18R 4457   6.735   0.960   8.908  1.1650 -1.9959  0.4037
   33POPC  H18S 4458   6.628   0.980   8.764  1.0017 -0.6242 -1.3116
   33POPC  H18T 4459   6.805   0.966   8.738  0.0407  0.0076  0.1339
   33POPC   C33 4460   6.105   0.950   9.999  0.1143 -0.1683  0.7738
   33POPC   H3X 4461   6.215   0.932   9.996  0.3412  0.8509 -3.5482
   33POPC   H3Y 4462   6.091   1.060  10.011 -0.1673 -0.2252  0.9705
   33POPC   C34 4463   6.041   0.897   9.869 -0.1924  0.2463 -1.1800
   33POPC   H4X 4464   5.939   0.940   9.859 -0.2726  0.6028  0.7327
   33POPC   H4Y 4465   6.031   0.787   9.861 -0.4738  0.2618 -1.0603
   33POPC   C35 4466   6.112   0.948   9.746  0.5828  0.3616 -0.4279
   33POPC   H5X 4467   6.208   0.893   9.741  0.2890 -0.7682  3.3917
   33POPC   H5Y 4468   6.130   1.056   9.764 -2.6116  0.7100  1.5352
   33POPC   C36 4469   6.037   0.917   9.618 -0.2103  0.5997  0.1171
   33POPC   H6X 4470   5.965   0.999   9.596  0.3555  0.5656 -2.1753
   33POPC   H6Y 4471   5.982   0.822   9.628  0.5797 -0.0105 -1.0909
   33POPC   C37 4472   6.119   0.911   9.486 -0.2654  0.8844 -0.0910
   33POPC   H7X 4473   6.163   0.809   9.478  0.8607  1.2543  0.9879
   33POPC   H7Y 4474   6.202   0.986   9.484  0.9014 -0.3778 -1.0598
   33POPC   C38 4475   6.026   0.920   9.368 -0.2893 -0.1031  0.2848
   33POPC   H8X 4476   6.002   1.026   9.343 -0.4540  0.4883  2.7408
   33POPC   H8Y 4477   5.926   0.876   9.390 -0.8452  2.0633  2.5354
   33POPC   C39 4478   6.087   0.850   9.241 -0.2711 -0.2705 -0.3979
   33POPC   H9X 4479   6.095   0.742   9.265  1.4328  0.1800  1.2270
   33POPC   H9Y 4480   6.182   0.902   9.215 -1.4447  1.8884 -0.6234
   33POPC  C310 4481   5.997   0.846   9.118 -0.5191 -0.0918 -0.1753
   33POPC  H10X 4482   5.997   0.952   9.083  0.8581 -0.5214 -1.6049
   33POPC  H10Y 4483   5.897   0.816   9.154 -0.5051  2.4560  2.3636
   33POPC  C311 4484   6.046   0.746   9.009 -0.5600 -0.3311 -0.2316
   33POPC  H11X 4485   6.157   0.753   9.009 -0.4370 -1.5880  1.3483
   33POPC  H11Y 4486   6.000   0.775   8.912  0.1902 -1.2604 -0.8870
   33POPC  C312 4487   5.997   0.603   9.028 -0.3946 -0.0312  0.9025
   33POPC  H12X 4488   5.886   0.603   9.037 -0.4086 -2.5262  1.4360
   33POPC  H12Y 4489   6.034   0.562   9.125  0.9089 -0.5079  0.2292
   33POPC  C313 4490   6.044   0.508   8.916  0.2844 -0.2707  0.0187
   33POPC  H13X 4491   6.154   0.502   8.904  0.1401 -0.1901 -1.4242
   33POPC  H13Y 4492   5.991   0.559   8.833 -4.0261 -0.9731  2.0204
   33POPC  C314 4493   5.984   0.378   8.948 -0.3473 -0.0575 -0.0858
   33POPC  H14X 4494   5.876   0.383   8.973 -0.5512 -4.8111  0.8607
   33POPC  H14Y 4495   6.027   0.340   9.042 -0.1264  0.3589 -0.0167
   33POPC  C315 4496   6.004   0.271   8.835  0.2470  0.0417  0.3844
   33POPC  H15X 4497   6.006   0.173   8.886 -0.3888  0.0501  0.4433
   33POPC  H15Y 4498   6.105   0.272   8.791  0.8851 -1.4058  1.7370
   33POPC  C316 4499   5.898   0.276   8.724  0.8122  0.3982  0.2361
   33POPC  H16X 4500   5.919   0.360   8.655 -1.5660 -0.5483 -1.7381
   33POPC  H16Y 4501   5.796   0.283   8.767 -0.2072 -2.2397 -1.5339
   33POPC  H16Z 4502   5.897   0.182   8.666 -0.9279  1.5126 -1.6893
   34POPC     N 4503   6.502   6.563  10.821  0.4371 -0.6462 -0.2510
   34POPC   C12 4504   6.613   6.616  10.736 -0.4717  0.3425  0.2201
   34POPC  H12A 4505   6.616   6.558  10.644  2.8520  2.0693 -0.9166
   34POPC  H12B 4506   6.707   6.593  10.782  0.0569 -0.4736 -1.2064
   34POPC   C13 4507   6.521   6.417  10.845  0.0102  0.0524  0.1223
   34POPC  H13A 4508   6.615   6.403  10.896 -1.2200  1.0180  2.8315
   34POPC  H13B 4509   6.448   6.370  10.908  0.4066 -1.7366 -0.6938
   34POPC  H13C 4510   6.525   6.354  10.757  1.8637 -0.3305  0.4393
   34POPC   C14 4511   6.497   6.627  10.954 -0.1273 -0.3388  0.4805
   34POPC  H14A 4512   6.417   6.576  11.005  0.2940 -0.9709  0.5176
   34POPC  H14B 4513   6.595   6.621  10.998  0.1844  0.7796 -0.0314
   34POPC  H14C 4514   6.481   6.733  10.938  2.1184 -0.1509 -1.0792
   34POPC   C15 4515   6.368   6.573  10.748 -0.3120 -0.3967 -0.5161
   34POPC  H15A 4516   6.344   6.675  10.720 -0.6443 -0.5045 -0.6253
   34POPC  H15B 4517   6.283   6.543  10.807 -0.9896  2.3397  0.0246
   34POPC  H15C 4518   6.377   6.515  10.657  0.8304  0.2178 -0.8039
   34POPC   C11 4519   6.596   6.766  10.695 -0.0906  0.3222  0.1942
   34POPC  H11A 4520   6.500   6.788  10.644  0.5500  0.6627 -0.8957
   34POPC  H11B 4521   6.676   6.793  10.622 -0.1553 -1.1438 -0.4718
   34POPC     P 4522   6.519   6.980  10.834 -0.1864  0.2098 -0.0124
   34POPC   O13 4523   6.612   7.092  10.825 -0.3822 -0.3884  0.3156
   34POPC   O14 4524   6.458   6.955  10.965 -1.0650 -0.6438 -0.5380
   34POPC   O12 4525   6.605   6.852  10.804 -0.1556 -0.0014  0.2747
   34POPC   O11 4526   6.419   6.983  10.717 -0.3874  0.8795  0.7158
   34POPC    C1 4527   6.298   7.045  10.741 -0.4982  0.0074 -0.0221
   34POPC    HA 4528   6.312   7.154  10.759 -0.4456 -0.3664  2.4886
   34POPC    HB 4529   6.238   7.005  10.825  1.5811 -0.3291  1.3754
   34POPC    C2 4530   6.202   7.027  10.614  0.2480  0.1610 -0.0000
   34POPC    HS 4531   6.195   6.917  10.596 -1.4590  0.5005 -1.8077
   34POPC   O21 4532   6.259   7.108  10.505 -0.6410 -0.3409 -0.2727
   34POPC   C21 4533   6.334   7.040  10.423 -0.0821  0.5162  0.4834
   34POPC   O22 4534   6.334   6.917  10.417 -0.1245 -0.3171  0.1702
   34POPC   C22 4535   6.407   7.128  10.317  0.3746  0.4995  0.2269
   34POPC   H2R 4536   6.456   7.051  10.253 -1.2315 -0.8069  0.5086
   34POPC   H2S 4537   6.484   7.182  10.377  2.1264 -0.8813 -0.6639
   34POPC    C3 4538   6.061   7.081  10.652 -0.3758  0.7611  0.3181
   34POPC    HX 4539   6.082   7.179  10.699 -2.8682  1.7087 -0.3884
   34POPC    HY 4540   6.012   7.020  10.731  0.4162 -0.5169 -0.1416
   34POPC   O31 4541   5.982   7.081  10.533  0.2944 -0.3894 -0.7045
   34POPC   C31 4542   5.928   6.970  10.495  0.4167 -0.3189 -0.2378
   34POPC   O32 4543   5.941   6.862  10.547 -0.4408  0.4385  0.2774
   34POPC   C32 4544   5.862   7.001  10.364  0.4513  0.4681  0.2333
   34POPC   H2X 4545   5.929   7.074  10.313  0.1611 -1.4983 -3.2552
   34POPC   H2Y 4546   5.759   7.037  10.383  0.1596  0.7910 -1.7080
   34POPC   C23 4547   6.314   7.224  10.247 -0.9329  0.1620 -0.5759
   34POPC   H3R 4548   6.281   7.300  10.321 -3.0405 -1.3185  0.1030
   34POPC   H3S 4549   6.224   7.173  10.207  0.4095 -0.8906 -2.3756
   34POPC   C24 4550   6.394   7.298  10.140 -0.0080  0.4492  0.0079
   34POPC   H4R 4551   6.439   7.218  10.077 -0.4014 -0.4688  0.8614
   34POPC   H4S 4552   6.476   7.358  10.186  0.4586 -1.1879  1.4571
   34POPC   C25 4553   6.304   7.387  10.055  0.4174 -0.8724  0.2043
   34POPC   H5R 4554   6.279   7.473  10.121 -1.8401 -1.7085  0.5437
   34POPC   H5S 4555   6.212   7.334  10.024 -0.4687  0.6968  0.0193
   34POPC   C26 4556   6.376   7.432   9.922  0.0981 -0.5473 -0.5848
   34POPC   H6R 4557   6.291   7.478   9.868 -1.8047 -1.2300  1.6594
   34POPC   H6S 4558   6.407   7.345   9.860 -0.7149 -1.6491  0.5146
   34POPC   C27 4559   6.485   7.539   9.936 -0.1280 -0.0593  0.0319
   34POPC   H7R 4560   6.568   7.493   9.994  1.0367  1.5814 -0.2910
   34POPC   H7S 4561   6.450   7.622  10.001 -2.3247 -2.2067  1.7930
   34POPC   C28 4562   6.543   7.605   9.811  0.0730 -0.3329 -0.1319
   34POPC   H8R 4563   6.617   7.677   9.852 -0.5566  0.0035  0.4246
   34POPC   H8S 4564   6.459   7.663   9.767  1.1713  0.4773 -1.2453
   34POPC   C29 4565   6.613   7.522   9.704  0.2861  0.0521  0.0724
   34POPC   H91 4566   6.723   7.529   9.699  0.3794 -1.1433  0.1768
   34POPC  C210 4567   6.559   7.453   9.608  0.8580  0.2675  0.3392
   34POPC  H101 4568   6.620   7.374   9.561  1.7721  0.4596  1.1762
   34POPC  C211 4569   6.405   7.447   9.571  0.4636 -0.2982 -0.4273
   34POPC  H11R 4570   6.393   7.509   9.480 -1.2177  2.0294  1.2374
   34POPC  H11S 4571   6.347   7.522   9.629  2.1903 -0.6475  1.8885
   34POPC  C212 4572   6.326   7.314   9.563  0.2586  0.5036 -0.4282
   34POPC  H12R 4573   6.221   7.350   9.564  0.8720  2.8579 -3.5751
   34POPC  H12S 4574   6.344   7.250   9.652 -0.7268 -1.1166 -1.3337
   34POPC  C213 4575   6.357   7.232   9.438 -0.9484  0.1111 -0.2523
   34POPC  H13R 4576   6.311   7.131   9.446 -3.2052  1.0585 -0.2347
   34POPC  H13S 4577   6.467   7.222   9.432 -0.4815  0.0808  4.4718
   34POPC  C214 4578   6.295   7.296   9.312  0.2467  0.2673  0.0737
   34POPC  H14R 4579   6.329   7.402   9.319  1.3788  0.1675 -2.7589
   34POPC  H14S 4580   6.187   7.298   9.334  0.1626 -0.0745 -0.2966
   34POPC  C215 4581   6.313   7.230   9.175  0.0705 -0.5936 -0.0557
   34POPC  H15R 4582   6.292   7.302   9.093 -1.3014  1.3546  1.8956
   34POPC  H15S 4583   6.242   7.145   9.165  0.8221 -1.5976  2.5291
   34POPC  C216 4584   6.455   7.182   9.152 -0.2121 -0.0857  0.2517
   34POPC  H16R 4585   6.472   7.088   9.210 -2.6621 -0.8244 -0.1472
   34POPC  H16S 4586   6.520   7.264   9.192  1.1298 -1.9375  2.1384
   34POPC  C217 4587   6.492   7.168   9.006 -0.1495 -0.1472 -1.0499
   34POPC  H17R 4588   6.538   7.263   8.971  1.2097  0.1477  1.3133
   34POPC  H17S 4589   6.396   7.149   8.954 -0.4614  2.2459 -1.4453
   34POPC  C218 4590   6.599   7.065   8.989 -0.4960  0.7824 -0.0584
   34POPC  H18R 4591   6.551   6.965   8.982  0.8089  0.1774 -0.7807
   34POPC  H18S 4592   6.668   7.048   9.075  1.0322 -1.1485 -1.5637
   34POPC  H18T 4593   6.667   7.077   8.903 -1.6272  2.3412 -0.7666
   34POPC   C33 4594   5.861   6.878  10.264 -0.0699  0.6695 -0.5226
   34POPC   H3X 4595   5.799   6.893  10.173 -1.1542 -0.1194  0.0623
   34POPC   H3Y 4596   5.814   6.796  10.323 -1.5918  0.6063 -1.7511
   34POPC   C34 4597   5.998   6.825  10.210 -0.1618 -0.0259  0.0832
   34POPC   H4X 4598   5.996   6.715  10.195 -2.1141  0.0247 -0.2184
   34POPC   H4Y 4599   6.060   6.841  10.301 -1.4109 -1.7578  1.2977
   34POPC   C35 4600   6.045   6.901  10.091 -0.2111  0.1668  0.0190
   34POPC   H5X 4601   5.999   7.001  10.108 -0.9048 -0.2165  0.4718
   34POPC   H5Y 4602   5.995   6.867   9.997  0.7476  3.0528 -1.6630
   34POPC   C36 4603   6.192   6.886  10.066  0.2865  0.2418 -0.1395
   34POPC   H6X 4604   6.212   6.777  10.062 -3.6512 -0.6261  0.2233
   34POPC   H6Y 4605   6.252   6.922  10.153 -1.8591  0.6479  1.2608
   34POPC   C37 4606   6.241   6.960   9.948 -0.7072  0.0953  0.8716
   34POPC   H7X 4607   6.227   7.064   9.984 -1.8351 -0.4494  2.0698
   34POPC   H7Y 4608   6.182   6.951   9.855  1.2913 -0.6322 -0.4001
   34POPC   C38 4609   6.396   6.946   9.917  0.4028  0.0477 -0.5128
   34POPC   H8X 4610   6.449   6.929  10.014 -2.4187 -1.8718  0.8391
   34POPC   H8Y 4611   6.428   7.046   9.882  1.4061  0.4201  1.3087
   34POPC   C39 4612   6.436   6.842   9.816  0.1488  0.0389  0.6729
   34POPC   H9X 4613   6.394   6.743   9.841 -1.7740  0.3424 -1.0411
   34POPC   H9Y 4614   6.545   6.831   9.799 -0.0694  1.0387 -1.9307
   34POPC  C310 4615   6.391   6.871   9.676 -0.4103 -0.7841  0.2978
   34POPC  H10X 4616   6.416   6.979   9.661 -1.9728 -0.7262 -2.7427
   34POPC  H10Y 4617   6.283   6.847   9.672 -0.8214  0.6496  1.6522
   34POPC  C311 4618   6.471   6.795   9.562  1.1313 -0.5204  0.2396
   34POPC  H11X 4619   6.403   6.709   9.544  1.0325 -1.6147  4.5944
   34POPC  H11Y 4620   6.571   6.761   9.595  1.2028  0.3665  0.9723
   34POPC  C312 4621   6.494   6.877   9.436  0.1808 -0.3399  1.4029
   34POPC  H12X 4622   6.585   6.940   9.451 -0.4669  1.5723 -1.9181
   34POPC  H12Y 4623   6.409   6.939   9.402  1.7094  0.0334 -2.2298
   34POPC  C313 4624   6.509   6.791   9.310 -0.3586 -0.0335 -0.4045
   34POPC  H13X 4625   6.530   6.848   9.217  1.1841  0.9759  0.5025
   34POPC  H13Y 4626   6.419   6.727   9.302 -0.1119 -0.5455  0.7172
   34POPC  C314 4627   6.634   6.698   9.330 -0.2557 -0.5075 -0.3089
   34POPC  H14X 4628   6.614   6.626   9.412  0.3379 -2.0679 -1.4868
   34POPC  H14Y 4629   6.714   6.767   9.365 -0.8010 -0.7143  1.4608
   34POPC  C315 4630   6.689   6.627   9.211  0.1848 -0.1815 -0.3894
   34POPC  H15X 4631   6.593   6.590   9.170 -0.7467 -0.7690  2.1002
   34POPC  H15Y 4632   6.737   6.532   9.245  2.5876  0.5237 -1.5928
   34POPC  C316 4633   6.766   6.719   9.113  0.5793  1.0619  0.1250
   34POPC  H16X 4634   6.782   6.665   9.017 -1.6703 -1.0076  0.8213
   34POPC  H16Y 4635   6.864   6.746   9.159  0.6064 -0.5086  1.0676
   34POPC  H16Z 4636   6.709   6.811   9.093 -1.8031 -0.4831 -0.5924
   35POPC     N 4637   5.122   4.550  10.714 -0.7167 -0.2521  0.4108
   35POPC   C12 4638   5.221   4.584  10.608 -0.9946 -0.0201  0.0301
   35POPC  H12A 4639   5.254   4.687  10.606 -3.1907  0.7283 -1.8905
   35POPC  H12B 4640   5.183   4.555  10.511 -0.3312  0.0977 -0.2734
   35POPC   C13 4641   5.085   4.408  10.705 -0.0350 -0.9373  0.3808
   35POPC  H13A 4642   5.022   4.365  10.782 -1.9138 -1.6951 -1.4951
   35POPC  H13B 4643   5.031   4.393  10.613  0.6286 -0.7891 -0.0350
   35POPC  H13C 4644   5.170   4.344  10.690  0.5141  0.1101 -1.2568
   35POPC   C14 4645   5.174   4.580  10.854  0.1334  0.2994  0.4721
   35POPC  H14A 4646   5.264   4.524  10.875  1.0415  1.4023 -0.3622
   35POPC  H14B 4647   5.195   4.685  10.867 -1.5681  0.5143  1.9255
   35POPC  H14C 4648   5.098   4.560  10.928 -0.2206  1.3655  0.4184
   35POPC   C15 4649   5.008   4.641  10.686  1.2616 -0.6468 -0.0672
   35POPC  H15A 4650   4.930   4.621  10.758  2.2250 -1.0471  0.8895
   35POPC  H15B 4651   4.965   4.622  10.589  1.6683  2.2255 -0.9093
   35POPC  H15C 4652   5.036   4.744  10.701  0.2494 -0.1712 -1.1658
   35POPC   C11 4653   5.347   4.497  10.610 -0.0911  0.0004  0.1247
   35POPC  H11A 4654   5.385   4.479  10.712 -0.4539  0.3764  0.3303
   35POPC  H11B 4655   5.425   4.560  10.561 -0.4550  0.4883  0.1646
   35POPC     P 4656   5.386   4.247  10.556 -0.0414  0.1827 -0.2609
   35POPC   O13 4657   5.321   4.189  10.676  0.1217 -0.1089  0.3915
   35POPC   O14 4658   5.534   4.257  10.554  0.5425  0.2167 -0.9877
   35POPC   O12 4659   5.325   4.385  10.529 -0.0531  0.8457  0.2126
   35POPC   O11 4660   5.339   4.154  10.435 -0.0065  0.5375  0.0832
   35POPC    C1 4661   5.199   4.139  10.399  0.8021 -0.5513 -0.6236
   35POPC    HA 4662   5.152   4.237  10.376 -0.7201 -1.1426 -0.1436
   35POPC    HB 4663   5.137   4.092  10.477  0.7938  0.1681 -0.1871
   35POPC    C2 4664   5.184   4.061  10.270  0.5000  0.1874  0.5057
   35POPC    HS 4665   5.075   4.062  10.249  0.7085  2.6364 -0.7818
   35POPC   O21 4666   5.245   3.931  10.269  0.2180  0.5261  0.6998
   35POPC   C21 4667   5.197   3.834  10.350  0.6450 -0.5886  0.5768
   35POPC   O22 4668   5.114   3.859  10.436 -0.6434  0.0153  0.0311
   35POPC   C22 4669   5.277   3.706  10.323  0.4335  0.4544  0.2814
   35POPC   H2R 4670   5.377   3.705  10.373  1.1760  1.5897 -1.1190
   35POPC   H2S 4671   5.306   3.700  10.216  0.2297 -1.4821  0.2950
   35POPC    C3 4672   5.239   4.132  10.150 -0.0355  0.0996 -0.0438
   35POPC    HX 4673   5.350   4.129  10.157 -0.0002  0.5765 -0.2946
   35POPC    HY 4674   5.204   4.238  10.150 -0.7890 -0.0199 -3.7780
   35POPC   O31 4675   5.186   4.068  10.029 -0.3177 -0.4956  0.0483
   35POPC   C31 4676   5.256   4.096   9.922  0.3249  0.0387 -0.7027
   35POPC   O32 4677   5.341   4.179   9.915  0.3427 -0.0675  0.1997
   35POPC   C32 4678   5.219   3.988   9.820  0.0481  0.1081  0.3014
   35POPC   H2X 4679   5.187   3.895   9.871 -0.8868  0.0907 -0.2846
   35POPC   H2Y 4680   5.314   3.968   9.764  0.1240  0.0690  0.4455
   35POPC   C23 4681   5.198   3.582  10.361 -0.0707 -0.1108 -1.0622
   35POPC   H3R 4682   5.097   3.571  10.318 -0.3275  1.0650 -0.8012
   35POPC   H3S 4683   5.166   3.597  10.466 -1.5762  0.6647 -1.6003
   35POPC   C24 4684   5.280   3.449  10.368 -0.1899 -0.7740  0.1692
   35POPC   H4R 4685   5.201   3.383  10.409 -0.8444  0.3577  0.7754
   35POPC   H4S 4686   5.360   3.472  10.442 -0.8974  1.3474  0.3362
   35POPC   C25 4687   5.329   3.404  10.235  0.2238 -0.2568  0.3115
   35POPC   H5R 4688   5.409   3.327  10.244  2.2982  1.9356  1.4195
   35POPC   H5S 4689   5.374   3.484  10.172  1.8326 -0.9955  0.4703
   35POPC   C26 4690   5.204   3.354  10.150  0.3893  0.6094  0.5667
   35POPC   H6R 4691   5.114   3.420  10.157 -0.0486  0.1246 -0.2815
   35POPC   H6S 4692   5.173   3.257  10.194 -1.2508  1.8238  2.2559
   35POPC   C27 4693   5.232   3.334  10.004  0.7199 -0.6870  0.3448
   35POPC   H7R 4694   5.326   3.276   9.996 -0.1076 -1.7940 -2.2567
   35POPC   H7S 4695   5.240   3.431   9.950 -1.6888 -0.2804  0.5813
   35POPC   C28 4696   5.121   3.246   9.933 -0.2109 -0.2293  0.0903
   35POPC   H8R 4697   5.047   3.323   9.901  1.3124  0.6414 -1.5223
   35POPC   H8S 4698   5.068   3.179  10.005  3.1372 -1.9216  1.1956
   35POPC   C29 4699   5.149   3.167   9.813  0.1066 -0.1634 -0.2978
   35POPC   H91 4700   5.144   3.057   9.818 -0.0269 -0.1261  0.6848
   35POPC  C210 4701   5.161   3.223   9.690  0.7042 -0.7378 -0.5602
   35POPC  H101 4702   5.164   3.158   9.601 -2.3802 -2.0675  0.1922
   35POPC  C211 4703   5.158   3.369   9.643  0.5388 -1.0593  0.5752
   35POPC  H11R 4704   5.207   3.443   9.711  3.2095 -0.2967 -1.9585
   35POPC  H11S 4705   5.054   3.406   9.635  0.9885 -0.1973 -3.2277
   35POPC  C212 4706   5.216   3.395   9.500  0.3911 -0.9846  0.4637
   35POPC  H12R 4707   5.173   3.332   9.419  0.2573  1.7163 -1.6819
   35POPC  H12S 4708   5.326   3.387   9.511  0.4027 -1.0280  0.3126
   35POPC  C213 4709   5.180   3.535   9.443  0.4181  0.4049 -0.0766
   35POPC  H13R 4710   5.251   3.608   9.489  0.7174  0.4424 -0.5864
   35POPC  H13S 4711   5.074   3.565   9.454 -0.7723 -2.7614 -1.6858
   35POPC  C214 4712   5.210   3.560   9.294 -0.2678  0.0797 -0.5743
   35POPC  H14R 4713   5.318   3.537   9.286  0.2701  2.0177  0.4707
   35POPC  H14S 4714   5.205   3.666   9.262  0.8846  0.6259  0.9589
   35POPC  C215 4715   5.141   3.474   9.192  0.0223 -0.8912 -0.1409
   35POPC  H15R 4716   5.037   3.453   9.224 -0.8004 -0.3284 -2.3059
   35POPC  H15S 4717   5.200   3.380   9.194 -0.2625 -1.0837  2.2097
   35POPC  C216 4718   5.134   3.548   9.056  0.4910  0.8046 -0.1133
   35POPC  H16R 4719   5.240   3.551   9.023  0.5301  0.0998 -0.0615
   35POPC  H16S 4720   5.086   3.647   9.043  1.7188  1.4184 -0.0946
   35POPC  C217 4721   5.052   3.473   8.949  0.3752  0.0513 -0.3109
   35POPC  H17R 4722   4.947   3.488   8.981 -0.0441  0.2634 -1.7260
   35POPC  H17S 4723   5.082   3.366   8.963  1.3710  0.3565  0.0013
   35POPC  C218 4724   5.077   3.520   8.808 -0.4973 -0.2532  0.8209
   35POPC  H18R 4725   5.183   3.493   8.788 -0.7835 -1.9430  1.4321
   35POPC  H18S 4726   5.081   3.630   8.795  1.1523 -0.2445  1.1298
   35POPC  H18T 4727   5.003   3.481   8.735 -1.5363  0.5820  1.3913
   35POPC   C33 4728   5.108   4.036   9.722 -0.1036 -0.0262 -0.3854
   35POPC   H3X 4729   5.031   4.092   9.780  0.1561 -0.0863  0.0233
   35POPC   H3Y 4730   5.071   3.942   9.675  1.4724 -1.8535  1.8062
   35POPC   C34 4731   5.148   4.133   9.610 -0.4100  0.8795  0.0452
   35POPC   H4X 4732   5.208   4.210   9.663  0.5447 -0.3455  0.8289
   35POPC   H4Y 4733   5.059   4.187   9.574 -1.9781  0.5147  3.0761
   35POPC   C35 4734   5.237   4.069   9.500  0.0708  0.2823 -0.3336
   35POPC   H5X 4735   5.283   3.975   9.537  1.1268 -0.5859 -3.4715
   35POPC   H5Y 4736   5.323   4.138   9.480 -0.5855  2.3249  3.1612
   35POPC   C36 4737   5.160   4.042   9.370 -0.2992  0.0260  1.1737
   35POPC   H6X 4738   5.141   4.143   9.328  1.4778 -0.9883 -2.4238
   35POPC   H6Y 4739   5.064   3.991   9.393 -0.8962 -0.1977 -1.4976
   35POPC   C37 4740   5.240   3.960   9.268  0.0306 -0.0203  0.0022
   35POPC   H7X 4741   5.248   3.864   9.323 -0.9232 -0.3738 -0.4447
   35POPC   H7Y 4742   5.338   4.004   9.241  0.4032 -1.1535 -0.5375
   35POPC   C38 4743   5.163   3.928   9.140 -0.2932  0.2234 -0.5268
   35POPC   H8X 4744   5.069   3.877   9.169  0.2484 -0.2041  0.5404
   35POPC   H8Y 4745   5.225   3.858   9.079  0.4273  0.1049  0.3179
   35POPC   C39 4746   5.122   4.058   9.071  0.3318  0.3524  0.0593
   35POPC   H9X 4747   5.202   4.130   9.042 -0.4921  1.6082  0.7991
   35POPC   H9Y 4748   5.062   4.124   9.138  1.5363  2.3127 -0.7091
   35POPC  C310 4749   5.032   4.034   8.945 -0.3960 -0.5100 -0.7815
   35POPC  H10X 4750   4.959   4.116   8.924  0.5566  0.1645 -1.5712
   35POPC  H10Y 4751   4.978   3.938   8.962  0.1219 -0.9093 -1.3326
   35POPC  C311 4752   5.106   4.018   8.812 -0.3223 -0.1871  0.3073
   35POPC  H11X 4753   5.185   3.939   8.812 -0.5590 -0.4572 -1.3016
   35POPC  H11Y 4754   5.158   4.114   8.792 -0.9929 -0.3267 -2.4964
   35POPC  C312 4755   5.018   3.999   8.687  0.8430  0.3901 -0.1169
   35POPC  H12X 4756   4.945   4.082   8.683 -0.6813 -0.8622  0.6060
   35POPC  H12Y 4757   4.973   3.898   8.696  1.3870  0.1329 -0.2137
   35POPC  C313 4758   5.097   3.990   8.559 -0.7995  0.1930  0.6045
   35POPC  H13X 4759   5.182   3.922   8.578  0.8771  1.5162 -1.5711
   35POPC  H13Y 4760   5.146   4.089   8.544 -1.2744  0.5502  1.3646
   35POPC  C314 4761   5.021   3.949   8.435 -0.7075  0.9534 -0.0099
   35POPC  H14X 4762   4.949   3.870   8.467  1.0296 -0.7861 -0.2316
   35POPC  H14Y 4763   5.088   3.904   8.359 -1.8978  1.3892 -1.3667
   35POPC  C315 4764   4.930   4.064   8.382  0.5110  0.6135 -0.1137
   35POPC  H15X 4765   4.919   4.149   8.453  0.4596 -0.4537  1.1784
   35POPC  H15Y 4766   4.828   4.022   8.371 -0.7961  2.8240  2.3429
   35POPC  C316 4767   4.982   4.119   8.249  0.0992  0.2468 -0.0893
   35POPC  H16X 4768   5.090   4.143   8.260  0.2394 -0.0400 -0.7639
   35POPC  H16Y 4769   4.937   4.212   8.209  0.7936 -0.2777 -2.2241
   35POPC  H16Z 4770   4.972   4.037   8.174 -1.3963  0.8605 -0.5952
   36POPC     N 4771   5.825   2.945  10.793 -0.2335 -0.0858 -0.2539
   36POPC   C12 4772   5.881   2.955  10.646 -0.0424 -0.5424  0.6689
   36POPC  H12A 4773   5.807   2.917  10.577  2.2857 -1.7325 -1.3237
   36POPC  H12B 4774   5.963   2.886  10.632  0.3058  0.0331 -0.1529
   36POPC   C13 4775   5.789   2.802  10.818  0.0952  0.2112  0.3383
   36POPC  H13A 4776   5.744   2.793  10.916 -0.6264  0.7073  0.0579
   36POPC  H13B 4777   5.717   2.769  10.745  0.6686 -3.0497  1.0674
   36POPC  H13C 4778   5.881   2.745  10.815 -0.0434  0.0345 -0.6515
   36POPC   C14 4779   5.932   2.984  10.892 -0.1019  0.5875  0.4277
   36POPC  H14A 4780   5.973   3.082  10.875  0.3897 -0.0287 -2.4052
   36POPC  H14B 4781   5.900   2.969  10.994 -0.7445 -1.0853  0.0240
   36POPC  H14C 4782   6.016   2.918  10.875 -1.1648 -0.6720 -0.1889
   36POPC   C15 4783   5.695   3.034  10.810  0.0945  0.5897  0.3332
   36POPC  H15A 4784   5.640   3.001  10.897 -1.7001 -0.0643 -0.9848
   36POPC  H15B 4785   5.627   3.034  10.726 -0.2615 -2.1795  0.5456
   36POPC  H15C 4786   5.714   3.139  10.827  2.0271  0.5972 -1.5004
   36POPC   C11 4787   5.934   3.093  10.607  0.4794 -0.2281  0.0754
   36POPC  H11A 4788   5.853   3.165  10.632 -1.0037 -1.3512 -1.2963
   36POPC  H11B 4789   5.938   3.101  10.497 -0.8579 -1.0014 -0.0576
   36POPC     P 4790   6.196   3.078  10.620 -0.0186 -0.1299 -0.0977
   36POPC   O13 4791   6.287   3.034  10.732 -0.0478  0.5828 -0.0166
   36POPC   O14 4792   6.265   3.186  10.544 -0.1219  0.5206  0.2738
   36POPC   O12 4793   6.056   3.131  10.677 -0.0094 -0.3505 -0.2353
   36POPC   O11 4794   6.164   2.950  10.527 -0.3483  0.0125  0.1911
   36POPC    C1 4795   6.269   2.878  10.465  0.3826  0.7915 -0.0619
   36POPC    HA 4796   6.298   2.803  10.541 -1.4493  1.1407  1.0464
   36POPC    HB 4797   6.357   2.943  10.444  1.8552 -0.6665  1.3526
   36POPC    C2 4798   6.216   2.815  10.331 -0.0806 -0.2651 -0.5437
   36POPC    HS 4799   6.304   2.765  10.283  0.6577 -0.1430  0.6332
   36POPC   O21 4800   6.145   2.915  10.256 -0.2968  0.1837 -0.4420
   36POPC   C21 4801   6.227   3.009  10.209 -0.1567 -0.7640 -0.7518
   36POPC   O22 4802   6.353   3.005  10.210  0.1004  0.4990 -0.0662
   36POPC   C22 4803   6.145   3.119  10.135  0.1507  0.4664  0.0580
   36POPC   H2R 4804   6.221   3.189  10.095  0.9655 -0.2343  0.3513
   36POPC   H2S 4805   6.081   3.181  10.202  1.1826  3.2663 -1.4037
   36POPC    C3 4806   6.108   2.708  10.365 -0.3904  0.8288  0.3342
   36POPC    HX 4807   6.033   2.756  10.432  0.4476  2.6488  0.0077
   36POPC    HY 4808   6.160   2.624  10.415  4.4307  1.7009 -2.6118
   36POPC   O31 4809   6.041   2.656  10.240  0.5323  0.2018  0.3329
   36POPC   C31 4810   6.097   2.545  10.185  0.5954  0.1286 -0.0601
   36POPC   O32 4811   6.209   2.511  10.213 -0.6803 -0.2880  0.5188
   36POPC   C32 4812   6.011   2.474  10.076  0.6930  0.1322 -0.1987
   36POPC   H2X 4813   6.076   2.449   9.989  0.8158 -0.2615  0.0012
   36POPC   H2Y 4814   5.933   2.547  10.046 -0.1597 -1.5046 -2.1595
   36POPC   C23 4815   6.063   3.051  10.024  0.4105  0.0409 -0.3073
   36POPC   H3R 4816   5.955   3.053  10.051  0.8121 -1.6017  1.5975
   36POPC   H3S 4817   6.099   2.947  10.013  1.0345  0.0217  1.6193
   36POPC   C24 4818   6.086   3.112   9.888  0.2657  0.4713 -0.2186
   36POPC   H4R 4819   6.195   3.113   9.867  0.0285  1.2443 -1.4933
   36POPC   H4S 4820   6.063   3.220   9.896  0.2831  0.4808 -0.2994
   36POPC   C25 4821   6.011   3.038   9.779 -0.7128 -0.1285  0.3244
   36POPC   H5R 4822   5.903   3.045   9.805 -0.7879  0.6577 -0.1693
   36POPC   H5S 4823   6.029   2.929   9.769 -2.2871 -0.2231 -2.4924
   36POPC   C26 4824   6.040   3.092   9.638  0.3804 -0.3043 -0.2616
   36POPC   H6R 4825   6.151   3.082   9.627  0.5111 -1.3486  1.5806
   36POPC   H6S 4826   6.015   3.199   9.621  0.3482 -0.5856 -2.3046
   36POPC   C27 4827   5.972   3.007   9.525  0.5538 -0.3298 -0.4091
   36POPC   H7R 4828   5.863   3.004   9.547  0.5156  0.0406 -0.5531
   36POPC   H7S 4829   6.008   2.902   9.532  1.9819  0.1769  0.4007
   36POPC   C28 4830   6.001   3.068   9.388 -0.2568  0.3205 -0.8304
   36POPC   H8R 4831   6.102   3.041   9.351 -0.6542  2.0739 -3.4417
   36POPC   H8S 4832   6.004   3.178   9.403  0.3007  0.1524  0.3534
   36POPC   C29 4833   5.892   3.022   9.292  0.4544 -0.2259  0.1646
   36POPC   H91 4834   5.799   2.980   9.334 -0.9932  1.4173 -1.2761
   36POPC  C210 4835   5.890   3.041   9.161  0.3752 -0.5089 -0.5526
   36POPC  H101 4836   5.795   3.020   9.109  0.4679 -0.5716 -0.6972
   36POPC  C211 4837   5.998   3.118   9.085  0.3689 -0.7775  0.1908
   36POPC  H11R 4838   6.052   3.041   9.025 -1.1500 -1.3767 -0.4407
   36POPC  H11S 4839   6.064   3.181   9.149 -0.9538  2.0870 -1.0884
   36POPC  C212 4840   5.933   3.210   8.982  0.0248  0.1388 -0.4142
   36POPC  H12R 4841   6.013   3.244   8.913  0.6548 -0.9769 -0.2547
   36POPC  H12S 4842   5.903   3.305   9.030 -2.6207 -1.0523  0.4986
   36POPC  C213 4843   5.822   3.151   8.892  0.5710 -0.0034  0.2249
   36POPC  H13R 4844   5.724   3.183   8.934  0.0615 -0.6786 -0.4145
   36POPC  H13S 4845   5.831   3.040   8.892  3.1619  0.1454 -0.6207
   36POPC  C214 4846   5.841   3.191   8.746  1.0454 -0.6413 -0.1392
   36POPC  H14R 4847   5.947   3.173   8.720  1.5375  2.2307 -0.4734
   36POPC  H14S 4848   5.818   3.299   8.740 -0.8525 -0.8079  2.4201
   36POPC  C215 4849   5.759   3.115   8.635 -0.1794  0.0389 -0.6311
   36POPC  H15R 4850   5.653   3.104   8.665 -0.5220  0.4687 -1.6418
   36POPC  H15S 4851   5.781   3.006   8.626 -2.1976 -0.7691  2.6804
   36POPC  C216 4852   5.753   3.205   8.504 -1.1146 -0.1740  0.3300
   36POPC  H16R 4853   5.854   3.230   8.466 -1.1153  1.0879  1.1098
   36POPC  H16S 4854   5.692   3.296   8.522 -0.2792 -0.0333  2.7400
   36POPC  C217 4855   5.697   3.129   8.384  0.2886 -0.3188  0.4511
   36POPC  H17R 4856   5.591   3.096   8.395 -1.1878  2.8889 -2.2045
   36POPC  H17S 4857   5.749   3.031   8.380  1.6711  0.1999  3.3197
   36POPC  C218 4858   5.713   3.205   8.253  0.3343 -0.4368  1.3036
   36POPC  H18R 4859   5.645   3.159   8.178 -1.6313 -2.7319  4.2876
   36POPC  H18S 4860   5.818   3.206   8.215 -0.8402  0.6015 -2.2957
   36POPC  H18T 4861   5.674   3.307   8.271 -1.1066 -0.3851 -1.5620
   36POPC   C33 4862   5.941   2.348  10.125 -0.2431  0.7577 -0.3542
   36POPC   H3X 4863   5.903   2.359  10.229  1.7614 -1.8965  0.7783
   36POPC   H3Y 4864   6.017   2.268  10.136  0.3300  1.4526  1.0007
   36POPC   C34 4865   5.830   2.305  10.039 -0.0561  0.3912  0.3815
   36POPC   H4X 4866   5.741   2.371  10.051 -2.5926 -2.7856  0.5342
   36POPC   H4Y 4867   5.791   2.202  10.057  1.9064 -0.1801  1.7358
   36POPC   C35 4868   5.861   2.299   9.883 -0.3792 -0.0203 -1.0193
   36POPC   H5X 4869   5.955   2.243   9.865  0.2228  1.2780 -2.0740
   36POPC   H5Y 4870   5.886   2.403   9.852 -0.0997  1.1450  2.5903
   36POPC   C36 4871   5.751   2.250   9.791 -0.1238  0.2729  0.1557
   36POPC   H6X 4872   5.656   2.307   9.783 -1.3403 -1.8344 -1.0803
   36POPC   H6Y 4873   5.725   2.151   9.834 -0.6949  1.3236  2.3960
   36POPC   C37 4874   5.796   2.218   9.647  0.4266  0.4689 -0.2571
   36POPC   H7X 4875   5.871   2.136   9.636 -0.7629 -0.6097 -0.4860
   36POPC   H7Y 4876   5.837   2.311   9.600 -3.9747  2.8467  0.0511
   36POPC   C38 4877   5.673   2.179   9.562 -0.0105 -0.2436  0.1071
   36POPC   H8X 4878   5.595   2.254   9.588  1.1073  0.7649  0.6290
   36POPC   H8Y 4879   5.625   2.083   9.593  1.7603 -1.4308 -0.7249
   36POPC   C39 4880   5.703   2.166   9.417 -0.6193  0.1101 -0.0383
   36POPC   H9X 4881   5.784   2.100   9.380  2.2653  3.7865 -0.8603
   36POPC   H9Y 4882   5.736   2.264   9.377  0.2772 -0.4051 -0.5855
   36POPC  C310 4883   5.579   2.134   9.338 -0.5621 -0.1587  0.1468
   36POPC  H10X 4884   5.495   2.201   9.368  0.3471  1.3875 -0.6042
   36POPC  H10Y 4885   5.557   2.028   9.361  2.4572 -1.3422 -1.8192
   36POPC  C311 4886   5.618   2.144   9.193  0.0875  0.9482 -0.1654
   36POPC  H11X 4887   5.693   2.067   9.165 -1.7163 -1.5592  1.4420
   36POPC  H11Y 4888   5.657   2.241   9.156  2.0060 -0.0861 -1.0135
   36POPC  C312 4889   5.500   2.094   9.108 -0.5421 -0.4238 -0.0757
   36POPC  H12X 4890   5.410   2.133   9.160 -0.2609 -0.0762  0.1553
   36POPC  H12Y 4891   5.494   1.983   9.102  2.6090 -0.8654  2.1649
   36POPC  C313 4892   5.504   2.153   8.964  0.0863 -0.8711  0.0362
   36POPC  H13X 4893   5.543   2.257   8.970 -1.6781 -0.0792 -1.5216
   36POPC  H13Y 4894   5.402   2.168   8.923  0.0412 -0.4115  0.3044
   36POPC  C314 4895   5.591   2.074   8.862  0.4934  0.3533 -0.5630
   36POPC  H14X 4896   5.554   1.971   8.843  2.4334 -0.5141 -0.0117
   36POPC  H14Y 4897   5.689   2.053   8.910  0.0775 -0.5412 -0.0893
   36POPC  C315 4898   5.613   2.143   8.729 -0.5693 -0.2581  0.3991
   36POPC  H15X 4899   5.520   2.137   8.668  0.0738 -1.7175 -0.4802
   36POPC  H15Y 4900   5.705   2.093   8.694  0.4203  1.3500  0.5924
   36POPC  C316 4901   5.657   2.293   8.734 -0.2563 -0.2852 -0.2722
   36POPC  H16X 4902   5.727   2.313   8.818  0.3652 -1.5518 -0.4660
   36POPC  H16Y 4903   5.574   2.364   8.753 -1.6803 -1.5259 -1.5819
   36POPC  H16Z 4904   5.690   2.329   8.634  0.6008  1.3791  0.5634
   37POPC     N 4905   4.936   5.060   6.415 -0.6158  0.1949 -0.4407
   37POPC   C12 4906   4.908   5.157   6.525 -0.1309 -0.2408 -0.2349
   37POPC  H12A 4907   4.989   5.169   6.595  0.5756  1.1209 -1.2303
   37POPC  H12B 4908   4.827   5.117   6.583 -1.1970  0.2460 -1.3460
   37POPC   C13 4909   4.808   5.041   6.332  0.7240 -0.3287  0.0275
   37POPC  H13A 4910   4.816   4.958   6.264  2.9532 -1.6896  1.7897
   37POPC  H13B 4911   4.737   5.020   6.410  2.9310 -1.3550  1.8778
   37POPC  H13C 4912   4.779   5.138   6.292  0.0496 -1.0237 -1.2283
   37POPC   C14 4913   5.049   5.122   6.341 -0.0385  0.1416  0.1579
   37POPC  H14A 4914   5.033   5.227   6.325  1.4174  0.2778 -0.5682
   37POPC  H14B 4915   5.144   5.123   6.393  0.8049  1.4391 -1.3287
   37POPC  H14C 4916   5.079   5.064   6.255  0.9136  0.3861  0.3160
   37POPC   C15 4917   4.981   4.925   6.473  0.4812 -0.9266  0.1019
   37POPC  H15A 4918   4.897   4.886   6.528  0.6872 -0.5044  0.7247
   37POPC  H15B 4919   5.061   4.949   6.541 -0.2700  3.1804 -0.1754
   37POPC  H15C 4920   5.015   4.864   6.390  0.8688 -1.3163  0.5411
   37POPC   C11 4921   4.874   5.302   6.483 -0.5128  1.3686  0.0494
   37POPC  H11A 4922   4.957   5.351   6.429  1.3322 -1.2113  0.3575
   37POPC  H11B 4923   4.877   5.361   6.577  2.1548  0.8054  0.3914
   37POPC     P 4924   4.616   5.346   6.466 -0.2137 -0.1363  0.2448
   37POPC   O13 4925   4.519   5.246   6.407  0.0173 -0.4302  0.7465
   37POPC   O14 4926   4.583   5.489   6.433  0.3011  0.3515  0.1819
   37POPC   O12 4927   4.755   5.306   6.410  0.4000 -0.2676 -0.2619
   37POPC   O11 4928   4.631   5.327   6.622 -0.5073 -0.3393  0.2340
   37POPC    C1 4929   4.577   5.206   6.680 -0.2173 -0.5494 -0.1384
   37POPC    HA 4930   4.614   5.120   6.621  2.1922  0.0466  0.3734
   37POPC    HB 4931   4.466   5.209   6.687 -0.1279 -0.8495  1.8712
   37POPC    C2 4932   4.630   5.185   6.830 -0.2295  0.1954  0.6519
   37POPC    HS 4933   4.623   5.284   6.880  1.0057  0.5630  0.1286
   37POPC   O21 4934   4.771   5.159   6.816  0.6121  0.2945  0.2036
   37POPC   C21 4935   4.846   5.175   6.918 -0.1204  0.1090 -0.1884
   37POPC   O22 4936   4.831   5.245   7.017 -0.2815 -0.0749 -0.0419
   37POPC   C22 4937   4.980   5.094   6.889  0.7342 -1.0331 -0.2457
   37POPC   H2R 4938   5.077   5.149   6.894  1.2338 -1.9732  0.7890
   37POPC   H2S 4939   4.968   5.044   6.790 -0.4769 -4.2488  1.3931
   37POPC    C3 4940   4.550   5.078   6.907 -0.5906  0.2291  0.3053
   37POPC    HX 4941   4.550   4.975   6.865  0.6353 -0.7370  2.5070
   37POPC    HY 4942   4.450   5.125   6.902 -0.5279  0.2752 -3.2467
   37POPC   O31 4943   4.600   5.064   7.044  0.0086 -0.0775  0.3253
   37POPC   C31 4944   4.570   5.167   7.124 -0.5334  0.4196  0.1219
   37POPC   O32 4945   4.492   5.257   7.091  0.2920  0.0234 -0.1436
   37POPC   C32 4946   4.632   5.159   7.261 -0.2242 -0.4606 -0.6986
   37POPC   H2X 4947   4.548   5.178   7.332  1.0703 -1.6911  1.2631
   37POPC   H2Y 4948   4.713   5.235   7.270  0.1673 -1.0352  0.9874
   37POPC   C23 4949   4.989   4.977   6.985 -1.0057  0.6846 -0.5487
   37POPC   H3R 4950   5.077   4.915   6.955 -1.6840 -1.5667  1.6947
   37POPC   H3S 4951   4.899   4.914   7.000  1.5032 -3.6135 -1.7148
   37POPC   C24 4952   5.031   5.024   7.128  0.4271  0.2067 -0.5440
   37POPC   H4R 4953   4.958   5.084   7.186 -0.0305 -0.6027 -0.2747
   37POPC   H4S 4954   5.127   5.079   7.116  1.5676 -2.2049 -4.0285
   37POPC   C25 4955   5.066   4.903   7.219 -0.0589  1.0843  0.5229
   37POPC   H5R 4956   5.097   4.808   7.169  2.6989  2.8030 -1.3300
   37POPC   H5S 4957   4.978   4.871   7.279  0.2249  0.8223  0.8078
   37POPC   C26 4958   5.177   4.930   7.322  0.1937 -0.5301  0.3518
   37POPC   H6R 4959   5.128   5.004   7.388 -2.0568 -1.2001 -0.4859
   37POPC   H6S 4960   5.267   4.971   7.272 -0.8795 -1.0905 -2.1652
   37POPC   C27 4961   5.204   4.818   7.419  0.2329  0.3176  0.3203
   37POPC   H7R 4962   5.267   4.743   7.367 -1.5613 -1.0816  0.0521
   37POPC   H7S 4963   5.110   4.760   7.434  0.6028 -0.2319  0.5520
   37POPC   C28 4964   5.243   4.867   7.559 -0.9030  0.0973 -0.5606
   37POPC   H8R 4965   5.249   4.785   7.634 -0.5474 -0.1173 -0.8174
   37POPC   H8S 4966   5.164   4.942   7.581  0.4586  1.3612  0.1439
   37POPC   C29 4967   5.371   4.937   7.534  0.6630 -0.2052  0.1100
   37POPC   H91 4968   5.452   4.883   7.484  0.0044 -1.0993 -0.0227
   37POPC  C210 4969   5.403   5.051   7.598 -0.8803  0.4827  0.6340
   37POPC  H101 4970   5.506   5.087   7.578 -0.1704 -1.2041  1.0926
   37POPC  C211 4971   5.327   5.148   7.681 -0.1797  0.3796 -0.4492
   37POPC  H11R 4972   5.223   5.115   7.662 -0.1541 -1.0285  1.5126
   37POPC  H11S 4973   5.339   5.250   7.638 -0.9842  2.1063  2.9788
   37POPC  C212 4974   5.360   5.150   7.834  0.0910 -0.1439 -0.9516
   37POPC  H12R 4975   5.468   5.165   7.851  0.1692  1.5032 -2.5983
   37POPC  H12S 4976   5.340   5.056   7.890 -1.1273  0.4469 -0.3299
   37POPC  C213 4977   5.276   5.264   7.900  0.2364 -0.2364 -0.1405
   37POPC  H13R 4978   5.172   5.260   7.861 -1.1794  1.0524  3.1267
   37POPC  H13S 4979   5.311   5.364   7.866 -1.5582  0.8273  0.9870
   37POPC  C214 4980   5.263   5.263   8.056  0.3243  0.8150  0.7200
   37POPC  H14R 4981   5.358   5.299   8.101  0.5588  2.9998 -1.3730
   37POPC  H14S 4982   5.239   5.158   8.085  0.9526 -0.5022 -3.0542
   37POPC  C215 4983   5.149   5.347   8.099 -0.0345 -0.4575 -0.5787
   37POPC  H15R 4984   5.056   5.312   8.048  1.6466 -2.9069 -2.2078
   37POPC  H15S 4985   5.174   5.453   8.076  0.4579 -0.9852 -2.7620
   37POPC  C216 4986   5.123   5.327   8.249 -0.3857 -0.1182 -0.0468
   37POPC  H16R 4987   5.207   5.372   8.307 -1.5233  1.8616  0.1290
   37POPC  H16S 4988   5.100   5.220   8.269 -2.0024  0.0805 -0.7043
   37POPC  C217 4989   5.006   5.418   8.293  0.4305  0.2416 -0.2780
   37POPC  H17R 4990   4.909   5.378   8.257  0.2752 -0.7190  1.1386
   37POPC  H17S 4991   5.021   5.522   8.256  0.8302  0.3568  0.1957
   37POPC  C218 4992   4.979   5.404   8.444  0.0437 -0.2420  0.4022
   37POPC  H18R 4993   4.883   5.454   8.469 -0.2945 -0.0665 -1.1546
   37POPC  H18S 4994   5.056   5.446   8.513 -0.6973 -0.8841  1.6640
   37POPC  H18T 4995   4.973   5.297   8.472 -1.1827 -0.3462 -0.1856
   37POPC   C33 4996   4.676   5.013   7.291 -0.0022  0.3089  0.5671
   37POPC   H3X 4997   4.770   4.982   7.240 -0.0824  0.1825  0.4973
   37POPC   H3Y 4998   4.599   4.939   7.261 -2.7400  2.5873  1.5029
   37POPC   C34 4999   4.705   4.993   7.440  0.7982  0.0230 -0.3793
   37POPC   H4X 5000   4.612   5.012   7.497  1.2018  1.8641 -0.2637
   37POPC   H4Y 5001   4.774   5.067   7.486  1.3966 -0.4309 -0.5325
   37POPC   C35 5002   4.749   4.853   7.483 -0.1949  0.5725 -0.0301
   37POPC   H5X 5003   4.843   4.827   7.429  0.1046  0.1266  0.6988
   37POPC   H5Y 5004   4.682   4.768   7.461  1.6125 -1.5888  2.2066
   37POPC   C36 5005   4.771   4.859   7.642 -0.4392  0.1744  0.7187
   37POPC   H6X 5006   4.677   4.868   7.701  0.6192 -1.4534  2.7817
   37POPC   H6Y 5007   4.838   4.944   7.666 -0.2110 -0.1557  1.2692
   37POPC   C37 5008   4.852   4.736   7.692 -0.3745  0.3388  0.3365
   37POPC   H7X 5009   4.957   4.744   7.657 -0.4147 -0.2973  0.0688
   37POPC   H7Y 5010   4.802   4.647   7.650 -2.3187  1.7144 -0.4074
   37POPC   C38 5011   4.856   4.732   7.852 -0.3459 -0.1374 -0.5857
   37POPC   H8X 5012   4.921   4.651   7.889  2.0255  1.0845 -1.8352
   37POPC   H8Y 5013   4.751   4.712   7.883 -0.2208  0.3059  0.1418
   37POPC   C39 5014   4.902   4.864   7.917  0.9062 -0.3174  0.2493
   37POPC   H9X 5015   4.905   4.842   8.026  0.1860  0.0936  0.3593
   37POPC   H9Y 5016   4.834   4.950   7.900  0.8487  0.3662  3.3997
   37POPC  C310 5017   5.046   4.910   7.887  0.9998 -0.0449  0.0903
   37POPC  H10X 5018   5.063   4.997   7.953  0.2254 -0.3800  0.7574
   37POPC  H10Y 5019   5.043   4.945   7.782  0.6438 -1.3866 -0.3746
   37POPC  C311 5020   5.153   4.805   7.920  0.2747  0.5829  0.9690
   37POPC  H11X 5021   5.257   4.836   7.895  0.2062  0.1051  0.0217
   37POPC  H11Y 5022   5.128   4.716   7.857  0.0334  0.5010  1.1779
   37POPC  C312 5023   5.144   4.751   8.068  0.7698 -0.0479  0.2500
   37POPC  H12X 5024   5.054   4.687   8.080  1.1004 -0.9690 -1.7608
   37POPC  H12Y 5025   5.128   4.834   8.140  0.0555  0.8058 -0.8687
   37POPC  C313 5026   5.256   4.656   8.119 -0.5033  0.8973  0.2899
   37POPC  H13X 5027   5.243   4.631   8.226  1.8902  1.6679  0.8263
   37POPC  H13Y 5028   5.356   4.703   8.125 -0.6491  1.1873  0.4936
   37POPC  C314 5029   5.280   4.526   8.036 -0.0125 -0.0242  0.2061
   37POPC  H14X 5030   5.309   4.551   7.931 -0.8112  0.1117  0.0130
   37POPC  H14Y 5031   5.181   4.477   8.026 -0.9148  1.9789 -1.6864
   37POPC  C315 5032   5.375   4.424   8.101 -0.3600 -0.0692 -0.6263
   37POPC  H15X 5033   5.316   4.373   8.180 -1.5952  1.0325 -0.7990
   37POPC  H15Y 5034   5.459   4.470   8.158  1.5338 -2.5427 -1.2395
   37POPC  C316 5035   5.436   4.311   8.006  0.5024 -0.4920  0.1553
   37POPC  H16X 5036   5.372   4.221   8.015  2.9830 -2.9026 -3.5818
   37POPC  H16Y 5037   5.541   4.288   8.032  0.8976  2.1286  1.2893
   37POPC  H16Z 5038   5.432   4.340   7.899 -0.5248  2.2370  0.8372
   38POPC     N 5039   3.348   6.241   5.571 -0.4550  0.0031 -0.3095
   38POPC   C12 5040   3.479   6.210   5.629  0.0908  0.2792 -0.0225
   38POPC  H12A 5041   3.518   6.297   5.680  3.3306 -1.8137  1.3966
   38POPC  H12B 5042   3.551   6.200   5.549  2.3590 -2.5004  2.1518
   38POPC   C13 5043   3.315   6.136   5.472 -0.5413  0.0023 -0.0554
   38POPC  H13A 5044   3.222   6.165   5.427 -0.6870  2.2084  1.5149
   38POPC  H13B 5045   3.395   6.125   5.400 -0.4171 -2.0974  0.3267
   38POPC  H13C 5046   3.302   6.039   5.517 -0.3305 -0.4233 -0.8848
   38POPC   C14 5047   3.243   6.256   5.675  0.8370 -0.5491 -0.5323
   38POPC  H14A 5048   3.266   6.315   5.763 -0.8069  0.3749 -0.6701
   38POPC  H14B 5049   3.158   6.301   5.625  2.3717 -0.0294 -2.8346
   38POPC  H14C 5050   3.222   6.160   5.719 -0.6224 -0.7321 -1.5391
   38POPC   C15 5051   3.365   6.366   5.493 -0.5481 -0.1983 -0.2132
   38POPC  H15A 5052   3.396   6.447   5.557  0.2995  0.4967 -1.4490
   38POPC  H15B 5053   3.269   6.403   5.459 -0.8908 -0.7154  0.1907
   38POPC  H15C 5054   3.446   6.358   5.422  0.6276  1.5935  0.8572
   38POPC   C11 5055   3.501   6.088   5.730  0.8358  0.2930 -0.4368
   38POPC  H11A 5056   3.607   6.061   5.746  0.1805 -1.3459  1.5078
   38POPC  H11B 5057   3.455   5.997   5.686 -0.6944 -0.4243  2.4393
   38POPC     P 5058   3.514   6.194   5.961 -0.3058  0.0597  0.0534
   38POPC   O13 5059   3.418   6.266   6.048  0.5408 -0.0156 -0.4045
   38POPC   O14 5060   3.625   6.271   5.899  0.0445  0.5040 -0.5973
   38POPC   O12 5061   3.428   6.113   5.848 -0.6153  0.3730  0.2190
   38POPC   O11 5062   3.578   6.076   6.052 -0.1128 -0.3295  0.1725
   38POPC    C1 5063   3.500   5.957   6.079 -0.5891 -0.6395 -0.5104
   38POPC    HA 5064   3.514   5.883   5.998 -3.6053 -0.2329 -1.5356
   38POPC    HB 5065   3.390   5.968   6.090 -0.3778  2.2368 -0.3952
   38POPC    C2 5066   3.548   5.888   6.217  0.1396 -0.4477 -0.9333
   38POPC    HS 5067   3.478   5.806   6.242  2.1035 -1.9273  0.0148
   38POPC   O21 5068   3.550   5.975   6.336 -0.4328  0.2707 -0.2098
   38POPC   C21 5069   3.429   6.036   6.365 -0.4570 -0.3125  0.3836
   38POPC   O22 5070   3.326   6.011   6.311  0.5533 -0.0719 -0.1756
   38POPC   C22 5071   3.452   6.129   6.476  0.4462 -0.6067 -0.4739
   38POPC   H2R 5072   3.362   6.192   6.492  1.1374  0.6248 -1.3281
   38POPC   H2S 5073   3.539   6.194   6.452 -0.4877  1.1491  0.7040
   38POPC    C3 5074   3.690   5.830   6.195  0.0786  0.1139 -0.0109
   38POPC    HX 5075   3.754   5.912   6.157 -1.6637  1.5694  0.0878
   38POPC    HY 5076   3.686   5.750   6.118 -0.9397  0.3501 -0.2137
   38POPC   O31 5077   3.735   5.764   6.315  0.5202  0.2108  0.4528
   38POPC   C31 5078   3.819   5.834   6.393 -0.1654 -0.1817  0.0300
   38POPC   O32 5079   3.882   5.936   6.366  0.4167  0.2678  0.3913
   38POPC   C32 5080   3.858   5.755   6.519  0.0450  0.9306  0.3575
   38POPC   H2X 5081   3.968   5.773   6.513  0.5805 -1.6298  1.1451
   38POPC   H2Y 5082   3.839   5.646   6.519  1.0485  0.7326 -0.8332
   38POPC   C23 5083   3.494   6.044   6.597 -0.0160  0.0611  0.2310
   38POPC   H3R 5084   3.597   6.006   6.581 -0.0720 -0.4370  0.9781
   38POPC   H3S 5085   3.419   5.965   6.617  0.6779 -1.5582 -3.0079
   38POPC   C24 5086   3.502   6.135   6.725  0.1299  0.1223 -0.1568
   38POPC   H4R 5087   3.507   6.062   6.809  1.3174  0.0882 -0.2335
   38POPC   H4S 5088   3.413   6.200   6.732 -0.5922 -0.9238  0.8688
   38POPC   C25 5089   3.629   6.221   6.736 -0.4065 -0.6603 -0.5233
   38POPC   H5R 5090   3.632   6.296   6.654  0.0322  2.0323  1.7771
   38POPC   H5S 5091   3.722   6.161   6.724 -0.3181 -1.1499  1.9308
   38POPC   C26 5092   3.646   6.300   6.871  0.6155  0.0704 -0.1492
   38POPC   H6R 5093   3.559   6.367   6.885  0.3571 -0.5208  1.1622
   38POPC   H6S 5094   3.731   6.372   6.866 -0.1652  1.1394  1.4845
   38POPC   C27 5095   3.668   6.205   6.986  0.2669 -0.1772 -0.0064
   38POPC   H7R 5096   3.705   6.109   6.945  0.2444  0.0538 -0.5801
   38POPC   H7S 5097   3.563   6.186   7.020 -0.0055  0.8408 -0.2475
   38POPC   C28 5098   3.762   6.257   7.097  0.5427 -0.0797  0.5514
   38POPC   H8R 5099   3.861   6.298   7.067 -0.4959  2.7266  0.6204
   38POPC   H8S 5100   3.784   6.173   7.166  2.6565  0.7993  1.0136
   38POPC   C29 5101   3.676   6.362   7.169 -0.3975 -0.3727 -0.2842
   38POPC   H91 5102   3.641   6.448   7.109 -0.5950 -1.8213 -2.3444
   38POPC  C210 5103   3.628   6.350   7.293 -0.3085  0.8815  0.3050
   38POPC  H101 5104   3.560   6.425   7.337  0.5495  2.1126 -0.4136
   38POPC  C211 5105   3.662   6.235   7.386 -0.4237  0.9523  0.1185
   38POPC  H11R 5106   3.721   6.146   7.352 -1.6793  0.3198 -0.4932
   38POPC  H11S 5107   3.569   6.190   7.426 -0.5157  0.3019 -0.7835
   38POPC  C212 5108   3.724   6.284   7.522  0.4283  0.3699  0.0222
   38POPC  H12R 5109   3.687   6.387   7.542 -0.6442  0.3187 -1.5655
   38POPC  H12S 5110   3.834   6.299   7.517  0.5823 -0.5249  0.5613
   38POPC  C213 5111   3.694   6.182   7.639 -0.0033  0.5665  0.4589
   38POPC  H13R 5112   3.728   6.084   7.599 -0.4561  1.3470 -1.9478
   38POPC  H13S 5113   3.585   6.161   7.629 -0.1258  1.5032 -0.3263
   38POPC  C214 5114   3.752   6.220   7.776  0.2343 -0.0981 -0.0197
   38POPC  H14R 5115   3.732   6.327   7.799  1.6625  0.1821  0.0043
   38POPC  H14S 5116   3.860   6.201   7.764  0.6215  1.8323  0.1892
   38POPC  C215 5117   3.700   6.124   7.894 -0.2571  0.5337 -0.1785
   38POPC  H15R 5118   3.736   6.020   7.875  0.9135  0.5087  1.8833
   38POPC  H15S 5119   3.589   6.131   7.890 -0.1740  1.7282 -0.6213
   38POPC  C216 5120   3.770   6.156   8.027 -0.7743  0.6426 -0.1848
   38POPC  H16R 5121   3.779   6.264   8.052  1.7484  0.5514 -0.3992
   38POPC  H16S 5122   3.874   6.118   8.026 -0.6898  0.8777 -0.3480
   38POPC  C217 5123   3.697   6.093   8.146 -0.0332  0.0829 -0.6888
   38POPC  H17R 5124   3.717   5.984   8.140 -0.8501 -0.2768  1.7435
   38POPC  H17S 5125   3.588   6.105   8.128 -0.7416 -0.1552  2.7733
   38POPC  C218 5126   3.739   6.159   8.282 -0.1230  0.2519  0.2437
   38POPC  H18R 5127   3.695   6.261   8.288  0.2957  0.4915 -0.6906
   38POPC  H18S 5128   3.845   6.142   8.309 -0.4175 -0.5758  0.9265
   38POPC  H18T 5129   3.684   6.100   8.359 -2.4296  0.0711 -1.4582
   38POPC   C33 5130   3.811   5.815   6.654  0.5071 -0.1548  0.9892
   38POPC   H3X 5131   3.702   5.796   6.660  0.4529 -1.4569 -2.0624
   38POPC   H3Y 5132   3.840   5.921   6.638 -0.1743 -0.0058  0.7000
   38POPC   C34 5133   3.871   5.749   6.782 -0.1493 -0.3039 -0.3701
   38POPC   H4X 5134   3.983   5.752   6.782 -0.1527  1.1607  1.4150
   38POPC   H4Y 5135   3.842   5.643   6.767  1.5677 -1.0148  0.9590
   38POPC   C35 5136   3.807   5.784   6.908  0.0974  0.5688 -0.3540
   38POPC   H5X 5137   3.703   5.750   6.927  0.8664 -0.7654  1.7307
   38POPC   H5Y 5138   3.811   5.895   6.919  0.6841  0.5069  0.0804
   38POPC   C36 5139   3.890   5.742   7.037 -0.3309  0.0987 -0.1727
   38POPC   H6X 5140   3.987   5.795   7.041  0.5559 -1.5341  2.2842
   38POPC   H6Y 5141   3.918   5.637   7.017 -1.3363 -0.1659 -0.2810
   38POPC   C37 5142   3.823   5.759   7.177  0.2947  0.3326  0.0659
   38POPC   H7X 5143   3.731   5.698   7.195  0.3920  0.7909  2.5094
   38POPC   H7Y 5144   3.797   5.866   7.192 -0.5162  0.1706 -0.1502
   38POPC   C38 5145   3.918   5.725   7.287 -0.7625  0.6091  0.5904
   38POPC   H8X 5146   4.012   5.769   7.247 -0.1304 -1.8685 -0.8541
   38POPC   H8Y 5147   3.934   5.615   7.293  0.1496  0.7987  2.4946
   38POPC   C39 5148   3.873   5.779   7.417 -0.5889  0.3890 -0.2139
   38POPC   H9X 5149   3.768   5.769   7.450 -0.5537  1.8011  0.4246
   38POPC   H9Y 5150   3.892   5.889   7.412  1.6248  0.2516  2.7047
   38POPC  C310 5151   3.953   5.729   7.537 -0.1823 -0.2947  0.4272
   38POPC  H10X 5152   4.062   5.740   7.520 -0.1454  1.3634  1.4886
   38POPC  H10Y 5153   3.916   5.626   7.556  1.9628 -1.7044 -2.3095
   38POPC  C311 5154   3.918   5.813   7.668  0.0303  0.2193 -0.3470
   38POPC  H11X 5155   3.810   5.793   7.684  0.5026 -1.6534  0.7554
   38POPC  H11Y 5156   3.930   5.922   7.645  1.2732  0.4814  1.3893
   38POPC  C312 5157   3.991   5.769   7.790 -0.0237  0.3159  0.0753
   38POPC  H12X 5158   4.102   5.771   7.779  0.4685 -0.2036  3.6779
   38POPC  H12Y 5159   3.972   5.660   7.794 -0.2142  0.2604 -1.6189
   38POPC  C313 5160   3.954   5.849   7.921  0.5062 -0.4788  0.0411
   38POPC  H13X 5161   3.843   5.837   7.925  0.3594  0.8841  0.7146
   38POPC  H13Y 5162   3.984   5.955   7.914 -1.1014  0.1494  1.7184
   38POPC  C314 5163   4.017   5.803   8.048  0.6330 -0.0048 -0.6844
   38POPC  H14X 5164   3.984   5.700   8.075 -1.2108  0.2272 -1.8684
   38POPC  H14Y 5165   3.989   5.873   8.130 -1.5644 -0.1267 -1.2780
   38POPC  C315 5166   4.172   5.808   8.041  0.8292 -0.4453  0.7899
   38POPC  H15X 5167   4.204   5.907   8.001 -0.8302  0.2352  1.0606
   38POPC  H15Y 5168   4.216   5.727   7.979  0.6700 -0.3841  0.5932
   38POPC  C316 5169   4.226   5.781   8.179 -0.4163  0.3319 -0.8303
   38POPC  H16X 5170   4.179   5.846   8.256 -1.7330 -1.3096 -0.1628
   38POPC  H16Y 5171   4.335   5.803   8.183 -0.7597  2.3510 -1.6490
   38POPC  H16Z 5172   4.209   5.677   8.215  0.3280  1.4020  3.0985
   39POPC     N 5173   2.661   0.747   5.984  0.6084 -0.1778 -0.8902
   39POPC   C12 5174   2.602   0.686   6.116  0.5833 -0.1987  1.3282
   39POPC  H12A 5175   2.522   0.750   6.148 -0.0612 -0.6320  0.5971
   39POPC  H12B 5176   2.678   0.696   6.193  0.8381 -0.0092  1.0517
   39POPC   C13 5177   2.568   0.747   5.863 -0.1806 -0.1712 -0.7744
   39POPC  H13A 5178   2.636   0.783   5.787  0.9374 -1.1309 -0.2477
   39POPC  H13B 5179   2.525   0.652   5.837 -3.4442  1.1877 -0.8706
   39POPC  H13C 5180   2.489   0.819   5.877 -0.5296 -0.8223  0.7840
   39POPC   C14 5181   2.698   0.891   6.017 -0.1217 -0.2248 -0.1118
   39POPC  H14A 5182   2.609   0.936   6.059  0.1635 -0.5806  0.8981
   39POPC  H14B 5183   2.781   0.891   6.085  1.3456 -1.7697 -1.8136
   39POPC  H14C 5184   2.714   0.947   5.927 -1.3549  0.7567  0.2521
   39POPC   C15 5185   2.792   0.685   5.954  1.0205 -0.1161 -0.0560
   39POPC  H15A 5186   2.853   0.668   6.042  3.3081  0.3135 -1.4771
   39POPC  H15B 5187   2.855   0.743   5.888 -0.5274  0.6529 -0.9002
   39POPC  H15C 5188   2.766   0.594   5.903 -2.2442  0.4313  0.4366
   39POPC   C11 5189   2.550   0.542   6.095  0.9611 -0.1967  0.2911
   39POPC  H11A 5190   2.537   0.484   6.189  0.1250  1.3401  1.1782
   39POPC  H11B 5191   2.621   0.482   6.035 -0.7385 -1.1188 -0.8446
   39POPC     P 5192   2.293   0.612   6.091  0.1904  0.0768 -0.2681
   39POPC   O13 5193   2.193   0.635   5.991  0.4562 -0.1771 -0.2414
   39POPC   O14 5194   2.336   0.729   6.169  0.2827  0.2024  0.0682
   39POPC   O12 5195   2.418   0.536   6.027 -0.5990 -0.0287 -0.5890
   39POPC   O11 5196   2.237   0.503   6.186  0.0553  0.1393 -0.4254
   39POPC    C1 5197   2.278   0.512   6.321 -0.6894 -0.1862  0.0225
   39POPC    HA 5198   2.354   0.586   6.354 -0.0424 -0.6780 -0.3162
   39POPC    HB 5199   2.339   0.426   6.357  1.2212  0.9309 -0.3655
   39POPC    C2 5200   2.154   0.521   6.406  0.6526 -0.2844  0.1369
   39POPC    HS 5201   2.110   0.614   6.363  1.0911 -1.1674 -2.3707
   39POPC   O21 5202   2.188   0.546   6.544  0.0639  0.7405  0.0622
   39POPC   C21 5203   2.113   0.629   6.610  0.3446 -0.5066 -0.4522
   39POPC   O22 5204   2.030   0.707   6.565  0.0723 -0.5828 -0.4594
   39POPC   C22 5205   2.159   0.627   6.763  0.0871  0.0998  0.0789
   39POPC   H2R 5206   2.244   0.696   6.781  0.2390  0.0247 -0.3355
   39POPC   H2S 5207   2.190   0.522   6.784  2.4379  0.7350 -0.0048
   39POPC    C3 5208   2.048   0.411   6.387  0.1203  0.2043  0.3177
   39POPC    HX 5209   2.106   0.318   6.410  0.2037  0.2287  0.2111
   39POPC    HY 5210   2.022   0.426   6.280 -0.4210 -2.7916 -0.0549
   39POPC   O31 5211   1.930   0.435   6.470 -0.0450 -0.0444  0.0573
   39POPC   C31 5212   1.933   0.372   6.593  0.5214  0.3392 -0.1592
   39POPC   O32 5213   2.031   0.315   6.640  0.3806 -0.3923 -0.1091
   39POPC   C32 5214   1.804   0.407   6.669  0.2197 -0.7008 -0.1197
   39POPC   H2X 5215   1.807   0.512   6.703 -2.3413 -1.2008  2.0128
   39POPC   H2Y 5216   1.716   0.409   6.601 -1.2350 -0.2369  1.6973
   39POPC   C23 5217   2.053   0.660   6.868  0.7563 -0.6612 -0.2862
   39POPC   H3R 5218   1.973   0.583   6.859 -1.5255  1.7304 -2.2536
   39POPC   H3S 5219   2.013   0.762   6.846  1.5026 -0.1772  0.5491
   39POPC   C24 5220   2.089   0.668   7.014 -0.0224 -0.4931 -0.0567
   39POPC   H4R 5221   2.149   0.761   7.024 -1.7818  0.6722  0.1098
   39POPC   H4S 5222   2.166   0.589   7.031 -0.8979 -1.6084 -1.0437
   39POPC   C25 5223   1.971   0.666   7.105 -0.3612 -0.3359  0.5324
   39POPC   H5R 5224   1.912   0.574   7.088 -1.3787  0.2923  0.5771
   39POPC   H5S 5225   1.902   0.752   7.090  3.4977  3.2307  1.0632
   39POPC   C26 5226   2.018   0.666   7.256 -0.4589  0.3297 -0.3660
   39POPC   H6R 5227   2.084   0.753   7.278  2.2288 -1.9500  1.2640
   39POPC   H6S 5228   2.069   0.569   7.273  0.6774  1.0382  0.4161
   39POPC   C27 5229   1.894   0.683   7.347 -0.3190 -0.3174 -0.3743
   39POPC   H7R 5230   1.840   0.585   7.351 -4.9370  1.9629 -0.4656
   39POPC   H7S 5231   1.823   0.760   7.310 -0.0785  0.2147  0.2476
   39POPC   C28 5232   1.948   0.710   7.495  0.5297  0.3752 -0.5462
   39POPC   H8R 5233   2.009   0.802   7.493  2.8741 -1.0860  0.0616
   39POPC   H8S 5234   2.010   0.626   7.533  2.4349  0.7634 -2.5995
   39POPC   C29 5235   1.829   0.715   7.593  0.5934  0.1021  0.5720
   39POPC   H91 5236   1.729   0.692   7.553 -0.1137  1.6337  1.3920
   39POPC  C210 5237   1.831   0.749   7.723  0.0305  0.0947  0.5296
   39POPC  H101 5238   1.736   0.740   7.778 -0.9984 -0.3406 -1.2223
   39POPC  C211 5239   1.955   0.789   7.789 -0.4803  0.2264 -0.1356
   39POPC  H11R 5240   1.934   0.887   7.838  1.2104 -0.5515  2.3232
   39POPC  H11S 5241   2.037   0.809   7.717 -0.6897  0.1607 -0.3963
   39POPC  C212 5242   2.009   0.705   7.904 -0.4069 -0.4662  0.9188
   39POPC  H12R 5243   2.023   0.602   7.864 -0.1233 -0.2446  0.4350
   39POPC  H12S 5244   1.934   0.698   7.986 -0.4513 -0.7981  0.8504
   39POPC  C213 5245   2.146   0.755   7.953  0.2733  0.4214  0.4905
   39POPC  H13R 5246   2.145   0.857   7.998  0.6377  1.0365 -0.8658
   39POPC  H13S 5247   2.210   0.757   7.863  0.5149 -0.2638  0.6329
   39POPC  C214 5248   2.206   0.660   8.059  0.0085 -0.2639  0.5174
   39POPC  H14R 5249   2.247   0.569   8.011  1.3556 -0.1969  1.4759
   39POPC  H14S 5250   2.122   0.630   8.125 -0.5087 -0.5353 -0.2569
   39POPC  C215 5251   2.331   0.716   8.124  0.2835  0.3820  0.4563
   39POPC  H15R 5252   2.368   0.652   8.207  0.5069  0.8479  0.7265
   39POPC  H15S 5253   2.305   0.806   8.185  2.0177 -0.2622  2.2295
   39POPC  C216 5254   2.454   0.737   8.040 -0.1568  0.3982  0.2889
   39POPC  H16R 5255   2.435   0.827   7.978  0.4381  0.4115  0.1161
   39POPC  H16S 5256   2.473   0.658   7.963  0.6956  0.2723  0.6137
   39POPC  C217 5257   2.582   0.765   8.121 -0.0832  0.9063  0.3417
   39POPC  H17R 5258   2.598   0.698   8.209  0.5513 -0.0712 -0.4877
   39POPC  H17S 5259   2.561   0.859   8.176 -0.5533  0.7069  0.5126
   39POPC  C218 5260   2.707   0.758   8.027  0.0274 -0.3544  0.3594
   39POPC  H18R 5261   2.710   0.842   7.954  0.8312  1.3395  2.2677
   39POPC  H18S 5262   2.715   0.666   7.964 -0.1338  0.7408 -1.3300
   39POPC  H18T 5263   2.790   0.782   8.096  0.4226 -0.3628 -0.1053
   39POPC   C33 5264   1.776   0.312   6.794 -0.0783 -0.2361 -0.1193
   39POPC   H3X 5265   1.865   0.281   6.852 -0.5807  0.9321  1.3224
   39POPC   H3Y 5266   1.722   0.225   6.750  0.5207 -0.3248 -0.7142
   39POPC   C34 5267   1.679   0.389   6.892 -0.4135  0.4145 -0.1559
   39POPC   H4X 5268   1.585   0.402   6.834  1.6398  0.3453 -3.7990
   39POPC   H4Y 5269   1.727   0.489   6.894  0.0687  0.2991 -2.4808
   39POPC   C35 5270   1.666   0.321   7.034 -0.1723 -0.6361  0.0257
   39POPC   H5X 5271   1.597   0.381   7.098  1.3879  0.1398  1.0213
   39POPC   H5Y 5272   1.762   0.316   7.089 -0.2891 -1.9240  0.1482
   39POPC   C36 5273   1.620   0.175   7.038  0.1849 -0.1246  0.3422
   39POPC   H6X 5274   1.700   0.111   6.997  1.0283 -0.1990  2.0243
   39POPC   H6Y 5275   1.532   0.162   6.971 -1.2997 -0.2327  2.2257
   39POPC   C37 5276   1.582   0.119   7.175 -0.0004  0.0816 -1.2058
   39POPC   H7X 5277   1.544   0.016   7.156 -0.7534  0.0836  0.1184
   39POPC   H7Y 5278   1.490   0.174   7.204 -1.5961 -1.1543 -3.5063
   39POPC   C38 5279   1.687   0.114   7.290 -0.6013 -0.1520 -0.3158
   39POPC   H8X 5280   1.740   0.211   7.304  0.8460 -1.0587  0.8026
   39POPC   H8Y 5281   1.771   0.047   7.258  0.7925  1.9027 -1.2197
   39POPC   C39 5282   1.615   0.069   7.421 -0.1299 -0.7365  0.2355
   39POPC   H9X 5283   1.609  -0.042   7.427 -1.4133 -0.6712  0.4026
   39POPC   H9Y 5284   1.515   0.117   7.422  0.9489  1.6768 -0.8770
   39POPC  C310 5285   1.687   0.123   7.543 -0.4705  0.4218  0.2639
   39POPC  H10X 5286   1.709   0.231   7.535  1.1891  0.0537 -0.6481
   39POPC  H10Y 5287   1.789   0.078   7.542 -0.2453  0.9258  0.1998
   39POPC  C311 5288   1.612   0.087   7.673 -1.1931  0.1059  0.0284
   39POPC  H11X 5289   1.589  -0.022   7.677  0.3518 -0.4356 -2.7803
   39POPC  H11Y 5290   1.514   0.136   7.661 -1.0876  0.2707 -0.1599
   39POPC  C312 5291   1.707   0.110   7.788  0.0127  0.4954 -0.4583
   39POPC  H12X 5292   1.807   0.073   7.757 -0.6164 -0.9309 -0.8880
   39POPC  H12Y 5293   1.670   0.049   7.873 -1.2445  0.8529 -0.7308
   39POPC  C313 5294   1.702   0.256   7.827  0.1927 -0.1141  0.0633
   39POPC  H13X 5295   1.620   0.272   7.900  0.6435  1.1349  0.3177
   39POPC  H13Y 5296   1.679   0.317   7.737 -2.3620  2.2360  2.1404
   39POPC  C314 5297   1.827   0.312   7.891  1.1920 -0.6822 -0.4072
   39POPC  H14X 5298   1.803   0.417   7.919 -2.2957 -1.5601  0.4422
   39POPC  H14Y 5299   1.909   0.310   7.817  2.0189 -0.0702  0.4680
   39POPC  C315 5300   1.870   0.224   8.011 -0.1761  0.1628 -0.2878
   39POPC  H15X 5301   1.940   0.149   7.968  2.5966  2.2232  0.2861
   39POPC  H15Y 5302   1.790   0.176   8.070 -0.2690 -0.2492 -0.7432
   39POPC  C316 5303   1.956   0.301   8.108 -0.0425 -0.0362  0.6794
   39POPC  H16X 5304   2.043   0.339   8.051 -1.2430 -0.7352 -1.7477
   39POPC  H16Y 5305   1.974   0.241   8.200 -1.3687  2.0760  2.4183
   39POPC  H16Z 5306   1.890   0.381   8.147 -1.0380  0.2070 -1.4046
   40POPC     N 5307   1.325   4.807   5.607 -0.1440 -0.1040 -0.3600
   40POPC   C12 5308   1.390   4.842   5.739 -0.0506  0.1160  0.4855
   40POPC  H12A 5309   1.366   4.943   5.768  0.0727 -0.0884  1.3316
   40POPC  H12B 5310   1.497   4.841   5.725 -0.2603  1.4679 -1.6207
   40POPC   C13 5311   1.352   4.668   5.572  0.6964  1.3519 -0.4222
   40POPC  H13A 5312   1.458   4.651   5.560  0.9202 -1.1660  3.2525
   40POPC  H13B 5313   1.317   4.604   5.652  3.3306 -1.8980 -1.6033
   40POPC  H13C 5314   1.308   4.642   5.477  0.5165 -0.5813  0.1424
   40POPC   C14 5315   1.183   4.826   5.627  0.0142  0.3619  0.5070
   40POPC  H14A 5316   1.146   4.744   5.686  1.1195 -0.3356  0.2649
   40POPC  H14B 5317   1.165   4.920   5.677  2.1374  0.4445  1.2240
   40POPC  H14C 5318   1.128   4.831   5.534  1.3991 -0.6216 -0.4193
   40POPC   C15 5319   1.360   4.892   5.491 -0.2881  0.1385 -0.3539
   40POPC  H15A 5320   1.421   4.975   5.526 -1.4759 -0.6926  4.4211
   40POPC  H15B 5321   1.269   4.937   5.455  0.5223  0.0460 -2.6250
   40POPC  H15C 5322   1.398   4.832   5.410  0.4619  0.3160 -0.1488
   40POPC   C11 5323   1.354   4.757   5.870  0.1204 -0.0264  0.2821
   40POPC  H11A 5324   1.243   4.755   5.882 -0.0230  1.1746 -0.6116
   40POPC  H11B 5325   1.391   4.823   5.951  2.0330  0.6186 -1.0481
   40POPC     P 5326   1.559   4.608   5.931 -0.0855  0.1249  0.0240
   40POPC   O13 5327   1.665   4.679   5.859  0.1832  0.1596  0.2861
   40POPC   O14 5328   1.580   4.463   5.933 -0.3787  0.5642  0.1621
   40POPC   O12 5329   1.418   4.636   5.862 -0.1502  0.5685 -0.0674
   40POPC   O11 5330   1.542   4.664   6.076 -0.1833  0.4911 -0.4077
   40POPC    C1 5331   1.426   4.624   6.162  0.4584 -0.7004  0.3411
   40POPC    HA 5332   1.346   4.587   6.094 -0.3173  0.3814  0.6427
   40POPC    HB 5333   1.390   4.719   6.207 -0.9064 -1.8425  1.7459
   40POPC    C2 5334   1.460   4.524   6.271 -0.3472  0.2926 -0.2288
   40POPC    HS 5335   1.364   4.511   6.325 -0.1052  1.4755  0.5276
   40POPC   O21 5336   1.563   4.575   6.368 -0.3342 -0.1340  0.1826
   40POPC   C21 5337   1.523   4.668   6.456 -0.6153  0.0010  0.8526
   40POPC   O22 5338   1.414   4.716   6.467  0.4130 -0.4143  0.1436
   40POPC   C22 5339   1.646   4.714   6.537 -0.1289 -0.3976 -0.3767
   40POPC   H2R 5340   1.709   4.771   6.466 -0.7021 -0.7180 -1.1661
   40POPC   H2S 5341   1.703   4.626   6.573  1.8300  0.5349 -1.0898
   40POPC    C3 5342   1.494   4.383   6.214  0.2888 -0.0978 -0.3212
   40POPC    HX 5343   1.580   4.382   6.143  0.2062  0.3031 -0.4302
   40POPC    HY 5344   1.413   4.352   6.145  2.4880 -1.1452 -2.6396
   40POPC   O31 5345   1.508   4.292   6.329 -0.2906  0.1720 -0.2396
   40POPC   C31 5346   1.633   4.245   6.351  0.3924 -0.5374  0.5562
   40POPC   O32 5347   1.731   4.281   6.288 -0.2219  0.1123 -0.4932
   40POPC   C32 5348   1.646   4.160   6.478  0.4047  0.3597 -0.1782
   40POPC   H2X 5349   1.636   4.051   6.456  1.9274  0.4104 -1.3573
   40POPC   H2Y 5350   1.569   4.194   6.550 -0.0853  1.8933 -1.3674
   40POPC   C23 5351   1.609   4.813   6.646 -0.8943  0.0554  0.0406
   40POPC   H3R 5352   1.539   4.890   6.606  0.6257  0.6509 -1.6151
   40POPC   H3S 5353   1.709   4.851   6.675 -0.5973  0.7396 -1.7576
   40POPC   C24 5354   1.539   4.753   6.774 -0.1557  0.3832 -0.3005
   40POPC   H4R 5355   1.537   4.643   6.764 -1.6159  0.4504 -1.0302
   40POPC   H4S 5356   1.434   4.787   6.786 -0.8137 -1.8673  0.8713
   40POPC   C25 5357   1.624   4.788   6.899  0.0879 -0.8191  0.2980
   40POPC   H5R 5358   1.631   4.899   6.903  1.2781 -0.7197 -2.3720
   40POPC   H5S 5359   1.730   4.756   6.883 -0.0734 -1.3455  0.2650
   40POPC   C26 5360   1.565   4.737   7.031  0.2383  0.4395  0.5687
   40POPC   H6R 5361   1.651   4.718   7.098 -0.9762 -2.4727  1.4590
   40POPC   H6S 5362   1.497   4.650   7.018 -3.1062  2.5823  2.0480
   40POPC   C27 5363   1.467   4.842   7.096  0.4933  0.0932  0.1678
   40POPC   H7R 5364   1.389   4.861   7.019  0.5025  0.5253  0.2679
   40POPC   H7S 5365   1.530   4.927   7.130 -0.1645  0.0163  1.6374
   40POPC   C28 5366   1.383   4.790   7.218 -0.1705 -0.1559 -0.1738
   40POPC   H8R 5367   1.325   4.706   7.175  1.1744 -0.9869 -0.4308
   40POPC   H8S 5368   1.326   4.879   7.253  1.5249  0.6095  0.7874
   40POPC   C29 5369   1.450   4.724   7.338  0.0563  1.0609  0.4475
   40POPC   H91 5370   1.538   4.663   7.312  0.6530  2.2347 -0.3968
   40POPC  C210 5371   1.430   4.740   7.464  0.2090  0.0289 -0.0108
   40POPC  H101 5372   1.502   4.686   7.527 -0.4288 -1.4526 -0.4826
   40POPC  C211 5373   1.317   4.822   7.530 -0.6312 -0.3440  0.4256
   40POPC  H11R 5374   1.228   4.817   7.464 -0.7848 -3.3146  0.7100
   40POPC  H11S 5375   1.354   4.927   7.530  2.1114 -1.1914 -0.9619
   40POPC  C212 5376   1.276   4.779   7.666 -0.3683  0.4290 -0.4583
   40POPC  H12R 5377   1.357   4.797   7.740  1.7885  0.4821 -2.7105
   40POPC  H12S 5378   1.263   4.669   7.667  1.3639  0.2036 -0.4589
   40POPC  C213 5379   1.152   4.846   7.713  0.3803  0.0042 -0.0865
   40POPC  H13R 5380   1.073   4.847   7.634  1.3304  1.5959 -1.0798
   40POPC  H13S 5381   1.172   4.955   7.721  0.6337  0.1939 -2.4327
   40POPC  C214 5382   1.102   4.796   7.849 -0.6704  0.4613  0.0866
   40POPC  H14R 5383   1.067   4.692   7.831  0.7902  0.0357 -0.4743
   40POPC  H14S 5384   1.018   4.861   7.880  1.0744  2.7705  0.1738
   40POPC  C215 5385   1.198   4.812   7.966  0.2765 -0.2233  0.6929
   40POPC  H15R 5386   1.244   4.912   7.961  2.4121 -0.9454  3.4613
   40POPC  H15S 5387   1.280   4.737   7.954 -2.1206 -2.7702 -1.1304
   40POPC  C216 5388   1.124   4.804   8.096 -1.4486  0.1597  0.1552
   40POPC  H16R 5389   1.049   4.723   8.097  1.7877 -3.1005  1.6009
   40POPC  H16S 5390   1.072   4.902   8.101  1.3266  1.7795 -0.5819
   40POPC  C217 5391   1.209   4.791   8.221 -0.3818 -0.2173 -0.0531
   40POPC  H17R 5392   1.136   4.811   8.303 -2.9477  1.3775 -2.5239
   40POPC  H17S 5393   1.295   4.861   8.222 -0.9241  0.4607 -0.0715
   40POPC  C218 5394   1.260   4.646   8.240  0.4559 -0.2120  0.1400
   40POPC  H18R 5395   1.302   4.608   8.144 -0.3911 -2.1506  0.4892
   40POPC  H18S 5396   1.179   4.573   8.261  0.3437 -0.3144 -0.6255
   40POPC  H18T 5397   1.332   4.636   8.324  2.7432  3.6118 -1.0940
   40POPC   C33 5398   1.782   4.187   6.553  0.0534 -0.5292  0.3116
   40POPC   H3X 5399   1.871   4.158   6.493  0.6016 -1.5215  1.5547
   40POPC   H3Y 5400   1.774   4.116   6.637  0.8721  0.0392  0.8884
   40POPC   C34 5401   1.790   4.331   6.605 -0.4831  0.1937 -0.4062
   40POPC   H4X 5402   1.777   4.414   6.531 -1.0254 -1.0566 -1.7661
   40POPC   H4Y 5403   1.892   4.334   6.650 -0.8792 -0.7596  0.5665
   40POPC   C35 5404   1.696   4.368   6.717  0.2296 -1.0995 -0.0088
   40POPC   H5X 5405   1.593   4.376   6.677 -0.0700  2.9183  1.2342
   40POPC   H5Y 5406   1.729   4.469   6.747 -1.5595 -0.2215 -0.8688
   40POPC   C36 5407   1.704   4.282   6.839 -0.9337  0.2424  0.0290
   40POPC   H6X 5408   1.811   4.261   6.860 -0.8066  0.2752 -0.5695
   40POPC   H6Y 5409   1.655   4.184   6.821 -0.3384 -0.5946  2.5307
   40POPC   C37 5410   1.654   4.356   6.956  0.1378  0.1357 -0.2622
   40POPC   H7X 5411   1.543   4.360   6.945  0.2866  3.4530 -1.6969
   40POPC   H7Y 5412   1.678   4.464   6.954  0.7663 -0.0198 -2.0815
   40POPC   C38 5413   1.683   4.280   7.084 -0.7437  0.2132  0.1281
   40POPC   H8X 5414   1.789   4.248   7.095  0.1136  3.0113  0.6206
   40POPC   H8Y 5415   1.617   4.191   7.096  0.0708 -0.5045 -0.5838
   40POPC   C39 5416   1.653   4.374   7.198 -0.3525  0.2157  0.5108
   40POPC   H9X 5417   1.551   4.414   7.182 -1.7847 -2.2065  2.9183
   40POPC   H9Y 5418   1.729   4.456   7.199  0.0730 -0.1053 -1.1944
   40POPC  C310 5419   1.647   4.303   7.331 -0.6386 -1.0416  0.3193
   40POPC  H10X 5420   1.727   4.228   7.347  0.4869 -0.1350 -0.8801
   40POPC  H10Y 5421   1.549   4.254   7.348 -1.3399  0.7455  1.8368
   40POPC  C311 5422   1.640   4.413   7.444  0.4284  0.8058 -0.2090
   40POPC  H11X 5423   1.539   4.458   7.433 -1.1633 -2.4851 -0.3055
   40POPC  H11Y 5424   1.708   4.500   7.428 -0.8514  1.9689  0.4434
   40POPC  C312 5425   1.651   4.365   7.587  0.2978  0.0653  0.4554
   40POPC  H12X 5426   1.759   4.353   7.610  0.5691  2.8863  1.0834
   40POPC  H12Y 5427   1.604   4.265   7.596  0.7417 -0.2330 -0.4241
   40POPC  C313 5428   1.585   4.456   7.689  0.0160 -0.6636 -1.5453
   40POPC  H13X 5429   1.475   4.468   7.678 -0.0540  0.2808 -0.0793
   40POPC  H13Y 5430   1.620   4.560   7.675 -1.5876 -0.0412 -1.1091
   40POPC  C314 5431   1.610   4.414   7.829  0.8551  0.2529 -0.2988
   40POPC  H14X 5432   1.709   4.365   7.837  2.3828  3.1285 -0.0944
   40POPC  H14Y 5433   1.537   4.337   7.862  1.9147 -0.6778 -0.0717
   40POPC  C315 5434   1.619   4.531   7.933  0.2186  0.2382 -0.3534
   40POPC  H15X 5435   1.545   4.611   7.913 -0.8706  0.0626  2.4352
   40POPC  H15Y 5436   1.718   4.580   7.930  0.6505 -0.5551  0.4179
   40POPC  C316 5437   1.605   4.476   8.080  0.3435  0.1173  0.5371
   40POPC  H16X 5438   1.509   4.425   8.100  0.6039 -0.1164  1.2431
   40POPC  H16Y 5439   1.623   4.554   8.157  0.4258  0.2158  0.4186
   40POPC  H16Z 5440   1.684   4.403   8.110  1.0048  0.3653 -0.5471
   41CHL1    C3 5441   1.810   4.804   9.929 -0.0920  0.9881  0.1914
   41CHL1    H3 5442   1.751   4.710   9.921 -0.3522  1.2412 -1.3853
   41CHL1    O3 5443   1.843   4.812  10.066  0.0884 -0.0707 -0.3539
   41CHL1   H3' 5444   1.875   4.722  10.082 -2.8546 -1.4585 -1.5296
   41CHL1    C4 5445   1.941   4.782   9.855 -0.3880 -0.6207 -0.2690
   41CHL1   H4A 5446   2.009   4.866   9.881  0.3560 -1.8285  1.9009
   41CHL1   H4B 5447   2.001   4.693   9.881 -1.9390 -1.6991 -0.2222
   41CHL1    C5 5448   1.915   4.786   9.705  0.0441 -0.2644  0.4660
   41CHL1    C6 5449   1.957   4.678   9.635 -0.1052  0.1409  0.2751
   41CHL1    H6 5450   2.006   4.598   9.692  1.1179  0.3173 -0.4806
   41CHL1    C7 5451   1.953   4.666   9.486 -0.6066 -0.1657 -0.4046
   41CHL1   H7A 5452   2.049   4.622   9.451  0.6359  1.7587  0.4418
   41CHL1   H7B 5453   1.867   4.604   9.452 -0.5446 -0.2332 -0.4380
   41CHL1    C8 5454   1.921   4.798   9.418  0.2399  0.4580  0.3534
   41CHL1    H8 5455   2.009   4.865   9.426  0.8151 -0.3850  1.3562
   41CHL1   C14 5456   1.884   4.783   9.270  0.1222  0.3504 -0.7576
   41CHL1   H14 5457   1.799   4.711   9.262  0.5650 -0.3859  0.8709
   41CHL1   C15 5458   1.987   4.710   9.180  0.4367  0.1785 -0.3027
   41CHL1  H15A 5459   2.090   4.736   9.215 -0.6089  3.1891  0.8582
   41CHL1  H15B 5460   1.972   4.601   9.192 -2.5956  0.6216  0.8085
   41CHL1   C16 5461   1.942   4.742   9.041  0.4611  0.2063  0.3931
   41CHL1  H16A 5462   2.021   4.769   8.968 -1.1091  1.3685 -0.9572
   41CHL1  H16B 5463   1.894   4.648   9.008  0.4593  0.7536 -1.2232
   41CHL1   C17 5464   1.832   4.857   9.047  0.2158 -0.0626 -0.0465
   41CHL1   H17 5465   1.734   4.805   9.040 -0.2649  0.6364  1.2059
   41CHL1   C13 5466   1.837   4.907   9.194 -0.3589 -0.0200  0.0611
   41CHL1   C18 5467   1.948   5.012   9.201 -0.0769  0.0769  0.4468
   41CHL1  H18A 5468   1.908   5.104   9.152 -0.9776  0.2716  1.5083
   41CHL1  H18B 5469   1.989   5.041   9.300  1.0003 -0.0471  0.0495
   41CHL1  H18C 5470   2.034   4.980   9.140 -1.0674  0.7638 -1.3965
   41CHL1   C12 5471   1.708   4.959   9.261 -0.4595 -0.2560 -0.1368
   41CHL1  H12A 5472   1.663   5.054   9.224 -3.7193 -1.6935 -0.1988
   41CHL1  H12B 5473   1.631   4.879   9.257 -0.3263 -0.4121  0.4498
   41CHL1   C11 5474   1.741   4.986   9.410  1.2610  0.3213 -0.1604
   41CHL1  H11A 5475   1.805   5.076   9.421 -1.8450  2.6804 -0.1883
   41CHL1  H11B 5476   1.645   5.019   9.455  0.1101 -0.7034 -1.7839
   41CHL1    C9 5477   1.802   4.865   9.493 -0.7127 -0.4029 -0.6089
   41CHL1    H9 5478   1.714   4.797   9.491 -1.9277  1.1106 -1.3921
   41CHL1   C10 5479   1.835   4.898   9.643 -0.1427  0.7499 -0.0289
   41CHL1   C19 5480   1.910   5.032   9.650 -0.2124 -0.1708  0.1547
   41CHL1  H19A 5481   1.998   5.012   9.584 -1.4867 -0.0489 -1.6714
   41CHL1  H19B 5482   1.849   5.121   9.622 -0.1643 -0.6487 -1.6230
   41CHL1  H19C 5483   1.940   5.049   9.755 -0.6904 -1.3008  0.4851
   41CHL1    C1 5484   1.702   4.913   9.725 -0.1988  0.5605 -0.3705
   41CHL1   H1A 5485   1.653   5.009   9.697 -0.3857  0.2057 -1.3000
   41CHL1   H1B 5486   1.630   4.830   9.710 -0.9988  1.2052 -0.1621
   41CHL1    C2 5487   1.724   4.918   9.878  0.9233 -0.4442  0.3982
   41CHL1   H2A 5488   1.626   4.925   9.930  0.0057  2.0068 -1.4779
   41CHL1   H2B 5489   1.781   5.012   9.891 -1.3437  0.9781  0.5485
   41CHL1   C20 5490   1.828   4.950   8.925  0.2118 -0.3148 -0.4765
   41CHL1   H20 5491   1.929   4.996   8.913 -0.5097  2.0356  1.5306
   41CHL1   C21 5492   1.725   5.063   8.941 -0.0721  0.3584 -0.6356
   41CHL1  H21A 5493   1.750   5.119   9.033  0.8251 -1.6622  0.4130
   41CHL1  H21B 5494   1.620   5.030   8.954 -0.3059  1.8846  2.2660
   41CHL1  H21C 5495   1.736   5.141   8.863  1.1526  0.9499  0.0926
   41CHL1   C22 5496   1.799   4.877   8.790  0.0939  0.1183 -0.3347
   41CHL1  H22A 5497   1.874   4.796   8.780 -0.7093 -1.0345  2.1518
   41CHL1  H22B 5498   1.698   4.831   8.797 -0.6358  1.5735 -0.9465
   41CHL1   C23 5499   1.810   4.968   8.666  0.3902  0.5368  0.1811
   41CHL1  H23A 5500   1.741   5.055   8.659  1.4462  1.3132 -1.2328
   41CHL1  H23B 5501   1.912   5.011   8.670  0.2370  0.9581 -0.3471
   41CHL1   C24 5502   1.794   4.900   8.533 -0.1303 -0.6298  0.3150
   41CHL1  H24A 5503   1.879   4.829   8.524 -1.1595 -1.7321 -1.3363
   41CHL1  H24B 5504   1.705   4.834   8.528 -1.2711  0.9065 -0.5319
   41CHL1   C25 5505   1.789   5.010   8.422 -0.2973 -0.1183  0.5374
   41CHL1   H25 5506   1.845   5.098   8.461  0.9349  0.6139 -2.5654
   41CHL1   C26 5507   1.862   4.956   8.291  0.2049 -0.2077  0.4355
   41CHL1  H26A 5508   1.893   5.048   8.237  1.4964 -0.3694  0.8625
   41CHL1  H26B 5509   1.938   4.884   8.329 -1.7030 -0.6796  3.8171
   41CHL1  H26C 5510   1.780   4.915   8.229  2.5198 -1.8019 -1.7260
   41CHL1   C27 5511   1.646   5.047   8.381  0.0550 -0.1265 -0.3107
   41CHL1  H27A 5512   1.646   5.116   8.293  1.1118  0.8777  0.4609
   41CHL1  H27B 5513   1.591   4.953   8.357  1.2626 -0.8919 -0.1162
   41CHL1  H27C 5514   1.593   5.098   8.464 -1.1116 -2.4101  0.4247
   42CHL1    C3 5515   1.608   0.303   9.788 -0.2242  0.1180  0.0503
   42CHL1    H3 5516   1.690   0.232   9.761 -0.0085  0.8532 -1.3456
   42CHL1    O3 5517   1.573   0.255   9.914 -0.0004 -0.4676 -0.2754
   42CHL1   H3' 5518   1.480   0.279   9.916 -0.1401 -0.9618 -0.5031
   42CHL1    C4 5519   1.663   0.448   9.785 -0.2663 -0.1301  0.3746
   42CHL1   H4A 5520   1.579   0.508   9.827 -0.0424 -1.1649  2.4476
   42CHL1   H4B 5521   1.743   0.458   9.862  1.0785  1.6669 -1.1679
   42CHL1    C5 5522   1.713   0.484   9.650  0.1514 -0.0526 -0.2846
   42CHL1    C6 5523   1.839   0.514   9.643 -0.3681  0.4560 -0.7955
   42CHL1    H6 5524   1.895   0.502   9.737  0.9885 -0.6854 -1.7083
   42CHL1    C7 5525   1.915   0.549   9.519 -0.0566  0.4625  0.9048
   42CHL1   H7A 5526   1.968   0.647   9.521 -0.1448  0.4978  1.8555
   42CHL1   H7B 5527   1.986   0.472   9.482 -0.9635  0.4263 -0.9131
   42CHL1    C8 5528   1.814   0.575   9.398 -0.1900  0.2109  0.3107
   42CHL1    H8 5529   1.778   0.679   9.393 -2.5826 -0.6342 -2.7241
   42CHL1   C14 5530   1.895   0.554   9.266  0.6551  0.6549  0.3491
   42CHL1   H14 5531   1.920   0.446   9.258  1.8067  0.9768 -0.5141
   42CHL1   C15 5532   2.033   0.615   9.247 -0.4702  0.1923 -0.2317
   42CHL1  H15A 5533   2.033   0.708   9.307  1.5563  0.4925 -0.6105
   42CHL1  H15B 5534   2.106   0.547   9.297 -1.7813 -0.3134  1.0582
   42CHL1   C16 5535   2.055   0.632   9.099 -0.4083  0.2492 -0.1767
   42CHL1  H16A 5536   2.073   0.739   9.075  1.3120  0.0614  0.1553
   42CHL1  H16B 5537   2.140   0.575   9.056 -0.0769  1.8533 -1.8034
   42CHL1   C17 5538   1.921   0.583   9.033  0.1586 -0.0464 -0.5125
   42CHL1   H17 5539   1.939   0.475   9.014 -1.2388 -0.5530  0.9526
   42CHL1   C13 5540   1.814   0.591   9.140 -0.2462 -0.3155  0.2036
   42CHL1   C18 5541   1.760   0.734   9.143  0.5825  0.5789 -0.0688
   42CHL1  H18A 5542   1.841   0.807   9.167 -0.1167  0.8570  1.5953
   42CHL1  H18B 5543   1.719   0.766   9.045  1.7015 -0.5251 -0.9285
   42CHL1  H18C 5544   1.683   0.742   9.223 -0.0505 -0.6422 -0.5379
   42CHL1   C12 5545   1.699   0.485   9.130  0.9687  0.9814 -0.7006
   42CHL1  H12A 5546   1.621   0.499   9.052 -2.8181 -0.1607  2.5563
   42CHL1  H12B 5547   1.738   0.381   9.128 -0.1462  0.4417  2.0142
   42CHL1   C11 5548   1.617   0.477   9.263 -0.2734  0.8879  0.4849
   42CHL1  H11A 5549   1.557   0.570   9.258  1.6686  2.1476 -2.0698
   42CHL1  H11B 5550   1.542   0.395   9.269  0.1695  0.3395 -1.0564
   42CHL1    C9 5551   1.699   0.471   9.394  0.4989  0.1637  0.4539
   42CHL1    H9 5552   1.753   0.374   9.393 -1.8066 -1.2670  2.1685
   42CHL1   C10 5553   1.619   0.463   9.524  0.2891 -0.1558 -0.2200
   42CHL1   C19 5554   1.510   0.573   9.525 -0.4329  0.1398 -0.4317
   42CHL1  H19A 5555   1.557   0.667   9.490  0.1442 -0.2956 -0.8311
   42CHL1  H19B 5556   1.421   0.550   9.462 -1.3583  0.2440  0.7906
   42CHL1  H19C 5557   1.464   0.588   9.625 -1.0014 -0.0400 -0.6633
   42CHL1    C1 5558   1.539   0.325   9.543 -0.0331  1.0394 -0.5434
   42CHL1   H1A 5559   1.441   0.327   9.491 -2.0033 -1.5641  2.7121
   42CHL1   H1B 5560   1.596   0.242   9.496  0.3618  0.0773  1.5235
   42CHL1    C2 5561   1.501   0.283   9.683 -0.6006  0.2631 -0.4707
   42CHL1   H2A 5562   1.473   0.175   9.686 -2.9561  0.8304  1.2105
   42CHL1   H2B 5563   1.414   0.344   9.717 -3.7459 -2.5471 -2.7119
   42CHL1   C20 5564   1.896   0.635   8.891 -0.1000  0.7544  0.8166
   42CHL1   H20 5565   1.885   0.746   8.894  2.6835  1.1040  1.4271
   42CHL1   C21 5566   1.771   0.568   8.829  0.4930 -0.4921 -0.2425
   42CHL1  H21A 5567   1.770   0.459   8.847  1.2069 -0.6672 -1.1457
   42CHL1  H21B 5568   1.782   0.579   8.719  0.6580  0.6220 -0.1257
   42CHL1  H21C 5569   1.682   0.619   8.869 -1.6344 -2.9238 -1.5708
   42CHL1   C22 5570   2.019   0.607   8.802  0.1354 -0.4164 -0.2048
   42CHL1  H22A 5571   2.118   0.615   8.853  0.9003 -1.2343 -1.4897
   42CHL1  H22B 5572   2.020   0.498   8.777  0.6874 -0.0855 -1.7703
   42CHL1   C23 5573   2.015   0.682   8.675 -0.4320 -0.6076  0.0407
   42CHL1  H23A 5574   1.916   0.718   8.641 -0.3286  0.0642  0.4376
   42CHL1  H23B 5575   2.070   0.776   8.694  1.9046 -1.7329 -0.7862
   42CHL1   C24 5576   2.087   0.601   8.565 -0.0020  0.5504 -0.3024
   42CHL1  H24A 5577   2.186   0.565   8.602 -0.3972  1.1717  1.4251
   42CHL1  H24B 5578   2.019   0.521   8.529 -0.9614  0.9818  0.5127
   42CHL1   C25 5579   2.114   0.688   8.436  0.4981  0.1793  0.0561
   42CHL1   H25 5580   2.175   0.619   8.372  0.9246 -0.8158  1.4782
   42CHL1   C26 5581   1.990   0.729   8.354 -0.1805 -0.3332 -0.2833
   42CHL1  H26A 5582   1.930   0.799   8.416 -0.4021 -0.2389 -0.5957
   42CHL1  H26B 5583   2.015   0.791   8.265 -0.6053  2.7987  1.6620
   42CHL1  H26C 5584   1.921   0.645   8.329 -1.1950  0.4741 -0.2693
   42CHL1   C27 5585   2.208   0.804   8.465  0.3174  0.3909  0.3070
   42CHL1  H27A 5586   2.179   0.886   8.534  0.1820  1.3400 -0.8481
   42CHL1  H27B 5587   2.311   0.776   8.496  0.3361  2.4472  2.4136
   42CHL1  H27C 5588   2.220   0.860   8.370  1.0606  0.6012  0.5133
   43CHL1    C3 5589   2.238   3.470   9.909 -1.0853 -0.1115  0.5787
   43CHL1    H3 5590   2.192   3.570   9.895  1.6953  1.1256 -0.6057
   43CHL1    O3 5591   2.252   3.449  10.046 -0.0520  0.2424 -0.5138
   43CHL1   H3' 5592   2.191   3.513  10.083 -2.0687 -0.9583 -1.5764
   43CHL1    C4 5593   2.159   3.359   9.835  0.8959  0.1922 -0.7380
   43CHL1   H4A 5594   2.202   3.263   9.870 -1.8046  0.1463  3.0041
   43CHL1   H4B 5595   2.062   3.349   9.888 -0.5461 -0.4277 -3.2965
   43CHL1    C5 5596   2.154   3.367   9.686 -0.2108 -0.4117  1.0318
   43CHL1    C6 5597   2.037   3.348   9.619 -0.0049 -0.8284  0.0025
   43CHL1    H6 5598   1.943   3.327   9.671 -0.7093 -0.2945 -1.0307
   43CHL1    C7 5599   2.037   3.336   9.465  0.3159 -0.2455  0.2066
   43CHL1   H7A 5600   1.977   3.250   9.429 -0.6523  0.7098 -0.5354
   43CHL1   H7B 5601   1.988   3.429   9.427  1.5202  0.0346 -0.7063
   43CHL1    C8 5602   2.177   3.328   9.404 -0.3451  0.6384 -0.2388
   43CHL1    H8 5603   2.205   3.222   9.424 -1.9545  0.0652 -0.7827
   43CHL1   C14 5604   2.181   3.354   9.250 -0.2096 -0.4601 -0.5480
   43CHL1   H14 5605   2.150   3.459   9.237  0.6368 -0.2923 -1.3001
   43CHL1   C15 5606   2.084   3.260   9.173  0.3450 -0.2187  0.6617
   43CHL1  H15A 5607   2.098   3.150   9.179  1.4294 -0.1411 -0.1828
   43CHL1  H15B 5608   1.978   3.288   9.192 -0.2607  0.8345 -3.3818
   43CHL1   C16 5609   2.128   3.287   9.023 -0.2123  0.4749 -0.7994
   43CHL1  H16A 5610   2.152   3.191   8.972 -1.3823 -0.3347  0.1194
   43CHL1  H16B 5611   2.048   3.349   8.979  2.4424  2.6042 -2.9436
   43CHL1   C17 5612   2.272   3.356   9.033 -0.8264 -0.5999  0.5641
   43CHL1   H17 5613   2.242   3.463   9.021 -0.5488 -0.6067 -0.2496
   43CHL1   C13 5614   2.314   3.342   9.180  0.1456 -0.3233 -0.0888
   43CHL1   C18 5615   2.372   3.199   9.199 -0.4085 -0.4292  0.1813
   43CHL1  H18A 5616   2.391   3.184   9.307 -2.4644 -2.2978  0.3473
   43CHL1  H18B 5617   2.295   3.125   9.171  1.2675 -1.5666 -1.7176
   43CHL1  H18C 5618   2.469   3.178   9.148 -1.1646 -1.2984 -0.9555
   43CHL1   C12 5619   2.408   3.448   9.242  0.6126 -0.4163  0.0488
   43CHL1  H12A 5620   2.510   3.422   9.209  0.6779  0.7873 -0.7664
   43CHL1  H12B 5621   2.386   3.550   9.204  2.2234 -0.5313 -1.2897
   43CHL1   C11 5622   2.417   3.437   9.390 -0.7698  0.0398  0.0551
   43CHL1  H11A 5623   2.477   3.347   9.416  1.3177  1.5966  0.9455
   43CHL1  H11B 5624   2.464   3.530   9.427  0.0760 -0.0211 -0.8153
   43CHL1    C9 5625   2.272   3.430   9.466 -0.3802 -0.8125  0.0775
   43CHL1    H9 5626   2.219   3.527   9.463 -1.8573 -1.5715  0.6421
   43CHL1   C10 5627   2.296   3.389   9.614  0.4950 -0.1750 -1.1057
   43CHL1   C19 5628   2.396   3.284   9.636 -0.8439 -0.6136 -0.0616
   43CHL1  H19A 5629   2.382   3.196   9.569  1.0393 -1.6183  0.7786
   43CHL1  H19B 5630   2.497   3.321   9.609 -1.0154 -0.1787 -0.1235
   43CHL1  H19C 5631   2.383   3.240   9.737 -1.7975 -0.0415  0.0763
   43CHL1    C1 5632   2.356   3.519   9.688  0.5160  0.0529  0.2279
   43CHL1   H1A 5633   2.459   3.541   9.654  1.0537  0.5438  2.0562
   43CHL1   H1B 5634   2.299   3.610   9.661  0.1940 -0.3528 -0.4838
   43CHL1    C2 5635   2.371   3.501   9.839  0.8036 -1.0211  0.4661
   43CHL1   H2A 5636   2.415   3.592   9.885 -2.2343 -0.0815  1.8110
   43CHL1   H2B 5637   2.437   3.413   9.854 -0.1359 -1.9872 -0.6991
   43CHL1   C20 5638   2.358   3.321   8.914 -0.7692 -0.2201 -0.3879
   43CHL1   H20 5639   2.362   3.210   8.904 -0.5865 -0.0733 -2.0984
   43CHL1   C21 5640   2.505   3.381   8.926 -0.0405  0.1388 -0.0432
   43CHL1  H21A 5641   2.489   3.487   8.956 -1.9533 -0.3584  0.8843
   43CHL1  H21B 5642   2.564   3.366   8.833  0.7778  0.5997  0.3918
   43CHL1  H21C 5643   2.558   3.335   9.011  0.1021 -2.2309 -1.3116
   43CHL1   C22 5644   2.293   3.361   8.781  0.1060 -0.2905  0.2630
   43CHL1  H22A 5645   2.183   3.343   8.777 -0.3177  1.9624  0.0797
   43CHL1  H22B 5646   2.305   3.469   8.756 -1.2078  0.3071  2.0336
   43CHL1   C23 5647   2.355   3.279   8.657 -0.4669  0.4883  0.6783
   43CHL1  H23A 5648   2.463   3.300   8.640  0.3813 -3.6382 -0.1140
   43CHL1  H23B 5649   2.349   3.171   8.681  0.5112 -0.1872 -1.7838
   43CHL1   C24 5650   2.293   3.313   8.518  0.1289  0.1867 -1.0926
   43CHL1  H24A 5651   2.187   3.281   8.518  0.5294 -1.1919 -0.8146
   43CHL1  H24B 5652   2.294   3.424   8.507 -0.2165  0.0684 -2.5049
   43CHL1   C25 5653   2.355   3.246   8.397 -1.1564  0.0979 -0.4775
   43CHL1   H25 5654   2.456   3.290   8.382 -0.7904  0.4491  2.4560
   43CHL1   C26 5655   2.369   3.098   8.427  0.4395  0.2290  0.1000
   43CHL1  H26A 5656   2.399   3.042   8.335  1.3558 -1.0029  1.1209
   43CHL1  H26B 5657   2.454   3.065   8.490  0.4501 -0.0316 -0.0455
   43CHL1  H26C 5658   2.275   3.054   8.465 -0.3265  1.3596 -0.4264
   43CHL1   C27 5659   2.271   3.274   8.265  0.0586  0.2030 -0.7789
   43CHL1  H27A 5660   2.315   3.209   8.186 -0.8556 -4.6287  2.2132
   43CHL1  H27B 5661   2.165   3.244   8.281  0.4659 -0.4354  1.0571
   43CHL1  H27C 5662   2.278   3.383   8.245  1.6310  0.4474  0.8449
   44CHL1    C3 5663   1.283   6.100   9.881  0.2508 -0.3992  0.0048
   44CHL1    H3 5664   1.190   6.088   9.822 -0.7977 -0.2643  1.5648
   44CHL1    O3 5665   1.250   6.068  10.016 -0.9799  0.0882  0.3928
   44CHL1   H3' 5666   1.326   6.085  10.072 -1.5002 -3.5172  2.5403
   44CHL1    C4 5667   1.389   6.003   9.823  0.1896  0.5627  0.3965
   44CHL1   H4A 5668   1.483   6.008   9.882  0.6889 -0.7631 -0.2554
   44CHL1   H4B 5669   1.356   5.900   9.846  2.1093 -0.4434 -1.1084
   44CHL1    C5 5670   1.410   6.031   9.676  0.4398 -0.0130 -0.3779
   44CHL1    C6 5671   1.378   5.949   9.573  0.0790 -0.3828  0.1933
   44CHL1    H6 5672   1.337   5.851   9.603 -0.9525  0.6549  2.4629
   44CHL1    C7 5673   1.414   5.976   9.431  0.4296  0.4809  0.3729
   44CHL1   H7A 5674   1.454   5.882   9.387 -0.2537  0.2791  0.1592
   44CHL1   H7B 5675   1.322   5.999   9.372 -0.4274 -2.7180  0.2908
   44CHL1    C8 5676   1.517   6.092   9.408  0.0402  0.0465 -0.6275
   44CHL1    H8 5677   1.619   6.056   9.432  0.1460  1.6127  1.5248
   44CHL1   C14 5678   1.517   6.129   9.261  0.0645 -0.0835  0.0964
   44CHL1   H14 5679   1.416   6.175   9.252  0.2203  0.7250  2.0738
   44CHL1   C15 5680   1.521   6.033   9.142 -0.2275 -0.0605  0.1887
   44CHL1  H15A 5681   1.600   5.960   9.168  1.7002  0.9274 -2.4480
   44CHL1  H15B 5682   1.431   5.973   9.118  0.8662 -1.1492 -1.4210
   44CHL1   C16 5683   1.558   6.120   9.022  0.0807  0.4748 -0.6693
   44CHL1  H16A 5684   1.643   6.071   8.969  2.2950  0.6887  2.4666
   44CHL1  H16B 5685   1.478   6.107   8.945  1.0057 -3.1317 -1.2098
   44CHL1   C17 5686   1.585   6.265   9.075  0.2025 -0.7973  0.3636
   44CHL1   H17 5687   1.491   6.323   9.063  0.6616 -0.0168  0.4462
   44CHL1   C13 5688   1.605   6.242   9.225 -0.5502 -0.3634 -0.1142
   44CHL1   C18 5689   1.755   6.201   9.248  0.0055 -0.3113  0.3868
   44CHL1  H18A 5690   1.816   6.288   9.215 -0.6598 -0.0881 -0.2772
   44CHL1  H18B 5691   1.779   6.180   9.354  0.2067 -0.5013  0.3048
   44CHL1  H18C 5692   1.783   6.116   9.182 -0.9582 -1.4892  1.4502
   44CHL1   C12 5693   1.567   6.370   9.313 -0.3632  0.1945  0.5487
   44CHL1  H12A 5694   1.636   6.457   9.305 -2.0824  1.6360  0.8510
   44CHL1  H12B 5695   1.474   6.400   9.261  1.5342  1.5923 -2.3111
   44CHL1   C11 5696   1.557   6.335   9.463 -0.4737  0.4676 -0.4553
   44CHL1  H11A 5697   1.661   6.315   9.495 -1.1607  0.0082  1.6757
   44CHL1  H11B 5698   1.516   6.420   9.521 -0.9455 -0.0250 -0.0561
   44CHL1    C9 5699   1.476   6.206   9.496  0.1326  0.6734 -0.5906
   44CHL1    H9 5700   1.372   6.226   9.464  0.1643 -0.5281 -1.5171
   44CHL1   C10 5701   1.468   6.171   9.646  0.2741  0.8662 -0.9338
   44CHL1   C19 5702   1.617   6.171   9.689  0.2682 -0.1232 -0.1742
   44CHL1  H19A 5703   1.650   6.277   9.700 -1.0469  0.1309  2.1004
   44CHL1  H19B 5704   1.621   6.132   9.793 -1.4594 -0.6571 -0.2800
   44CHL1  H19C 5705   1.676   6.100   9.628  0.7424  0.2695 -0.1819
   44CHL1    C1 5706   1.389   6.278   9.730 -0.4947 -0.5500  0.8470
   44CHL1   H1A 5707   1.442   6.375   9.746 -1.2318 -0.3056  1.9213
   44CHL1   H1B 5708   1.299   6.295   9.668 -1.5079  0.9220  2.6085
   44CHL1    C2 5709   1.343   6.238   9.870 -0.1401  0.6870 -0.5678
   44CHL1   H2A 5710   1.261   6.306   9.901  0.8372  1.2061  1.0362
   44CHL1   H2B 5711   1.430   6.246   9.938  1.2588  0.7418 -2.2861
   44CHL1   C20 5712   1.673   6.344   8.977 -1.1707 -0.4854 -0.3251
   44CHL1   H20 5713   1.779   6.312   8.985 -1.1738 -0.1734  1.2876
   44CHL1   C21 5714   1.664   6.498   9.013 -0.6616  0.5360 -0.1102
   44CHL1  H21A 5715   1.725   6.553   8.938 -1.4513  1.2317 -0.2536
   44CHL1  H21B 5716   1.700   6.512   9.117 -2.1270 -1.8969  0.8164
   44CHL1  H21C 5717   1.566   6.550   9.009 -2.1128 -1.4776  4.0934
   44CHL1   C22 5718   1.625   6.328   8.832 -0.5273  0.0875 -0.3253
   44CHL1  H22A 5719   1.619   6.218   8.817  0.2072 -0.1871  1.1543
   44CHL1  H22B 5720   1.519   6.359   8.820 -0.4828  0.5362  0.3707
   44CHL1   C23 5721   1.734   6.383   8.728  0.2485 -0.6223  0.2462
   44CHL1  H23A 5722   1.706   6.484   8.690 -0.8489 -1.5763 -1.5980
   44CHL1  H23B 5723   1.827   6.405   8.784 -0.6483  1.9839  0.8694
   44CHL1   C24 5724   1.767   6.281   8.618 -0.4386 -0.4510  0.7969
   44CHL1  H24A 5725   1.781   6.181   8.664  2.3206 -0.5140  0.0339
   44CHL1  H24B 5726   1.692   6.292   8.537  1.1749 -2.0601 -1.0148
   44CHL1   C25 5727   1.903   6.325   8.556  0.0733 -0.3153 -0.3844
   44CHL1   H25 5728   1.901   6.436   8.546 -2.7710  0.2639  3.9948
   44CHL1   C26 5729   2.024   6.286   8.643  0.4426  0.2965  0.8389
   44CHL1  H26A 5730   2.032   6.175   8.654  0.8014  0.2039 -0.2800
   44CHL1  H26B 5731   2.115   6.328   8.596  1.3786 -1.5528  0.9179
   44CHL1  H26C 5732   2.022   6.333   8.744 -0.4866  0.6289  0.6725
   44CHL1   C27 5733   1.925   6.265   8.417 -0.0498  0.1754 -0.7133
   44CHL1  H27A 5734   1.833   6.269   8.354 -0.0421  0.7657 -0.6959
   44CHL1  H27B 5735   2.008   6.317   8.365 -1.7271  2.7366 -1.0537
   44CHL1  H27C 5736   1.963   6.162   8.431  1.5755  1.0370  1.8972
   45CHL1    C3 5737   0.438   6.448   9.861  0.1808 -1.1517  0.6748
   45CHL1    H3 5738   0.407   6.554   9.862 -0.3971 -1.3040  0.0132
   45CHL1    O3 5739   0.424   6.394   9.990  0.4259 -0.1151 -0.2855
   45CHL1   H3' 5740   0.447   6.301   9.990 -0.9518 -0.4800 -0.6676
   45CHL1    C4 5741   0.352   6.381   9.751  0.4148  0.2724 -0.2231
   45CHL1   H4A 5742   0.366   6.271   9.754  0.4293  0.2790 -0.0170
   45CHL1   H4B 5743   0.247   6.402   9.782  1.1679 -1.0426  3.8867
   45CHL1    C5 5744   0.374   6.437   9.611  1.0403  0.2319  0.2528
   45CHL1    C6 5745   0.274   6.492   9.544  0.7400  0.2530  0.1917
   45CHL1    H6 5746   0.168   6.484   9.572  0.6800 -0.1592 -0.1422
   45CHL1    C7 5747   0.290   6.543   9.405  0.2458 -0.0295 -0.5739
   45CHL1   H7A 5748   0.204   6.504   9.346  1.2602 -3.5174  0.0129
   45CHL1   H7B 5749   0.275   6.653   9.411  1.9908  0.2048 -0.0437
   45CHL1    C8 5750   0.426   6.520   9.333  0.1998 -0.1116  0.3904
   45CHL1    H8 5751   0.443   6.610   9.270  1.3574 -0.7351 -0.2160
   45CHL1   C14 5752   0.425   6.398   9.241 -0.6304  0.2783  0.5833
   45CHL1   H14 5753   0.391   6.313   9.304 -0.8125 -1.0417 -1.1908
   45CHL1   C15 5754   0.320   6.408   9.120 -0.2073 -0.0911 -0.1194
   45CHL1  H15A 5755   0.272   6.312   9.095 -1.6690  0.8093 -0.9332
   45CHL1  H15B 5756   0.246   6.488   9.145 -0.5357  0.5297 -2.8141
   45CHL1   C16 5757   0.401   6.449   8.993 -0.0565  0.2350 -0.8437
   45CHL1  H16A 5758   0.385   6.372   8.914  2.8876  0.4112 -1.7299
   45CHL1  H16B 5759   0.363   6.545   8.951 -1.9968  0.6230  1.5997
   45CHL1   C17 5760   0.548   6.463   9.045  0.2521 -0.5923  1.0400
   45CHL1   H17 5761   0.559   6.564   9.090  1.8328  1.5923 -3.5914
   45CHL1   C13 5762   0.559   6.371   9.166 -0.2356  0.9874 -0.8302
   45CHL1   C18 5763   0.555   6.224   9.127  0.2655  0.2530  0.2700
   45CHL1  H18A 5764   0.472   6.203   9.056  0.8278  0.1196 -0.3612
   45CHL1  H18B 5765   0.655   6.206   9.082 -0.3576 -0.5236 -0.8354
   45CHL1  H18C 5766   0.535   6.158   9.214  1.6153 -0.9628 -0.3172
   45CHL1   C12 5767   0.676   6.390   9.263 -1.6270 -0.2806  0.5672
   45CHL1  H12A 5768   0.698   6.294   9.313  0.9038 -1.0501 -1.8271
   45CHL1  H12B 5769   0.765   6.410   9.201 -1.2831  0.4986  1.2764
   45CHL1   C11 5770   0.677   6.508   9.368 -0.2868 -0.1934 -0.4134
   45CHL1  H11A 5771   0.762   6.482   9.434 -0.9692 -1.8675 -0.1405
   45CHL1  H11B 5772   0.702   6.605   9.320 -0.0461 -0.2757 -0.4568
   45CHL1    C9 5773   0.539   6.525   9.435 -0.8152 -0.1427 -0.5716
   45CHL1    H9 5774   0.535   6.630   9.472 -1.8100 -0.3856  0.0412
   45CHL1   C10 5775   0.516   6.426   9.558  0.2626 -0.1112 -0.6511
   45CHL1   C19 5776   0.554   6.277   9.538 -0.7480  0.0215 -0.1605
   45CHL1  H19A 5777   0.662   6.283   9.515 -0.7952 -0.5380 -0.5740
   45CHL1  H19B 5778   0.531   6.219   9.630 -2.0758 -1.4353 -1.3395
   45CHL1  H19C 5779   0.504   6.228   9.451 -0.6363 -0.0208 -0.1998
   45CHL1    C1 5780   0.612   6.480   9.672 -0.2858  0.0473  0.1638
   45CHL1   H1A 5781   0.714   6.451   9.642 -0.0844 -0.0918  0.9426
   45CHL1   H1B 5782   0.623   6.590   9.672 -3.1314  0.4286  0.1534
   45CHL1    C2 5783   0.582   6.431   9.817 -0.2596 -0.4609  0.8830
   45CHL1   H2A 5784   0.649   6.486   9.887 -0.5228  2.7608 -1.1915
   45CHL1   H2B 5785   0.599   6.321   9.818  1.2724 -0.3200 -1.3970
   45CHL1   C20 5786   0.660   6.456   8.941  0.6480  0.3013  0.8305
   45CHL1   H20 5787   0.751   6.420   8.994  1.8829 -0.3129 -1.5409
   45CHL1   C21 5788   0.692   6.596   8.891  0.1433  0.7410 -0.1911
   45CHL1  H21A 5789   0.786   6.610   8.833  1.0789 -0.4556  0.9616
   45CHL1  H21B 5790   0.684   6.680   8.964 -1.5304  2.2172 -1.9529
   45CHL1  H21C 5791   0.610   6.625   8.821 -1.9772 -1.4916  1.2169
   45CHL1   C22 5792   0.631   6.363   8.819 -0.9317  0.9462  0.1990
   45CHL1  H22A 5793   0.614   6.260   8.859 -0.1267  0.6739 -0.1286
   45CHL1  H22B 5794   0.536   6.389   8.767 -0.5668 -1.4549 -1.8702
   45CHL1   C23 5795   0.737   6.351   8.709  0.6550 -0.3312 -1.2487
   45CHL1  H23A 5796   0.727   6.445   8.650  1.3804  0.4816 -0.1204
   45CHL1  H23B 5797   0.837   6.352   8.756  0.1871  0.4760 -0.2100
   45CHL1   C24 5798   0.705   6.233   8.625 -0.0387  0.5887  0.8598
   45CHL1  H24A 5799   0.659   6.139   8.663  0.8411 -0.2193 -0.0174
   45CHL1  H24B 5800   0.615   6.270   8.572  1.1802  0.8075 -1.1541
   45CHL1   C25 5801   0.816   6.199   8.531 -0.0109  0.1265  0.3694
   45CHL1   H25 5802   0.908   6.191   8.592 -0.3179 -1.7302  0.6396
   45CHL1   C26 5803   0.798   6.052   8.479  0.4385  0.0064  0.4528
   45CHL1  H26A 5804   0.851   6.057   8.382 -1.7186 -0.9919 -0.8523
   45CHL1  H26B 5805   0.845   5.976   8.545 -1.4576 -0.7773  0.9840
   45CHL1  H26C 5806   0.691   6.023   8.465  0.0851  0.8136  1.3833
   45CHL1   C27 5807   0.835   6.304   8.418  0.1405  0.1904 -0.1916
   45CHL1  H27A 5808   0.903   6.274   8.336 -0.2772  2.3887 -1.4172
   45CHL1  H27B 5809   0.734   6.321   8.376  0.2132 -0.5848 -0.6984
   45CHL1  H27C 5810   0.870   6.396   8.471 -0.6040  0.0797  0.5301
   46CHL1    C3 5811   0.135   2.721   9.886  0.1950 -0.5152 -0.4518
   46CHL1    H3 5812   0.031   2.682   9.884 -0.7025  1.7943 -1.9153
   46CHL1    O3 5813   0.205   2.698  10.007  0.0547  0.5194  0.0549
   46CHL1   H3' 5814   0.263   2.774  10.012  2.2925 -1.1719  2.7570
   46CHL1    C4 5815   0.201   2.638   9.773 -0.4814 -0.5319  0.2389
   46CHL1   H4A 5816   0.311   2.653   9.777 -0.3584 -1.5028  1.1527
   46CHL1   H4B 5817   0.184   2.531   9.799 -0.4606 -0.6559 -0.2526
   46CHL1    C5 5818   0.149   2.666   9.639  0.5557  0.0098 -0.2514
   46CHL1    C6 5819   0.094   2.569   9.565 -0.5213  0.9725  0.5144
   46CHL1    H6 5820   0.074   2.465   9.594 -0.3343  0.2638 -1.6590
   46CHL1    C7 5821   0.048   2.591   9.423  0.2008 -0.4882 -0.3239
   46CHL1   H7A 5822   0.078   2.497   9.373 -0.5867 -1.4512  0.9502
   46CHL1   H7B 5823  -0.059   2.618   9.415  0.6605  2.3473  1.4315
   46CHL1    C8 5824   0.108   2.714   9.356 -0.2779  0.3622  0.5359
   46CHL1    H8 5825   0.217   2.697   9.340 -0.1055  2.7994 -1.6439
   46CHL1   C14 5826   0.040   2.748   9.222 -0.1221  0.6449  0.3470
   46CHL1   H14 5827  -0.066   2.774   9.243 -0.6301 -1.7750  1.1018
   46CHL1   C15 5828   0.006   2.640   9.113  0.6278  0.3028 -1.0516
   46CHL1  H15A 5829   0.096   2.580   9.085  1.7885  0.9210  1.1466
   46CHL1  H15B 5830  -0.071   2.576   9.162  0.2951  1.7244  0.3370
   46CHL1   C16 5831  -0.041   2.721   8.996  0.3272 -0.4966  0.0783
   46CHL1  H16A 5832  -0.001   2.686   8.898 -0.9426  1.9665 -1.4050
   46CHL1  H16B 5833  -0.151   2.713   8.988  0.3319 -0.2670 -0.2268
   46CHL1   C17 5834   0.001   2.873   9.027  0.3079 -0.1390 -0.6199
   46CHL1   H17 5835  -0.090   2.923   9.067  0.1602 -1.0916  0.2749
   46CHL1   C13 5836   0.097   2.872   9.151  0.5542 -0.7191  0.3767
   46CHL1   C18 5837   0.241   2.857   9.109 -0.7055 -0.6499  0.0387
   46CHL1  H18A 5838   0.277   2.949   9.059  2.8771 -0.8233  1.9534
   46CHL1  H18B 5839   0.309   2.855   9.197  1.1599 -0.2926 -1.3268
   46CHL1  H18C 5840   0.265   2.765   9.051 -0.7671 -0.9492  0.4848
   46CHL1   C12 5841   0.081   3.001   9.244  0.1474  0.2128  0.2423
   46CHL1  H12A 5842   0.128   3.092   9.202  1.7829 -1.7046 -2.4332
   46CHL1  H12B 5843  -0.028   3.024   9.244 -0.3437 -1.8763 -0.4285
   46CHL1   C11 5844   0.133   2.974   9.385 -0.5320 -0.3575  0.1642
   46CHL1  H11A 5845   0.243   2.980   9.368 -0.1842 -0.2045  2.2175
   46CHL1  H11B 5846   0.106   3.051   9.460 -0.4830  0.4497 -0.6351
   46CHL1    C9 5847   0.090   2.833   9.447 -0.3870  0.0850 -0.8935
   46CHL1    H9 5848  -0.019   2.832   9.468  0.1448 -0.8630  2.4490
   46CHL1   C10 5849   0.156   2.809   9.592 -0.5642  1.0092 -0.1805
   46CHL1   C19 5850   0.304   2.848   9.583 -0.2032  0.5431  0.1006
   46CHL1  H19A 5851   0.363   2.789   9.509 -0.4810  1.4281 -0.8457
   46CHL1  H19B 5852   0.316   2.956   9.561  0.4243  0.3089 -0.8031
   46CHL1  H19C 5853   0.357   2.847   9.680  0.0030 -0.8667  0.0033
   46CHL1    C1 5854   0.095   2.896   9.704 -0.1750 -0.2846  0.3701
   46CHL1   H1A 5855   0.119   3.001   9.677 -2.2527  0.3147  0.6710
   46CHL1   H1B 5856  -0.014   2.875   9.700 -0.0709 -0.6472 -1.0172
   46CHL1    C2 5857   0.145   2.869   9.852 -0.0089  0.2305  0.6232
   46CHL1   H2A 5858   0.079   2.918   9.927 -0.4926 -2.5169  2.1286
   46CHL1   H2B 5859   0.249   2.907   9.842  0.4658 -0.9325  0.9287
   46CHL1   C20 5860   0.042   2.960   8.906 -0.2834 -0.1039  0.0489
   46CHL1   H20 5861   0.103   3.041   8.953  1.7074 -0.8869 -1.0821
   46CHL1   C21 5862  -0.087   3.025   8.848  0.4857 -0.5639  0.1929
   46CHL1  H21A 5863  -0.155   2.942   8.819  1.4651 -0.1669 -3.7448
   46CHL1  H21B 5864  -0.075   3.086   8.756  1.9365  0.5781  1.0768
   46CHL1  H21C 5865  -0.125   3.083   8.935  0.2472 -2.1675  1.1896
   46CHL1   C22 5866   0.131   2.891   8.799 -0.4598  0.4046 -1.0749
   46CHL1  H22A 5867   0.198   2.820   8.852 -0.9799 -0.7520 -1.9520
   46CHL1  H22B 5868   0.065   2.840   8.727 -0.2737  1.2280 -1.8459
   46CHL1   C23 5869   0.230   2.972   8.713  0.5088  0.4432 -0.6349
   46CHL1  H23A 5870   0.166   3.046   8.660  0.6349 -0.7327 -2.5264
   46CHL1  H23B 5871   0.305   3.016   8.782 -0.4362  1.8170 -0.4266
   46CHL1   C24 5872   0.303   2.876   8.618  0.3227  0.1280  0.1485
   46CHL1  H24A 5873   0.368   2.797   8.662  1.3974  0.6189 -0.5280
   46CHL1  H24B 5874   0.227   2.842   8.545  1.6146 -0.4611 -0.9505
   46CHL1   C25 5875   0.412   2.949   8.530  0.4054  0.2532 -0.5998
   46CHL1   H25 5876   0.493   2.992   8.593 -1.1606  1.5935  0.5684
   46CHL1   C26 5877   0.472   2.853   8.429 -0.2279  0.2423 -0.2617
   46CHL1  H26A 5878   0.400   2.817   8.353  0.3440  2.1309 -1.7790
   46CHL1  H26B 5879   0.561   2.895   8.377  1.3110 -2.3142  0.1241
   46CHL1  H26C 5880   0.507   2.757   8.472  0.5802  0.3979 -0.5556
   46CHL1   C27 5881   0.343   3.067   8.453  0.2070 -0.4186 -0.0977
   46CHL1  H27A 5882   0.404   3.107   8.368 -1.5728  3.2526  0.1746
   46CHL1  H27B 5883   0.243   3.033   8.421  0.5822  0.4427 -2.3961
   46CHL1  H27C 5884   0.327   3.149   8.526 -2.4920  0.7997 -1.9160
   47CHL1    C3 5885   2.450   4.436   9.868  0.0432  0.0163  0.0803
   47CHL1    H3 5886   2.527   4.516   9.873  1.9437 -1.6161 -1.4611
   47CHL1    O3 5887   2.394   4.417   9.997 -0.0065  0.4783  0.1800
   47CHL1   H3' 5888   2.467   4.391  10.054 -0.2308 -1.3424 -0.3054
   47CHL1    C4 5889   2.327   4.470   9.778  0.0357  0.0021  0.4710
   47CHL1   H4A 5890   2.244   4.397   9.787 -0.7838  0.9373  0.7055
   47CHL1   H4B 5891   2.289   4.565   9.822  2.1297  1.3919 -0.5339
   47CHL1    C5 5892   2.358   4.482   9.631  0.6900 -0.6482  0.3795
   47CHL1    C6 5893   2.322   4.585   9.557 -0.2639  0.1117  0.1957
   47CHL1    H6 5894   2.260   4.666   9.596 -1.1515 -0.4991  0.0790
   47CHL1    C7 5895   2.354   4.595   9.411 -0.4616 -0.5996  0.4166
   47CHL1   H7A 5896   2.270   4.638   9.353  1.5035  0.9791 -1.3867
   47CHL1   H7B 5897   2.443   4.661   9.412 -0.3631 -0.7353  0.7366
   47CHL1    C8 5898   2.403   4.461   9.348  0.2939  0.4745  0.8155
   47CHL1    H8 5899   2.314   4.398   9.328  1.6439 -1.2902  0.0870
   47CHL1   C14 5900   2.463   4.488   9.210 -0.1739  0.0447  0.0992
   47CHL1   H14 5901   2.553   4.550   9.229  1.0936 -2.1168  1.6561
   47CHL1   C15 5902   2.380   4.567   9.102  0.3217  1.1442  1.0218
   47CHL1  H15A 5903   2.275   4.535   9.120 -0.8887  4.0709 -0.2109
   47CHL1  H15B 5904   2.395   4.674   9.129  0.1084  1.0246  1.6360
   47CHL1   C16 5905   2.440   4.523   8.968  0.3415  1.0984  0.2981
   47CHL1  H16A 5906   2.355   4.488   8.907 -1.3508 -0.2874  3.2293
   47CHL1  H16B 5907   2.490   4.613   8.925 -0.0131  0.0542 -2.4887
   47CHL1   C17 5908   2.548   4.414   9.000 -0.3958 -0.8496 -0.3556
   47CHL1   H17 5909   2.645   4.467   9.012  0.1739 -1.6658 -1.1905
   47CHL1   C13 5910   2.508   4.363   9.137 -0.0180  0.3201  0.3292
   47CHL1   C18 5911   2.386   4.263   9.117 -0.4320 -0.1188 -0.0650
   47CHL1  H18A 5912   2.298   4.318   9.079  0.6408  2.4077  0.8692
   47CHL1  H18B 5913   2.415   4.185   9.043 -2.9553 -1.2555  0.0606
   47CHL1  H18C 5914   2.347   4.209   9.206 -1.2077 -2.1824 -1.5918
   47CHL1   C12 5915   2.618   4.289   9.219 -0.3232 -0.3281 -0.1548
   47CHL1  H12A 5916   2.635   4.191   9.171 -1.8423 -0.5659 -0.2696
   47CHL1  H12B 5917   2.708   4.353   9.210 -0.7833  0.0480 -3.4323
   47CHL1   C11 5918   2.563   4.261   9.360  0.0127  0.1826 -1.2139
   47CHL1  H11A 5919   2.493   4.176   9.360 -0.6132  0.6550  0.7140
   47CHL1  H11B 5920   2.660   4.230   9.404  0.0559  0.0740 -1.3878
   47CHL1    C9 5921   2.497   4.388   9.436 -0.1461  0.0674 -0.5674
   47CHL1    H9 5922   2.585   4.454   9.453  0.4973 -1.2249  1.6403
   47CHL1   C10 5923   2.438   4.363   9.585  0.4611 -0.3465  0.0187
   47CHL1   C19 5924   2.349   4.244   9.586  0.5872  0.4562  0.5703
   47CHL1  H19A 5925   2.294   4.219   9.678  1.8245 -0.6382  1.0439
   47CHL1  H19B 5926   2.287   4.246   9.494  1.9468  2.7271 -0.3869
   47CHL1  H19C 5927   2.416   4.156   9.575 -1.4992 -1.0046 -1.0822
   47CHL1    C1 5928   2.561   4.329   9.674 -0.1710 -0.2016 -0.4897
   47CHL1   H1A 5929   2.624   4.244   9.640 -0.9625 -0.9704 -0.0733
   47CHL1   H1B 5930   2.625   4.418   9.659  0.8227 -0.8325 -0.1327
   47CHL1    C2 5931   2.527   4.316   9.824  0.4484 -0.2895  0.0403
   47CHL1   H2A 5932   2.620   4.302   9.884 -0.8504 -1.4900  1.8694
   47CHL1   H2B 5933   2.468   4.224   9.845  1.5558 -1.2070 -0.7238
   47CHL1   C20 5934   2.570   4.310   8.881 -0.5709 -0.4480 -0.4451
   47CHL1   H20 5935   2.476   4.252   8.868  0.0841 -1.6473  0.1169
   47CHL1   C21 5936   2.681   4.217   8.916  0.2121 -0.2812 -0.0655
   47CHL1  H21A 5937   2.709   4.162   8.824 -0.0861  0.0211 -0.3380
   47CHL1  H21B 5938   2.652   4.135   8.986  2.9363 -0.8084  0.5686
   47CHL1  H21C 5939   2.774   4.273   8.939 -0.5884  0.4370  1.5446
   47CHL1   C22 5940   2.600   4.388   8.749  0.5441  0.8085  0.2226
   47CHL1  H22A 5941   2.533   4.477   8.742 -0.3614  0.0586 -1.0444
   47CHL1  H22B 5942   2.700   4.436   8.755 -0.2602  2.6017 -0.0757
   47CHL1   C23 5943   2.584   4.316   8.612 -0.7247 -0.0933  0.0370
   47CHL1  H23A 5944   2.635   4.218   8.616 -0.2422  0.0874 -1.3204
   47CHL1  H23B 5945   2.480   4.281   8.597 -0.3049 -0.1791 -3.3526
   47CHL1   C24 5946   2.640   4.402   8.492  0.1724  0.1152 -0.1206
   47CHL1  H24A 5947   2.574   4.491   8.490 -0.3099 -0.1972 -3.2954
   47CHL1  H24B 5948   2.746   4.426   8.518  0.6052 -0.6011 -1.1337
   47CHL1   C25 5949   2.627   4.338   8.359 -0.0002  0.1896  1.0345
   47CHL1   H25 5950   2.665   4.234   8.363 -0.8031 -0.2516 -1.4712
   47CHL1   C26 5951   2.478   4.341   8.311 -0.1406  0.1733  0.7377
   47CHL1  H26A 5952   2.427   4.439   8.323 -1.0600 -0.2599  0.3939
   47CHL1  H26B 5953   2.417   4.267   8.366 -0.4983  0.2817  0.4920
   47CHL1  H26C 5954   2.474   4.318   8.202 -0.0980 -2.6959  1.2712
   47CHL1   C27 5955   2.704   4.427   8.258 -0.8551 -0.4200  0.0304
   47CHL1  H27A 5956   2.814   4.436   8.275 -0.2708 -1.5605 -2.6239
   47CHL1  H27B 5957   2.689   4.384   8.156 -0.3475  0.4828 -0.4466
   47CHL1  H27C 5958   2.650   4.524   8.266  0.2377  0.1131  1.2878
   48CHL1    C3 5959   0.010   0.050  10.305 -0.9952 -0.0772  0.8411
   48CHL1    H3 5960   0.021  -0.054  10.267  0.9718  0.0194  1.0666
   48CHL1    O3 5961   0.008   0.031  10.447 -0.7902 -0.6474 -0.0570
   48CHL1   H3' 5962   0.026   0.119  10.481  1.5536 -0.9861 -0.2663
   48CHL1    C4 5963   0.130   0.121  10.255 -0.2783  0.0958  0.0939
   48CHL1   H4A 5964   0.142   0.219  10.305 -1.6498 -0.4323  1.5298
   48CHL1   H4B 5965   0.223   0.069  10.288  1.1729 -0.6345 -4.4479
   48CHL1    C5 5966   0.140   0.137  10.110  0.9632  0.2784  0.3601
   48CHL1    C6 5967   0.244   0.085  10.042 -0.5520 -0.3975 -0.2381
   48CHL1    H6 5968   0.320   0.018  10.085  1.3654  0.1556 -2.5526
   48CHL1    C7 5969   0.269   0.110   9.895  0.2225 -0.2708  0.6623
   48CHL1   H7A 5970   0.377   0.126   9.870  0.0686 -0.8215 -0.4440
   48CHL1   H7B 5971   0.244   0.014   9.845 -2.4412  0.3696  0.6557
   48CHL1    C8 5972   0.178   0.219   9.838  0.1002  0.1468  0.2063
   48CHL1    H8 5973   0.224   0.316   9.867 -0.3151  0.9437 -1.6182
   48CHL1   C14 5974   0.186   0.210   9.688  1.4279 -0.0527 -0.2711
   48CHL1   H14 5975   0.146   0.115   9.647  0.9830  1.3010 -3.2402
   48CHL1   C15 5976   0.326   0.219   9.626  0.8434  0.3771 -0.4852
   48CHL1  H15A 5977   0.378   0.299   9.683  0.0297  1.3771 -1.1102
   48CHL1  H15B 5978   0.381   0.123   9.641  0.4831  0.1896 -0.3315
   48CHL1   C16 5979   0.303   0.269   9.485 -0.2509  0.4077  0.6950
   48CHL1  H16A 5980   0.333   0.376   9.477 -2.4320  0.9115 -2.9455
   48CHL1  H16B 5981   0.332   0.201   9.402 -1.2453  0.5579  0.2133
   48CHL1   C17 5982   0.153   0.282   9.466 -0.1753 -0.4313 -0.1937
   48CHL1   H17 5983   0.111   0.182   9.442 -2.9650  1.0183 -2.0192
   48CHL1   C13 5984   0.092   0.306   9.611  0.1575  0.1859 -0.0173
   48CHL1   C18 5985   0.125   0.457   9.653 -0.3435 -0.1152  0.2123
   48CHL1  H18A 5986   0.226   0.484   9.616 -0.8694  0.7461 -0.6413
   48CHL1  H18B 5987   0.050   0.521   9.601 -1.8791 -2.7785 -1.0301
   48CHL1  H18C 5988   0.116   0.485   9.761  0.7649  2.0535 -0.1885
   48CHL1   C12 5989  -0.056   0.261   9.648 -0.3297 -0.0171  0.1794
   48CHL1  H12A 5990  -0.140   0.313   9.597 -0.0925 -0.6746 -0.9234
   48CHL1  H12B 5991  -0.051   0.154   9.621 -1.9798  0.3015 -1.5980
   48CHL1   C11 5992  -0.074   0.272   9.803  0.2817  0.9260  0.4928
   48CHL1  H11A 5993  -0.070   0.378   9.836  3.5901  1.6575 -1.7768
   48CHL1  H11B 5994  -0.175   0.235   9.831  1.1056 -2.0821 -0.1442
   48CHL1    C9 5995   0.031   0.195   9.884 -0.8442 -0.1932  0.6953
   48CHL1    H9 5996   0.013   0.086   9.869 -2.7954  0.2878 -0.7780
   48CHL1   C10 5997   0.019   0.210  10.036 -0.0989 -0.0173 -0.4724
   48CHL1   C19 5998   0.035   0.357  10.084  0.2500 -0.1756 -0.0233
   48CHL1  H19A 5999  -0.047   0.423  10.048 -0.3239 -0.1951  1.2076
   48CHL1  H19B 6000   0.023   0.370  10.194 -0.5747  1.2593 -0.2754
   48CHL1  H19C 6001   0.138   0.393  10.060 -0.6317  2.0328 -0.6943
   48CHL1    C1 6002  -0.108   0.139  10.090 -0.2656 -0.5844  0.6735
   48CHL1   H1A 6003  -0.200   0.190  10.055 -0.9880 -2.8630 -0.9688
   48CHL1   H1B 6004  -0.102   0.049  10.026  0.0526  0.0842 -0.2483
   48CHL1    C2 6005  -0.118   0.116  10.246  0.7372 -0.5199  0.2132
   48CHL1   H2A 6006  -0.201   0.042  10.256  1.4018 -1.7855 -2.7379
   48CHL1   H2B 6007  -0.133   0.210  10.303  1.8115  0.3000 -0.8157
   48CHL1   C20 6008   0.102   0.381   9.352 -0.3862 -0.0322  0.0323
   48CHL1   H20 6009   0.099   0.484   9.393  0.8273  0.0616 -0.0989
   48CHL1   C21 6010  -0.040   0.334   9.314 -0.4911  0.0593 -0.2834
   48CHL1  H21A 6011  -0.056   0.226   9.294 -2.2627  0.2338  0.0449
   48CHL1  H21B 6012  -0.076   0.374   9.216 -0.0329 -0.5883 -0.7292
   48CHL1  H21C 6013  -0.116   0.373   9.385 -0.2358  1.9202 -0.9668
   48CHL1   C22 6014   0.198   0.386   9.232  0.5274 -0.1209 -0.2568
   48CHL1  H22A 6015   0.297   0.422   9.268 -0.2329 -0.3992  2.2465
   48CHL1  H22B 6016   0.204   0.288   9.179 -1.7600 -0.3193 -0.2358
   48CHL1   C23 6017   0.157   0.477   9.117  0.4385  0.3610 -0.2851
   48CHL1  H23A 6018   0.069   0.445   9.057  0.7355 -0.1306 -0.4628
   48CHL1  H23B 6019   0.136   0.576   9.162  1.1176  0.2327  0.3245
   48CHL1   C24 6020   0.281   0.510   9.027 -0.1285  0.2488 -0.0424
   48CHL1  H24A 6021   0.355   0.578   9.075  0.1347  0.5094 -0.7954
   48CHL1  H24B 6022   0.341   0.420   9.002  0.9341  1.5031 -2.3183
   48CHL1   C25 6023   0.243   0.567   8.883  0.8358  0.0062  0.2168
   48CHL1   H25 6024   0.185   0.661   8.892  0.3173 -0.5126  3.4831
   48CHL1   C26 6025   0.374   0.597   8.807  0.2868  0.2402 -0.4767
   48CHL1  H26A 6026   0.445   0.512   8.814 -0.9868 -0.8017  0.2827
   48CHL1  H26B 6027   0.363   0.620   8.699 -3.4246  1.8023  0.0590
   48CHL1  H26C 6028   0.431   0.681   8.853 -0.7022  1.2615 -1.0434
   48CHL1   C27 6029   0.170   0.471   8.787 -0.4327 -0.5118  0.1936
   48CHL1  H27A 6030   0.128   0.522   8.698  0.4095 -0.6904 -0.3176
   48CHL1  H27B 6031   0.235   0.383   8.766  0.0544 -0.6475  2.0094
   48CHL1  H27C 6032   0.077   0.421   8.822 -0.7091  0.1773  0.4514
   49CHL1    C3 6033   1.535   1.953  10.093 -0.0477 -1.0379  0.1584
   49CHL1    H3 6034   1.573   1.856  10.056 -0.2511 -0.8003 -0.6889
   49CHL1    O3 6035   1.581   1.964  10.227  0.0623  0.2497  0.4910
   49CHL1   H3' 6036   1.552   2.050  10.260 -2.0070 -0.8666  1.8197
   49CHL1    C4 6037   1.598   2.061  10.006  0.3821  0.3049 -0.4163
   49CHL1   H4A 6038   1.582   2.166  10.040  0.7118  0.6912 -1.4278
   49CHL1   H4B 6039   1.709   2.052  10.008  0.2881 -1.2219  1.9575
   49CHL1    C5 6040   1.546   2.044   9.864 -0.4885  0.0242  0.4429
   49CHL1    C6 6041   1.624   2.023   9.750  0.3493 -0.0808 -0.0349
   49CHL1    H6 6042   1.733   2.028   9.766  1.1194 -2.1927 -3.5097
   49CHL1    C7 6043   1.577   2.006   9.611  0.6241 -0.1449 -0.6469
   49CHL1   H7A 6044   1.637   2.072   9.546  0.9179 -0.0384 -0.2721
   49CHL1   H7B 6045   1.581   1.900   9.576 -2.8133  0.1295 -2.3204
   49CHL1    C8 6046   1.425   2.045   9.608  0.1773  0.2573  0.0804
   49CHL1    H8 6047   1.413   2.156   9.602 -0.4897  0.1238 -1.2589
   49CHL1   C14 6048   1.371   1.992   9.471  0.7141 -0.4771 -0.1110
   49CHL1   H14 6049   1.369   1.881   9.480  2.0367 -0.4739  0.5004
   49CHL1   C15 6050   1.453   2.025   9.352  0.1486  0.3420  0.6373
   49CHL1  H15A 6051   1.495   2.128   9.354  3.4583 -0.8365 -1.1974
   49CHL1  H15B 6052   1.541   1.958   9.361 -0.0586 -0.3878 -2.0302
   49CHL1   C16 6053   1.367   1.997   9.232  0.1103  0.6666 -0.1096
   49CHL1  H16A 6054   1.380   2.089   9.170  0.2572  2.0142  1.8375
   49CHL1  H16B 6055   1.411   1.909   9.180  0.4644 -0.1110  1.4636
   49CHL1   C17 6056   1.221   1.980   9.293  0.0358 -0.6559  0.0570
   49CHL1   H17 6057   1.194   1.872   9.302  0.3211 -0.9542 -2.0546
   49CHL1   C13 6058   1.224   2.031   9.440 -0.5896  0.0126  0.3961
   49CHL1   C18 6059   1.209   2.187   9.441 -0.2404 -0.4318  0.8771
   49CHL1  H18A 6060   1.102   2.210   9.421 -0.1932  0.6235  1.7128
   49CHL1  H18B 6061   1.239   2.233   9.537  0.2488 -1.5296  1.2698
   49CHL1  H18C 6062   1.270   2.229   9.359  1.6833 -1.0480  1.9222
   49CHL1   C12 6063   1.136   1.966   9.549  0.9211  0.1191 -0.0291
   49CHL1  H12A 6064   1.029   1.987   9.532  1.0433  0.9449  0.1624
   49CHL1  H12B 6065   1.149   1.856   9.546  0.1832  0.0126  0.4353
   49CHL1   C11 6066   1.184   2.016   9.692 -0.1243 -0.1379 -0.0537
   49CHL1  H11A 6067   1.143   2.119   9.704  0.1855 -0.2185  2.2948
   49CHL1  H11B 6068   1.121   1.959   9.764 -1.1564 -2.1475 -2.4406
   49CHL1    C9 6069   1.340   1.994   9.713  0.5350  0.2634 -0.2100
   49CHL1    H9 6070   1.349   1.883   9.713  2.0361  0.3656 -1.2612
   49CHL1   C10 6071   1.390   2.041   9.855  0.7385 -0.0092  0.3284
   49CHL1   C19 6072   1.332   2.177   9.884 -0.2840  0.3876  0.6061
   49CHL1  H19A 6073   1.225   2.165   9.912 -1.0040  1.0006 -1.6166
   49CHL1  H19B 6074   1.384   2.227   9.968  1.2046 -0.5421  0.2762
   49CHL1  H19C 6075   1.331   2.231   9.787 -1.1901 -1.6135 -0.5751
   49CHL1    C1 6076   1.336   1.939   9.963 -0.0155  0.2121 -0.2803
   49CHL1   H1A 6077   1.226   1.925   9.968  0.2047 -1.6656  0.0662
   49CHL1   H1B 6078   1.370   1.839   9.929  1.6216  0.9005 -0.7341
   49CHL1    C2 6079   1.386   1.966  10.105  0.0304 -0.2141  0.0946
   49CHL1   H2A 6080   1.344   1.892  10.177 -1.6090  0.6306  0.0640
   49CHL1   H2B 6081   1.353   2.067  10.137 -1.8616 -0.4757 -0.8477
   49CHL1   C20 6082   1.124   2.050   9.199  0.3483 -0.0141  0.1260
   49CHL1   H20 6083   1.132   2.161   9.202 -0.4716  0.1473 -2.1416
   49CHL1   C21 6084   0.985   2.007   9.252  0.5083 -0.3334  0.4167
   49CHL1  H21A 6085   0.908   2.009   9.172  0.9950  0.5103 -0.0477
   49CHL1  H21B 6086   0.952   2.076   9.333  0.9706 -0.8234  1.0365
   49CHL1  H21C 6087   0.990   1.902   9.286 -0.3647 -1.5634 -2.8534
   49CHL1   C22 6088   1.130   2.010   9.048 -0.3651  0.4074 -0.2623
   49CHL1  H22A 6089   1.042   2.055   8.997 -0.2863 -0.4269 -1.1622
   49CHL1  H22B 6090   1.219   2.068   9.015  0.0602  1.1270  1.9963
   49CHL1   C23 6091   1.138   1.855   9.013 -0.4580  0.3938 -0.1103
   49CHL1  H23A 6092   1.227   1.809   9.060 -0.0728  0.4629 -0.7686
   49CHL1  H23B 6093   1.055   1.808   9.071 -0.0701 -1.1137 -0.7130
   49CHL1   C24 6094   1.126   1.831   8.863  0.0079  0.5615 -0.0220
   49CHL1  H24A 6095   1.018   1.843   8.841 -0.3117 -0.8200  0.7073
   49CHL1  H24B 6096   1.170   1.914   8.804 -0.2839  1.0639  0.4635
   49CHL1   C25 6097   1.162   1.689   8.816 -0.1394  1.0236  0.4972
   49CHL1   H25 6098   1.268   1.663   8.836  0.2397 -0.2001 -2.6323
   49CHL1   C26 6099   1.070   1.588   8.899  0.6203 -0.3943  0.0622
   49CHL1  H26A 6100   0.973   1.586   8.844  0.5184  3.0164 -0.0915
   49CHL1  H26B 6101   1.109   1.484   8.901 -0.5745 -0.9678 -2.5139
   49CHL1  H26C 6102   1.057   1.626   9.003  6.0809  0.3661  0.7893
   49CHL1   C27 6103   1.123   1.670   8.661 -0.2325 -0.3236  0.6596
   49CHL1  H27A 6104   1.167   1.756   8.606 -1.3207 -0.2002 -0.0473
   49CHL1  H27B 6105   1.162   1.574   8.621 -0.2049  0.4838 -1.4069
   49CHL1  H27C 6106   1.012   1.675   8.659 -0.1943  1.7378 -2.0723
   50CHL1    C3 6107   4.717   4.247  10.203 -0.0842 -0.3387  0.0527
   50CHL1    H3 6108   4.685   4.353  10.214  1.0868 -0.0687  1.0634
   50CHL1    O3 6109   4.727   4.190  10.332 -0.3878 -0.1571 -0.1536
   50CHL1   H3' 6110   4.680   4.107  10.319 -0.8607  0.0205  0.3905
   50CHL1    C4 6111   4.604   4.179  10.129 -0.4495 -0.2443 -0.0544
   50CHL1   H4A 6112   4.605   4.068  10.129 -0.1265 -0.2536 -0.9337
   50CHL1   H4B 6113   4.511   4.198  10.187  0.2710  1.1436  0.6950
   50CHL1    C5 6114   4.584   4.230   9.990  0.7692  0.0495  0.1211
   50CHL1    C6 6115   4.471   4.293   9.948  0.1168 -0.3219 -0.5981
   50CHL1    H6 6116   4.387   4.305  10.018  0.0671 -2.3298 -0.2788
   50CHL1    C7 6117   4.449   4.332   9.800  0.1213  0.6887  0.0428
   50CHL1   H7A 6118   4.353   4.301   9.753 -0.5543  0.2833  1.6457
   50CHL1   H7B 6119   4.476   4.440   9.796  1.5348  0.4183  1.1766
   50CHL1    C8 6120   4.556   4.251   9.710 -0.1572 -1.2453 -0.4286
   50CHL1    H8 6121   4.530   4.143   9.701 -1.1427 -0.9122 -1.9536
   50CHL1   C14 6122   4.548   4.308   9.567  0.4154 -0.4207 -0.2495
   50CHL1   H14 6123   4.564   4.417   9.582  0.8382 -0.8496  3.7215
   50CHL1   C15 6124   4.408   4.295   9.504  0.5271 -0.4608  0.3046
   50CHL1  H15A 6125   4.365   4.194   9.521  1.1874 -0.4995  1.8672
   50CHL1  H15B 6126   4.347   4.379   9.542  1.5210  1.1079 -1.3899
   50CHL1   C16 6127   4.439   4.313   9.349 -0.3976  0.3563 -0.0468
   50CHL1  H16A 6128   4.403   4.218   9.304 -0.7469 -0.0524  1.0483
   50CHL1  H16B 6129   4.395   4.398   9.294 -1.3511  0.2222  0.4863
   50CHL1   C17 6130   4.595   4.306   9.339 -0.1760 -0.9627 -0.2488
   50CHL1   H17 6131   4.627   4.413   9.341  3.2483 -1.8502  1.6528
   50CHL1   C13 6132   4.649   4.251   9.470  0.3775  0.2661  0.1174
   50CHL1   C18 6133   4.645   4.093   9.468  0.0567  0.0086 -0.1061
   50CHL1  H18A 6134   4.551   4.062   9.417  0.8661 -0.9218 -1.0825
   50CHL1  H18B 6135   4.729   4.055   9.407 -0.7192 -2.2001  0.1038
   50CHL1  H18C 6136   4.649   4.046   9.569 -0.5283 -1.8054 -0.8937
   50CHL1   C12 6137   4.788   4.306   9.522  0.0116 -0.8572 -0.7168
   50CHL1  H12A 6138   4.868   4.271   9.453 -1.8460  0.9676 -4.1161
   50CHL1  H12B 6139   4.800   4.416   9.519 -0.7620 -0.7104  0.7794
   50CHL1   C11 6140   4.810   4.251   9.668  0.3408 -0.0057 -0.5509
   50CHL1  H11A 6141   4.825   4.141   9.661  1.4275  0.1061 -0.0822
   50CHL1  H11B 6142   4.912   4.284   9.696  0.0212  1.8545 -1.4135
   50CHL1    C9 6143   4.692   4.277   9.767  0.5951 -0.0704  0.5838
   50CHL1    H9 6144   4.696   4.386   9.788 -2.4577 -0.2277  2.6435
   50CHL1   C10 6145   4.708   4.209   9.906  0.2858  0.4252  0.9547
   50CHL1   C19 6146   4.743   4.060   9.887 -0.1681  0.8902 -0.1053
   50CHL1  H19A 6147   4.673   4.027   9.808 -1.3377 -1.1422  1.6831
   50CHL1  H19B 6148   4.849   4.043   9.860 -0.7585 -1.5992 -1.1153
   50CHL1  H19C 6149   4.713   3.996   9.972 -0.7809  0.8278 -0.3592
   50CHL1    C1 6150   4.826   4.270   9.977 -0.1978 -0.0391 -0.3716
   50CHL1   H1A 6151   4.919   4.239   9.926 -0.5433  0.0454 -1.0763
   50CHL1   H1B 6152   4.821   4.381   9.975 -1.3048 -0.0772 -1.8523
   50CHL1    C2 6153   4.847   4.223  10.129 -0.2808  0.1277  0.0163
   50CHL1   H2A 6154   4.936   4.278  10.168  0.0686 -0.0359 -0.5431
   50CHL1   H2B 6155   4.863   4.114  10.143 -0.9944  0.0724  0.4557
   50CHL1   C20 6156   4.651   4.244   9.201  0.2533 -0.5203  0.1067
   50CHL1   H20 6157   4.599   4.148   9.181 -0.0352 -0.3270 -0.0785
   50CHL1   C21 6158   4.809   4.236   9.197 -0.2269 -0.5856  0.3388
   50CHL1  H21A 6159   4.830   4.202   9.093 -1.7366 -0.8066  0.0746
   50CHL1  H21B 6160   4.850   4.162   9.268  1.6618 -0.5988 -0.6826
   50CHL1  H21C 6161   4.854   4.337   9.212 -0.9052  0.1357 -2.0464
   50CHL1   C22 6162   4.604   4.327   9.080 -0.0688 -0.5326  0.2530
   50CHL1  H22A 6163   4.502   4.368   9.094 -0.1917 -0.9139  0.5148
   50CHL1  H22B 6164   4.670   4.414   9.061 -0.3479 -0.8598 -2.6286
   50CHL1   C23 6165   4.600   4.242   8.953  0.0023  0.1319 -0.1381
   50CHL1  H23A 6166   4.692   4.182   8.935 -0.9184 -0.9882 -1.2583
   50CHL1  H23B 6167   4.516   4.169   8.961  0.7489 -0.6917  0.4062
   50CHL1   C24 6168   4.594   4.336   8.835 -0.1441 -0.2403  0.3167
   50CHL1  H24A 6169   4.515   4.411   8.857  0.8095  0.5008  1.3133
   50CHL1  H24B 6170   4.688   4.393   8.822 -0.6538  0.7109  0.7191
   50CHL1   C25 6171   4.540   4.264   8.705 -0.2971 -0.4593  0.0804
   50CHL1   H25 6172   4.443   4.215   8.728 -1.1516  0.9424 -0.4084
   50CHL1   C26 6173   4.499   4.365   8.594 -0.1979 -0.1574 -0.5778
   50CHL1  H26A 6174   4.459   4.322   8.500  1.4836 -1.0597 -0.8989
   50CHL1  H26B 6175   4.431   4.441   8.640 -0.2288  0.5530 -1.7362
   50CHL1  H26C 6176   4.586   4.427   8.563 -1.5942  1.7387 -0.9119
   50CHL1   C27 6177   4.629   4.154   8.639  0.3896  0.1978 -0.0536
   50CHL1  H27A 6178   4.732   4.195   8.625  0.5517  0.5846  1.9474
   50CHL1  H27B 6179   4.639   4.073   8.714  0.3770  2.1826  2.2137
   50CHL1  H27C 6180   4.586   4.108   8.548 -0.1665  0.2282  0.1917
   51CHL1    C3 6181   4.285   5.394   9.963  0.2767  0.3450 -0.2180
   51CHL1    H3 6182   4.377   5.411   9.904  0.1865  3.8722  0.3783
   51CHL1    O3 6183   4.319   5.359  10.097  0.2574 -0.1853 -0.2507
   51CHL1   H3' 6184   4.303   5.264  10.102 -1.4770  0.1181  0.5264
   51CHL1    C4 6185   4.210   5.529   9.956  0.3107  0.0053 -0.0855
   51CHL1   H4A 6186   4.126   5.521  10.028  0.6746  0.0783  0.3536
   51CHL1   H4B 6187   4.264   5.615  10.000  0.0591  0.2356 -0.2262
   51CHL1    C5 6188   4.161   5.568   9.817 -0.0104 -0.1265  0.2004
   51CHL1    C6 6189   4.203   5.686   9.760  0.0947  0.3711  0.5679
   51CHL1    H6 6190   4.268   5.756   9.816  1.8040  0.2405 -1.1477
   51CHL1    C7 6191   4.178   5.728   9.615  0.1949  0.3112  0.1293
   51CHL1   H7A 6192   4.138   5.832   9.613 -0.4341  0.0643 -0.5155
   51CHL1   H7B 6193   4.268   5.726   9.550 -0.9486 -1.0040 -1.5200
   51CHL1    C8 6194   4.070   5.638   9.554 -0.5845  0.5812  0.5796
   51CHL1    H8 6195   3.966   5.658   9.587 -0.4405 -0.2927  1.5961
   51CHL1   C14 6196   4.084   5.650   9.402 -0.1018 -0.1890  0.3991
   51CHL1   H14 6197   4.184   5.606   9.380  0.3067  0.1583  1.4864
   51CHL1   C15 6198   4.072   5.795   9.342 -0.2840 -0.3721  0.1341
   51CHL1  H15A 6199   3.982   5.844   9.386 -0.2578 -0.0565 -0.1508
   51CHL1  H15B 6200   4.165   5.853   9.359 -0.1313  0.5051 -2.9560
   51CHL1   C16 6201   4.043   5.764   9.191 -0.6476  0.6257  0.3934
   51CHL1  H16A 6202   3.959   5.831   9.165 -0.6477  0.3947 -0.2230
   51CHL1  H16B 6203   4.123   5.800   9.123 -2.9109  2.5407 -1.4028
   51CHL1   C17 6204   4.008   5.618   9.178  0.4798  0.1316 -0.7662
   51CHL1   H17 6205   4.106   5.573   9.152  0.4514 -0.6267  0.3911
   51CHL1   C13 6206   3.977   5.568   9.322 -0.2531  0.2776 -0.4477
   51CHL1   C18 6207   3.832   5.612   9.360  0.8243 -0.9139 -0.0957
   51CHL1  H18A 6208   3.805   5.715   9.326 -1.4082 -0.9537  1.3332
   51CHL1  H18B 6209   3.760   5.546   9.306 -1.0254 -0.5172  1.7421
   51CHL1  H18C 6210   3.805   5.588   9.465 -0.8003  1.5339  0.1301
   51CHL1   C12 6211   4.000   5.422   9.354  0.3531 -0.3650  0.3148
   51CHL1  H12A 6212   3.935   5.340   9.316  0.2048  0.7953 -2.1092
   51CHL1  H12B 6213   4.100   5.397   9.312 -0.5962 -1.6984 -1.2864
   51CHL1   C11 6214   3.994   5.399   9.506  0.2904 -0.2124 -0.2682
   51CHL1  H11A 6215   3.893   5.414   9.549  0.6166  0.2506  0.3515
   51CHL1  H11B 6216   4.024   5.294   9.526  2.3564  0.1293 -1.2758
   51CHL1    C9 6217   4.098   5.486   9.581 -0.1961 -0.2181 -0.1425
   51CHL1    H9 6218   4.197   5.461   9.539  0.4030  0.0487  1.0537
   51CHL1   C10 6219   4.104   5.457   9.729  0.9991 -0.6354 -0.4297
   51CHL1   C19 6220   3.960   5.434   9.783 -0.3212 -0.4970 -0.5230
   51CHL1  H19A 6221   3.923   5.331   9.760  0.7641 -1.3736  1.4472
   51CHL1  H19B 6222   3.968   5.436   9.893  1.4748 -1.4850 -0.5898
   51CHL1  H19C 6223   3.887   5.510   9.747 -0.4314 -0.6989 -0.7307
   51CHL1    C1 6224   4.178   5.323   9.756  0.5141  0.1284  0.1536
   51CHL1   H1A 6225   4.123   5.240   9.707 -1.7253  2.5810 -1.7148
   51CHL1   H1B 6226   4.279   5.319   9.709 -0.4980  0.0490 -2.1244
   51CHL1    C2 6227   4.192   5.287   9.905  0.6478 -0.1303  0.3984
   51CHL1   H2A 6228   4.234   5.185   9.903  2.2268  0.4838 -2.3396
   51CHL1   H2B 6229   4.097   5.286   9.962 -0.6279  0.4005 -1.6116
   51CHL1   C20 6230   3.903   5.597   9.068  0.5019 -0.2792 -1.0267
   51CHL1   H20 6231   3.810   5.645   9.106  0.9133 -0.1086 -0.2346
   51CHL1   C21 6232   3.870   5.443   9.043  0.0084  0.1256 -0.2261
   51CHL1  H21A 6233   3.871   5.382   9.137  0.9103 -1.1874 -1.0504
   51CHL1  H21B 6234   3.939   5.395   8.970  1.3626 -1.3601  1.8916
   51CHL1  H21C 6235   3.767   5.444   9.003 -0.8217  0.0368  1.8023
   51CHL1   C22 6236   3.928   5.679   8.941 -0.3059 -0.4341  0.1389
   51CHL1  H22A 6237   3.933   5.789   8.960  4.1344 -0.6624  1.5011
   51CHL1  H22B 6238   4.030   5.654   8.903 -0.6078  1.0304 -1.7847
   51CHL1   C23 6239   3.832   5.646   8.819  0.3874 -0.6644 -0.5939
   51CHL1  H23A 6240   3.830   5.537   8.796  1.5633 -0.6354 -0.8744
   51CHL1  H23B 6241   3.729   5.680   8.844  1.1407  1.1548  0.2406
   51CHL1   C24 6242   3.875   5.733   8.696  0.4996  0.3109 -0.0353
   51CHL1  H24A 6243   3.906   5.827   8.746 -2.2713  2.7816 -2.5429
   51CHL1  H24B 6244   3.955   5.681   8.639 -0.5084 -0.3987 -0.8476
   51CHL1   C25 6245   3.756   5.763   8.600  1.3467  0.3301 -0.5583
   51CHL1   H25 6246   3.675   5.818   8.652  1.7623 -0.1582  0.6493
   51CHL1   C26 6247   3.798   5.846   8.476  0.1031 -0.6103  0.7178
   51CHL1  H26A 6248   3.845   5.939   8.516  1.2698 -0.6175 -0.5749
   51CHL1  H26B 6249   3.871   5.814   8.399 -0.7666  2.3565 -1.5436
   51CHL1  H26C 6250   3.708   5.883   8.421  1.7516  4.2314  0.7922
   51CHL1   C27 6251   3.695   5.625   8.546 -0.3125 -0.0569  0.0101
   51CHL1  H27A 6252   3.769   5.567   8.487 -1.0875 -1.1306  0.0661
   51CHL1  H27B 6253   3.677   5.555   8.631  5.4268 -1.2353  0.6991
   51CHL1  H27C 6254   3.604   5.648   8.487 -1.4888  0.5044  1.9573
   52CHL1    C3 6255   2.772   5.292  10.025  0.2414 -0.1021  1.0419
   52CHL1    H3 6256   2.821   5.193  10.011 -0.3415 -0.6340  2.5084
   52CHL1    O3 6257   2.760   5.301  10.161  0.1777  0.5535 -0.4642
   52CHL1   H3' 6258   2.685   5.249  10.189  0.0424  0.4897 -0.9416
   52CHL1    C4 6259   2.866   5.412   9.977 -0.6124 -0.3388  0.4407
   52CHL1   H4A 6260   2.811   5.504  10.009  0.2855 -0.2633  1.8576
   52CHL1   H4B 6261   2.960   5.405  10.035 -0.1035  0.2273 -0.3039
   52CHL1    C5 6262   2.878   5.407   9.826 -0.6115 -0.4114  0.2016
   52CHL1    C6 6263   2.999   5.395   9.762 -0.0940  0.4997  0.9329
   52CHL1    H6 6264   3.093   5.393   9.820  0.4991 -1.1190 -0.0274
   52CHL1    C7 6265   3.018   5.379   9.613 -0.8016  0.6884 -0.3174
   52CHL1   H7A 6266   3.103   5.445   9.584 -0.4788  0.9602  1.1550
   52CHL1   H7B 6267   3.041   5.273   9.588  0.5201  0.7219  0.6271
   52CHL1    C8 6268   2.901   5.410   9.526  0.3895  0.3162 -0.3297
   52CHL1    H8 6269   2.897   5.521   9.517 -0.7178  0.2412 -0.9702
   52CHL1   C14 6270   2.914   5.353   9.385  0.1698 -0.2774 -0.0347
   52CHL1   H14 6271   2.915   5.245   9.408  1.6224  0.1670  2.3662
   52CHL1   C15 6272   3.045   5.383   9.306 -0.4616  0.6690  0.4521
   52CHL1  H15A 6273   3.076   5.489   9.311  1.7264  0.0536  1.0204
   52CHL1  H15B 6274   3.128   5.325   9.352  0.7834  2.0644  0.0415
   52CHL1   C16 6275   3.014   5.341   9.162 -0.0434 -0.2382  0.0926
   52CHL1  H16A 6276   3.041   5.418   9.087  0.5247 -0.2540  0.2765
   52CHL1  H16B 6277   3.074   5.250   9.142 -1.6426 -0.9439 -1.8040
   52CHL1   C17 6278   2.861   5.306   9.161  0.0079  0.1154 -0.3762
   52CHL1   H17 6279   2.858   5.198   9.187  0.4767 -0.2152 -1.6021
   52CHL1   C13 6280   2.794   5.377   9.288 -0.5511 -0.1751  0.8198
   52CHL1   C18 6281   2.780   5.530   9.256 -0.1141 -0.2336  0.0249
   52CHL1  H18A 6282   2.750   5.590   9.344  0.0516 -0.8090  0.4812
   52CHL1  H18B 6283   2.868   5.573   9.204 -2.3884  3.8698 -0.8567
   52CHL1  H18C 6284   2.692   5.544   9.189 -0.0462 -0.2414 -0.0666
   52CHL1   C12 6285   2.664   5.318   9.347  0.1792  0.0457  0.1468
   52CHL1  H12A 6286   2.585   5.352   9.277  0.3167 -2.3065 -1.2884
   52CHL1  H12B 6287   2.676   5.208   9.337 -0.1420  0.0059  0.1870
   52CHL1   C11 6288   2.653   5.364   9.494 -0.3115  0.3047 -0.2286
   52CHL1  H11A 6289   2.650   5.474   9.480  1.1101  0.3072 -0.6294
   52CHL1  H11B 6290   2.559   5.328   9.542  0.4806 -1.1369  0.2725
   52CHL1    C9 6291   2.776   5.347   9.592 -0.6216  0.2926 -0.2654
   52CHL1    H9 6292   2.791   5.238   9.596 -1.4183  0.0033 -3.0788
   52CHL1   C10 6293   2.750   5.394   9.741  0.2699  0.1359 -0.5781
   52CHL1   C19 6294   2.677   5.531   9.734  0.8750 -0.1046  0.1032
   52CHL1  H19A 6295   2.580   5.523   9.681 -0.3987 -0.8544  2.3845
   52CHL1  H19B 6296   2.659   5.573   9.835  1.3251 -0.0360  0.1540
   52CHL1  H19C 6297   2.746   5.601   9.682  1.4354 -2.2797 -2.2845
   52CHL1    C1 6298   2.673   5.276   9.799  0.1137  0.1878  0.8180
   52CHL1   H1A 6299   2.577   5.268   9.745 -0.6500 -0.7107  2.2410
   52CHL1   H1B 6300   2.727   5.179   9.803 -0.3503 -0.2808 -2.3049
   52CHL1    C2 6301   2.644   5.288   9.950 -0.0092 -0.0909 -0.0724
   52CHL1   H2A 6302   2.573   5.206   9.976  0.9422 -1.5594 -1.7746
   52CHL1   H2B 6303   2.592   5.383   9.970 -1.1379 -1.1304  2.2501
   52CHL1   C20 6304   2.792   5.325   9.024  0.1899  0.3359  0.5900
   52CHL1   H20 6305   2.783   5.436   9.014 -1.0056  0.1276 -0.9927
   52CHL1   C21 6306   2.650   5.264   9.021 -0.1458 -0.0956 -0.0240
   52CHL1  H21A 6307   2.660   5.157   9.049  0.3591  0.0218  0.2486
   52CHL1  H21B 6308   2.592   5.266   8.926 -1.2434 -2.9785  0.4856
   52CHL1  H21C 6309   2.586   5.319   9.093  1.3394 -0.5071  1.6930
   52CHL1   C22 6310   2.871   5.274   8.901 -0.7023  0.4168  0.4823
   52CHL1  H22A 6311   2.973   5.316   8.915 -0.1737  0.1456 -2.1088
   52CHL1  H22B 6312   2.890   5.165   8.907 -2.8410 -0.0261  0.0413
   52CHL1   C23 6313   2.818   5.314   8.764  0.4989  0.1512 -0.3863
   52CHL1  H23A 6314   2.884   5.281   8.681 -0.3128  0.7478 -1.2862
   52CHL1  H23B 6315   2.723   5.262   8.740 -0.1781  2.3841 -2.8877
   52CHL1   C24 6316   2.809   5.463   8.751  0.5514  0.5867  0.4195
   52CHL1  H24A 6317   2.743   5.509   8.828  0.8561 -0.5796  1.4089
   52CHL1  H24B 6318   2.905   5.512   8.777  0.2030  1.0414  0.8710
   52CHL1   C25 6319   2.759   5.526   8.617  0.2947 -0.3217 -0.1945
   52CHL1   H25 6320   2.820   5.472   8.540 -0.0357 -1.6942  0.4783
   52CHL1   C26 6321   2.611   5.498   8.586  0.2247  0.5370 -0.0331
   52CHL1  H26A 6322   2.584   5.391   8.575 -1.4110  0.9476 -0.3602
   52CHL1  H26B 6323   2.554   5.539   8.672  0.1450  0.8675 -0.2413
   52CHL1  H26C 6324   2.588   5.565   8.501 -2.5678  0.5916  0.6713
   52CHL1   C27 6325   2.783   5.674   8.621 -0.6550  0.2062  0.0730
   52CHL1  H27A 6326   2.889   5.704   8.628 -0.7402  0.4003  0.5916
   52CHL1  H27B 6327   2.757   5.716   8.522 -0.1520  0.5309  0.0760
   52CHL1  H27C 6328   2.733   5.718   8.710  1.1140  0.8380  0.7903
   53CHL1    C3 6329   1.693   5.466   9.750  1.2556  0.3080  0.1283
   53CHL1    H3 6330   1.648   5.365   9.741 -2.7728  1.8643  0.5119
   53CHL1    O3 6331   1.716   5.490   9.892 -0.4368 -0.0313  0.7421
   53CHL1   H3' 6332   1.721   5.586   9.891 -0.7478  0.0578  2.8579
   53CHL1    C4 6333   1.828   5.480   9.680  0.0758 -0.5832  1.1341
   53CHL1   H4A 6334   1.863   5.582   9.708 -0.4032 -0.8857  2.9585
   53CHL1   H4B 6335   1.894   5.402   9.723  0.7287 -0.3483  0.5793
   53CHL1    C5 6336   1.816   5.469   9.528 -0.3334  0.1630  0.4586
   53CHL1    C6 6337   1.886   5.381   9.461  0.5130  0.0465 -0.3655
   53CHL1    H6 6338   1.958   5.313   9.509 -0.7648 -1.6669 -0.7726
   53CHL1    C7 6339   1.871   5.364   9.313  0.6407  0.3780 -0.2509
   53CHL1   H7A 6340   1.972   5.334   9.278  0.9063  0.5274  0.3773
   53CHL1   H7B 6341   1.809   5.277   9.281 -0.4051  1.5784 -1.6165
   53CHL1    C8 6342   1.809   5.481   9.238  0.2057  0.1648  0.0171
   53CHL1    H8 6343   1.883   5.564   9.250  0.8628 -0.3007 -0.6987
   53CHL1   C14 6344   1.780   5.455   9.093  0.2080  0.0017  0.6999
   53CHL1   H14 6345   1.707   5.371   9.099  0.5483 -0.3722 -0.1348
   53CHL1   C15 6346   1.895   5.399   8.998 -0.2571 -0.3610 -0.6472
   53CHL1  H15A 6347   1.979   5.468   9.021 -0.4908 -0.4632  0.5785
   53CHL1  H15B 6348   1.937   5.299   9.020 -0.6304 -0.3098  0.3432
   53CHL1   C16 6349   1.840   5.424   8.860  0.3454  0.1579  0.1252
   53CHL1  H16A 6350   1.911   5.493   8.808 -0.4793  0.3270 -0.8084
   53CHL1  H16B 6351   1.836   5.329   8.802  3.3804  0.3515 -0.5630
   53CHL1   C17 6352   1.706   5.504   8.865 -0.0585 -0.0978 -0.9633
   53CHL1   H17 6353   1.625   5.429   8.873 -0.8868  0.6718 -1.9267
   53CHL1   C13 6354   1.715   5.564   9.011  0.5565  0.3948  0.5751
   53CHL1   C18 6355   1.798   5.694   9.011 -0.3918 -0.2011 -0.0188
   53CHL1  H18A 6356   1.741   5.774   8.959  1.4838 -0.0462 -1.9967
   53CHL1  H18B 6357   1.832   5.731   9.111 -0.7441 -0.0214  0.0342
   53CHL1  H18C 6358   1.893   5.678   8.955 -0.4295 -1.2417  0.1936
   53CHL1   C12 6359   1.581   5.588   9.086  0.8750  0.4392  0.2222
   53CHL1  H12A 6360   1.513   5.667   9.049 -1.0541 -0.7564  1.0421
   53CHL1  H12B 6361   1.511   5.504   9.107  1.8579  0.0801  2.3283
   53CHL1   C11 6362   1.598   5.628   9.233 -0.3094  0.5498  0.2419
   53CHL1  H11A 6363   1.639   5.731   9.222  1.5313 -0.3868 -3.8888
   53CHL1  H11B 6364   1.498   5.636   9.281 -0.4508  0.1080  0.0254
   53CHL1    C9 6365   1.686   5.527   9.316  0.0431  0.6882  0.1940
   53CHL1    H9 6366   1.622   5.438   9.329 -0.6407  1.4300  2.2785
   53CHL1   C10 6367   1.722   5.563   9.461 -0.5403  0.1555  0.0164
   53CHL1   C19 6368   1.787   5.704   9.463 -0.2902  0.2644 -0.5342
   53CHL1  H19A 6369   1.715   5.764   9.404 -0.3833 -0.7919 -1.5351
   53CHL1  H19B 6370   1.796   5.752   9.563  1.3366  2.7039 -1.7500
   53CHL1  H19C 6371   1.875   5.708   9.395 -0.1026 -1.6767 -0.4642
   53CHL1    C1 6372   1.593   5.559   9.540  0.1598 -0.0274 -0.3072
   53CHL1   H1A 6373   1.534   5.649   9.512 -0.7649 -0.1317  1.1892
   53CHL1   H1B 6374   1.533   5.472   9.507  0.1037  0.4307 -1.4678
   53CHL1    C2 6375   1.594   5.573   9.694  0.1340  0.4118 -0.0003
   53CHL1   H2A 6376   1.499   5.546   9.745 -0.0659  1.3153  0.1175
   53CHL1   H2B 6377   1.620   5.679   9.715  0.8744  1.1846 -4.0284
   53CHL1   C20 6378   1.673   5.591   8.737  0.1114 -0.3397  0.9028
   53CHL1   H20 6379   1.749   5.672   8.731  1.4472 -1.6551 -2.4491
   53CHL1   C21 6380   1.529   5.645   8.753 -0.8509 -0.2875 -0.3230
   53CHL1  H21A 6381   1.493   5.700   8.663 -0.9198  0.9139  0.4170
   53CHL1  H21B 6382   1.516   5.718   8.835 -1.4070  0.6367 -1.2046
   53CHL1  H21C 6383   1.459   5.560   8.767 -0.6567 -0.2904  0.6884
   53CHL1   C22 6384   1.671   5.498   8.612 -0.3017  0.7084 -0.2629
   53CHL1  H22A 6385   1.770   5.447   8.606 -1.1786 -1.1698  0.4397
   53CHL1  H22B 6386   1.589   5.425   8.630  0.3604  0.2179  0.9492
   53CHL1   C23 6387   1.645   5.554   8.473 -0.3191 -0.2247 -0.7197
   53CHL1  H23A 6388   1.544   5.600   8.481  0.0561  0.6430 -0.8534
   53CHL1  H23B 6389   1.713   5.640   8.457  1.5088 -1.1743  1.4200
   53CHL1   C24 6390   1.682   5.453   8.356  0.0930  0.0303  0.7328
   53CHL1  H24A 6391   1.788   5.422   8.363  0.1235  0.4216  2.2769
   53CHL1  H24B 6392   1.617   5.363   8.364 -0.0108  0.1586  1.3822
   53CHL1   C25 6393   1.654   5.519   8.218 -0.6501 -0.3563 -1.3865
   53CHL1   H25 6394   1.709   5.615   8.205  0.9113 -1.0037  0.0756
   53CHL1   C26 6395   1.702   5.426   8.108 -0.0449  0.0648 -0.5990
   53CHL1  H26A 6396   1.676   5.321   8.133  0.0464  0.6839  2.4453
   53CHL1  H26B 6397   1.641   5.445   8.016 -1.1562  1.3437  0.3596
   53CHL1  H26C 6398   1.812   5.431   8.093  0.0518  1.8427  0.4745
   53CHL1   C27 6399   1.506   5.553   8.197  0.4844  0.1983 -0.3539
   53CHL1  H27A 6400   1.486   5.568   8.089  2.4422 -0.8437 -0.9193
   53CHL1  H27B 6401   1.434   5.476   8.232  1.1837 -0.5310 -0.4805
   53CHL1  H27C 6402   1.482   5.656   8.230  0.3192  0.0325  0.0660
   54CHL1    C3 6403   2.458   0.192  10.039  0.9769 -0.2551 -1.1125
   54CHL1    H3 6404   2.359   0.204   9.990 -0.1380 -0.8134  0.9106
   54CHL1    O3 6405   2.423   0.118  10.152  0.2609  0.3180 -0.2355
   54CHL1   H3' 6406   2.432   0.023  10.142 -3.9982 -0.0712 -2.5684
   54CHL1    C4 6407   2.574   0.135   9.969 -0.4793  0.1691  0.2171
   54CHL1   H4A 6408   2.657   0.140  10.043 -1.0128  1.6765  0.7504
   54CHL1   H4B 6409   2.567   0.025   9.954  0.5761  0.3190 -1.9309
   54CHL1    C5 6410   2.618   0.211   9.844 -0.5228 -0.0336  0.1595
   54CHL1    C6 6411   2.633   0.157   9.714 -0.0906  0.4693  0.1489
   54CHL1    H6 6412   2.613   0.050   9.700 -1.1551  0.6351  0.3698
   54CHL1    C7 6413   2.682   0.230   9.591 -0.5673  0.4740 -0.3097
   54CHL1   H7A 6414   2.753   0.163   9.539  0.1444 -1.9995  3.4336
   54CHL1   H7B 6415   2.593   0.252   9.528 -0.1905 -1.2289 -1.4767
   54CHL1    C8 6416   2.743   0.364   9.631  0.1128 -0.2146  0.2128
   54CHL1    H8 6417   2.846   0.339   9.666  1.2779  1.1620 -1.9657
   54CHL1   C14 6418   2.755   0.444   9.504  0.6356  0.4421 -0.1689
   54CHL1   H14 6419   2.652   0.466   9.469  1.0551  0.0796 -1.7150
   54CHL1   C15 6420   2.816   0.376   9.376  0.3762 -0.0267 -0.3592
   54CHL1  H15A 6421   2.914   0.345   9.418  0.7550  2.2313  0.5794
   54CHL1  H15B 6422   2.743   0.299   9.342  0.7133  0.7893 -3.1266
   54CHL1   C16 6423   2.830   0.488   9.289 -0.2729 -0.4967  0.3769
   54CHL1  H16A 6424   2.931   0.490   9.245 -0.2238 -0.6207  0.4841
   54CHL1  H16B 6425   2.763   0.500   9.201 -1.6155 -1.0567  1.2849
   54CHL1   C17 6426   2.821   0.622   9.367 -0.5684  0.1652 -0.0284
   54CHL1   H17 6427   2.716   0.656   9.357 -0.6101 -0.0648 -0.3638
   54CHL1   C13 6428   2.822   0.574   9.522 -0.7049 -0.1686  0.1243
   54CHL1   C18 6429   2.967   0.563   9.568 -0.0298  0.2422  0.1400
   54CHL1  H18A 6430   2.973   0.491   9.653 -1.1150  1.7757  1.5802
   54CHL1  H18B 6431   3.029   0.538   9.479 -0.7990 -0.1225 -0.3103
   54CHL1  H18C 6432   2.996   0.666   9.598  0.1743  0.4241 -0.6739
   54CHL1   C12 6433   2.728   0.660   9.611  0.0127  0.3701  0.9032
   54CHL1  H12A 6434   2.779   0.752   9.646  0.0760  0.8815 -0.4760
   54CHL1  H12B 6435   2.634   0.686   9.557  0.7475 -0.5842 -0.9544
   54CHL1   C11 6436   2.698   0.588   9.743  0.6464  0.2267  0.2427
   54CHL1  H11A 6437   2.791   0.606   9.801 -0.0282  3.8536  0.4508
   54CHL1  H11B 6438   2.619   0.638   9.804  0.7132 -1.7167  2.0128
   54CHL1    C9 6439   2.658   0.438   9.736  0.5016 -0.5786  0.2802
   54CHL1    H9 6440   2.552   0.428   9.704  0.2568  2.2084 -0.0239
   54CHL1   C10 6441   2.645   0.365   9.876  0.1673  0.1861 -0.1972
   54CHL1   C19 6442   2.776   0.389   9.952 -0.3289  0.1767 -0.2243
   54CHL1  H19A 6443   2.799   0.489   9.994  0.8982 -0.3817  0.4732
   54CHL1  H19B 6444   2.786   0.316  10.035  1.5565 -0.3380 -0.8461
   54CHL1  H19C 6445   2.861   0.380   9.881 -0.3295  2.4185 -0.5773
   54CHL1    C1 6446   2.527   0.421   9.953  0.2171 -0.1444 -0.2568
   54CHL1   H1A 6447   2.551   0.522   9.991 -1.2089  0.2158 -0.2623
   54CHL1   H1B 6448   2.439   0.413   9.885  0.1979  0.5193 -0.3103
   54CHL1    C2 6449   2.496   0.338  10.078 -0.2654 -0.6639  0.1665
   54CHL1   H2A 6450   2.413   0.380  10.138  0.5257 -0.3770  1.0831
   54CHL1   H2B 6451   2.589   0.336  10.139 -0.8815  0.0307  1.1575
   54CHL1   C20 6452   2.895   0.748   9.322  0.5571 -0.1385  0.1614
   54CHL1   H20 6453   3.004   0.738   9.341  1.1445  3.4769 -0.7004
   54CHL1   C21 6454   2.834   0.872   9.386 -0.1345 -0.0660  0.1617
   54CHL1  H21A 6455   2.726   0.892   9.370 -0.4033 -2.2986 -1.2514
   54CHL1  H21B 6456   2.894   0.958   9.349 -0.8830  0.0601 -0.8075
   54CHL1  H21C 6457   2.859   0.875   9.494 -1.8741 -0.1105  0.5942
   54CHL1   C22 6458   2.897   0.773   9.171  0.6561  0.9991  0.5352
   54CHL1  H22A 6459   2.921   0.685   9.107 -1.0656 -0.0283  1.2346
   54CHL1  H22B 6460   2.800   0.813   9.136  0.5340  0.0070 -0.3034
   54CHL1   C23 6461   3.002   0.870   9.118 -0.1200 -0.2140 -0.6673
   54CHL1  H23A 6462   2.970   0.975   9.136  2.1177  0.4946 -0.5265
   54CHL1  H23B 6463   3.100   0.857   9.170  1.8596  2.7370 -3.2542
   54CHL1   C24 6464   3.018   0.860   8.967  0.8032  0.3332 -0.0104
   54CHL1  H24A 6465   3.079   0.948   8.938  2.5437 -1.0217 -0.6954
   54CHL1  H24B 6466   3.066   0.763   8.939 -0.1874  0.1164 -1.0234
   54CHL1   C25 6467   2.897   0.871   8.870  0.0757 -0.7525  0.1615
   54CHL1   H25 6468   2.839   0.777   8.878 -4.3780  1.6946 -0.2760
   54CHL1   C26 6469   2.805   0.992   8.912 -0.6792  0.6177  0.1308
   54CHL1  H26A 6470   2.865   1.085   8.917 -1.7590  1.3671 -0.5469
   54CHL1  H26B 6471   2.720   0.993   8.841 -0.0839 -0.6331 -0.6340
   54CHL1  H26C 6472   2.752   0.970   9.007 -0.1524  0.9691  0.5160
   54CHL1   C27 6473   2.944   0.877   8.725 -0.0954 -0.5830 -0.3249
   54CHL1  H27A 6474   3.026   0.952   8.717 -1.0390  0.7346  1.5863
   54CHL1  H27B 6475   2.988   0.778   8.699  1.6876  0.4693 -1.5643
   54CHL1  H27C 6476   2.858   0.891   8.655  0.1626  3.1565 -0.1088
   55CHL1    C3 6477   5.872   4.439   9.645 -0.2069  0.1169  0.4757
   55CHL1    H3 6478   5.910   4.336   9.660 -1.8059 -0.6108 -0.2391
   55CHL1    O3 6479   5.892   4.504   9.773  0.2536 -0.1582  0.1893
   55CHL1   H3' 6480   5.849   4.454   9.843 -0.7122 -0.7619 -0.8171
   55CHL1    C4 6481   5.940   4.517   9.527  0.2474  0.5013  0.0207
   55CHL1   H4A 6482   5.928   4.628   9.531 -3.2671  0.2277  0.6737
   55CHL1   H4B 6483   6.045   4.489   9.550  0.0433  0.0482  0.4344
   55CHL1    C5 6484   5.893   4.458   9.397  0.0543 -0.4050 -0.4731
   55CHL1    C6 6485   5.997   4.421   9.315  0.2975  0.3891  0.2572
   55CHL1    H6 6486   6.104   4.439   9.331  1.1030 -2.3034 -1.5432
   55CHL1    C7 6487   5.970   4.368   9.176  0.3133  0.2919  0.0382
   55CHL1   H7A 6488   6.029   4.434   9.109 -1.7799  1.2212 -0.9421
   55CHL1   H7B 6489   6.003   4.262   9.166 -1.3603 -0.1463 -1.1463
   55CHL1    C8 6490   5.823   4.383   9.132 -0.3010 -0.0605 -0.5665
   55CHL1    H8 6491   5.803   4.488   9.100 -0.2271 -0.1101 -0.7714
   55CHL1   C14 6492   5.798   4.289   9.024  0.0234 -0.3011 -0.0080
   55CHL1   H14 6493   5.821   4.189   9.068  1.3228 -0.4898 -1.0527
   55CHL1   C15 6494   5.897   4.297   8.899  0.7908 -0.2585 -0.1316
   55CHL1  H15A 6495   5.920   4.401   8.867  0.8807  0.8469  3.1656
   55CHL1  H15B 6496   5.994   4.247   8.916  0.7208 -0.9399 -1.5621
   55CHL1   C16 6497   5.821   4.222   8.786 -1.0747  0.5568  0.2235
   55CHL1  H16A 6498   5.814   4.294   8.701 -0.4617 -0.3675 -0.6393
   55CHL1  H16B 6499   5.877   4.137   8.739 -2.6462 -0.3337 -0.0961
   55CHL1   C17 6500   5.685   4.180   8.842 -0.3538 -0.4406 -0.0300
   55CHL1   H17 6501   5.703   4.076   8.877 -0.6421 -1.4561 -2.6565
   55CHL1   C13 6502   5.658   4.272   8.964 -0.6497 -0.4456 -0.2129
   55CHL1   C18 6503   5.612   4.401   8.895 -0.3879  0.1859  0.1709
   55CHL1  H18A 6504   5.635   4.495   8.949 -2.3734 -0.2948  2.0201
   55CHL1  H18B 6505   5.650   4.420   8.793 -1.1375  2.0488  0.2017
   55CHL1  H18C 6506   5.501   4.400   8.886 -0.2749 -2.9460 -3.1166
   55CHL1   C12 6507   5.569   4.226   9.084  0.6954  0.2041  0.5647
   55CHL1  H12A 6508   5.465   4.223   9.048  1.0662 -0.5325 -0.4819
   55CHL1  H12B 6509   5.594   4.122   9.117  0.2128 -0.3096 -0.6541
   55CHL1   C11 6510   5.583   4.328   9.204 -1.0632 -0.4770  0.1935
   55CHL1  H11A 6511   5.542   4.422   9.163 -1.1006 -1.4733 -2.2464
   55CHL1  H11B 6512   5.515   4.288   9.282 -2.5361 -2.4465 -1.9253
   55CHL1    C9 6513   5.729   4.349   9.252  0.4548  0.0296  0.1345
   55CHL1    H9 6514   5.756   4.247   9.286 -0.4678 -0.2077  0.1972
   55CHL1   C10 6515   5.746   4.437   9.371 -0.3188  0.2289 -0.2198
   55CHL1   C19 6516   5.690   4.583   9.344 -0.7293  0.0886  0.1334
   55CHL1  H19A 6517   5.582   4.575   9.319 -1.4981  1.8181  2.5391
   55CHL1  H19B 6518   5.697   4.654   9.429 -2.5396  1.7256 -1.0129
   55CHL1  H19C 6519   5.740   4.630   9.257  2.1686 -0.1784  1.5238
   55CHL1    C1 6520   5.674   4.378   9.501  0.7867 -0.0405 -0.1438
   55CHL1   H1A 6521   5.565   4.390   9.479  0.6344 -1.7089 -0.4674
   55CHL1   H1B 6522   5.701   4.271   9.510  0.2258 -0.1210  0.6103
   55CHL1    C2 6523   5.719   4.446   9.624  0.0604 -0.1151 -0.3085
   55CHL1   H2A 6524   5.667   4.398   9.709  1.2306 -1.5676 -0.3835
   55CHL1   H2B 6525   5.678   4.549   9.614 -0.8544 -0.6335 -2.2779
   55CHL1   C20 6526   5.577   4.171   8.736 -0.5854  0.0956 -0.3363
   55CHL1   H20 6527   5.571   4.273   8.692  2.1444  1.4028  1.9528
   55CHL1   C21 6528   5.439   4.131   8.797  0.6377  0.2950 -0.4445
   55CHL1  H21A 6529   5.458   4.043   8.861 -2.1168  0.4412  0.6949
   55CHL1  H21B 6530   5.373   4.095   8.715  2.7539 -0.9868 -1.6727
   55CHL1  H21C 6531   5.393   4.214   8.855 -1.4839 -0.2134 -1.3036
   55CHL1   C22 6532   5.614   4.074   8.619 -0.7391 -0.7776  0.2728
   55CHL1  H22A 6533   5.717   4.104   8.593 -0.5716 -1.7796 -0.2707
   55CHL1  H22B 6534   5.612   3.970   8.658 -2.8931 -0.4960  1.0448
   55CHL1   C23 6535   5.537   4.096   8.480 -0.3405  0.7294 -0.7012
   55CHL1  H23A 6536   5.432   4.068   8.499  0.5136 -2.1480  0.3064
   55CHL1  H23B 6537   5.547   4.202   8.450  1.3837  1.9682  3.5030
   55CHL1   C24 6538   5.588   4.001   8.359 -0.0505 -0.3668 -0.4060
   55CHL1  H24A 6539   5.690   4.033   8.329 -0.6588  0.2381 -1.8981
   55CHL1  H24B 6540   5.595   3.896   8.396  0.4472  0.0455  0.7303
   55CHL1   C25 6541   5.497   4.014   8.237  0.1487  0.4736 -0.1493
   55CHL1   H25 6542   5.474   4.118   8.206  1.3756  0.7176 -0.2569
   55CHL1   C26 6543   5.579   3.956   8.118 -0.2195 -0.2205  0.3317
   55CHL1  H26A 6544   5.656   4.030   8.088 -0.6174  0.2343  0.4096
   55CHL1  H26B 6545   5.643   3.874   8.155  0.2338 -0.0820 -0.1412
   55CHL1  H26C 6546   5.520   3.932   8.027  0.9899  0.7311 -0.7431
   55CHL1   C27 6547   5.373   3.927   8.254 -0.5092 -0.3906 -0.3995
   55CHL1  H27A 6548   5.404   3.824   8.281 -1.1105 -0.3376  0.5311
   55CHL1  H27B 6549   5.312   3.972   8.335  2.1992  2.0203  0.4331
   55CHL1  H27C 6550   5.331   3.922   8.151  3.7633 -3.9321 -2.2756
   56CHL1    C3 6551   0.909   3.529  10.073  0.2468 -0.7859  0.6972
   56CHL1    H3 6552   0.872   3.426  10.054  0.6922 -0.8619  0.2165
   56CHL1    O3 6553   0.913   3.545  10.211  0.2576 -0.5507  0.5699
   56CHL1   H3' 6554   0.985   3.603  10.235 -1.0933 -0.0178  4.0109
   56CHL1    C4 6555   1.032   3.559   9.989  0.5786 -0.1074 -0.3998
   56CHL1   H4A 6556   1.076   3.654  10.028  0.5392 -0.4461  0.5080
   56CHL1   H4B 6557   1.106   3.481  10.020 -0.5667 -0.2071  2.3980
   56CHL1    C5 6558   1.016   3.572   9.833 -0.4586 -0.7748 -0.7561
   56CHL1    C6 6559   1.089   3.500   9.745  0.1442 -0.4794  0.4437
   56CHL1    H6 6560   1.172   3.434   9.775 -1.3363 -2.4521  0.3768
   56CHL1    C7 6561   1.079   3.517   9.594  0.1290 -0.2883  0.1709
   56CHL1   H7A 6562   1.182   3.519   9.553 -0.4176  1.9313 -1.2203
   56CHL1   H7B 6563   1.030   3.425   9.556 -0.5815  0.2004 -0.1208
   56CHL1    C8 6564   0.983   3.631   9.548 -0.5756 -0.3160  0.3754
   56CHL1    H8 6565   1.029   3.729   9.569 -1.0840 -0.4264  2.1514
   56CHL1   C14 6566   0.945   3.626   9.402 -0.0785 -0.0903 -0.3707
   56CHL1   H14 6567   0.892   3.528   9.396  1.6604 -1.1331  0.4250
   56CHL1   C15 6568   1.062   3.608   9.299 -0.1234 -0.4897 -0.1240
   56CHL1  H15A 6569   1.153   3.669   9.317  1.5116 -2.2807 -1.7704
   56CHL1  H15B 6570   1.100   3.505   9.283  1.6993  0.3282 -1.3471
   56CHL1   C16 6571   0.995   3.658   9.167  0.4341 -0.1188  0.2000
   56CHL1  H16A 6572   1.048   3.750   9.135  2.0614 -0.3193  2.1333
   56CHL1  H16B 6573   1.001   3.575   9.093 -3.1309  0.4211 -0.8676
   56CHL1   C17 6574   0.850   3.704   9.195 -0.1375  0.0023  0.1595
   56CHL1   H17 6575   0.792   3.610   9.183 -1.9103  1.0701 -0.0222
   56CHL1   C13 6576   0.847   3.737   9.348  0.2109  0.8539  0.0929
   56CHL1   C18 6577   0.911   3.880   9.380 -0.9120  0.3557  0.3794
   56CHL1  H18A 6578   1.017   3.878   9.346 -0.9786 -1.2640  0.1800
   56CHL1  H18B 6579   0.852   3.962   9.335 -0.3404  0.4240 -0.2842
   56CHL1  H18C 6580   0.922   3.912   9.485  0.2404  0.1845  0.3307
   56CHL1   C12 6581   0.720   3.719   9.433  0.7942 -0.8991  0.0747
   56CHL1  H12A 6582   0.650   3.798   9.397  1.1461 -0.5341  0.1874
   56CHL1  H12B 6583   0.663   3.626   9.410 -0.1451 -0.0407 -1.2129
   56CHL1   C11 6584   0.749   3.737   9.582  0.1851 -0.2222 -0.6970
   56CHL1  H11A 6585   0.777   3.844   9.599 -1.0567  0.1581 -0.9689
   56CHL1  H11B 6586   0.656   3.726   9.642  0.3061  0.1760 -0.4322
   56CHL1    C9 6587   0.857   3.638   9.635 -0.4203 -0.5930 -0.0440
   56CHL1    H9 6588   0.807   3.539   9.626 -1.4137 -0.1363  0.3434
   56CHL1   C10 6589   0.896   3.654   9.781 -0.5484  0.0885  0.0295
   56CHL1   C19 6590   0.947   3.799   9.801  0.4601  0.3011  0.5829
   56CHL1  H19A 6591   0.880   3.883   9.775  0.0046 -0.3730 -0.4630
   56CHL1  H19B 6592   0.961   3.814   9.910 -0.6305 -1.7406  1.0536
   56CHL1  H19C 6593   1.046   3.817   9.752 -0.0460 -0.6633 -0.8537
   56CHL1    C1 6594   0.773   3.621   9.876 -0.9738 -0.0166  0.0482
   56CHL1   H1A 6595   0.683   3.679   9.848 -0.6050 -1.0464 -3.9314
   56CHL1   H1B 6596   0.749   3.517   9.844  1.5350  0.0646 -2.5091
   56CHL1    C2 6597   0.793   3.626  10.022 -0.3729  0.6899 -0.0270
   56CHL1   H2A 6598   0.705   3.593  10.081 -0.9324 -0.6904 -1.5643
   56CHL1   H2B 6599   0.817   3.726  10.064 -0.9757  0.6929  0.3301
   56CHL1   C20 6600   0.799   3.803   9.090 -0.1944  0.1031  0.0717
   56CHL1   H20 6601   0.858   3.894   9.116  1.0034 -0.9548  1.2735
   56CHL1   C21 6602   0.656   3.835   9.114 -0.0436  0.3416 -0.1725
   56CHL1  H21A 6603   0.642   3.889   9.210  0.6949  0.5763 -0.1916
   56CHL1  H21B 6604   0.600   3.739   9.114  0.4006  0.0799  0.3696
   56CHL1  H21C 6605   0.620   3.895   9.027 -0.5690 -0.0298 -0.2174
   56CHL1   C22 6606   0.822   3.769   8.944 -1.2519 -0.1169 -0.7856
   56CHL1  H22A 6607   0.929   3.747   8.925 -0.4915  2.1308  0.5110
   56CHL1  H22B 6608   0.764   3.675   8.933 -1.4261 -0.2582  0.9573
   56CHL1   C23 6609   0.791   3.880   8.834 -0.2326  0.5696 -0.5811
   56CHL1  H23A 6610   0.688   3.915   8.855 -0.7201 -0.5944 -0.9447
   56CHL1  H23B 6611   0.856   3.968   8.854  0.5112  0.0019 -0.4495
   56CHL1   C24 6612   0.816   3.838   8.693 -0.8111  0.1279 -0.2543
   56CHL1  H24A 6613   0.926   3.837   8.678 -0.5713 -0.4362  1.3182
   56CHL1  H24B 6614   0.775   3.734   8.695  0.8719 -0.6063  2.6916
   56CHL1   C25 6615   0.745   3.916   8.576 -0.6634  0.7978 -0.1810
   56CHL1   H25 6616   0.642   3.925   8.617 -0.1295  0.6227  1.2559
   56CHL1   C26 6617   0.794   4.060   8.550  0.1144  0.4311  0.2497
   56CHL1  H26A 6618   0.891   4.063   8.495  0.3171  0.3907  0.5997
   56CHL1  H26B 6619   0.724   4.123   8.493 -0.5008 -2.2467 -2.1775
   56CHL1  H26C 6620   0.790   4.114   8.647 -1.0709 -0.5862  0.7938
   56CHL1   C27 6621   0.738   3.833   8.448  0.1887  0.6470  0.3098
   56CHL1  H27A 6622   0.671   3.747   8.467 -0.5372  1.1959  0.2712
   56CHL1  H27B 6623   0.685   3.889   8.368  1.2138 -0.5960 -1.3073
   56CHL1  H27C 6624   0.839   3.805   8.411 -0.3064  0.8777 -1.2599
   57CHL1    C3 6625   2.709   5.950  10.094 -0.4089 -0.1586  0.3812
   57CHL1    H3 6626   2.632   6.030  10.088 -0.9170 -0.3908  2.7256
   57CHL1    O3 6627   2.725   5.895  10.224  0.2008 -0.0406  0.2621
   57CHL1   H3' 6628   2.676   5.812  10.225  0.6826 -0.3425  1.6436
   57CHL1    C4 6629   2.667   5.839   9.992  0.6471  0.5053  0.1465
   57CHL1   H4A 6630   2.728   5.748  10.011 -2.8234 -1.9879  0.1136
   57CHL1   H4B 6631   2.569   5.805  10.031  1.3624 -0.6330  1.0364
   57CHL1    C5 6632   2.670   5.884   9.846 -0.5130  0.5829  0.1210
   57CHL1    C6 6633   2.561   5.886   9.768  0.1227 -0.1008 -0.5869
   57CHL1    H6 6634   2.465   5.849   9.807 -1.2984  3.7644 -0.0450
   57CHL1    C7 6635   2.563   5.939   9.623  0.4245 -0.4450  0.2498
   57CHL1   H7A 6636   2.505   5.874   9.553  0.7504  0.0343 -0.4809
   57CHL1   H7B 6637   2.526   6.042   9.637  1.6463  0.0168  0.1732
   57CHL1    C8 6638   2.710   5.946   9.556  0.3114  0.2012  0.1079
   57CHL1    H8 6639   2.760   5.847   9.551  1.1814  0.6830 -0.9708
   57CHL1   C14 6640   2.713   6.007   9.416 -0.2618 -0.7365 -0.4927
   57CHL1   H14 6641   2.676   6.110   9.433  0.9203 -0.1344 -1.4425
   57CHL1   C15 6642   2.621   5.944   9.305  0.1127 -0.9279 -0.6448
   57CHL1  H15A 6643   2.649   5.836   9.297  0.0802 -0.8454 -2.1268
   57CHL1  H15B 6644   2.512   5.960   9.320  0.5222 -0.4281  2.4113
   57CHL1   C16 6645   2.674   6.012   9.179  1.0218 -0.5826  0.5657
   57CHL1  H16A 6646   2.685   5.943   9.093 -1.0627  0.5886 -0.7427
   57CHL1  H16B 6647   2.600   6.087   9.143 -1.4400 -2.8305  0.6280
   57CHL1   C17 6648   2.808   6.089   9.212 -0.4920 -0.7608 -0.1776
   57CHL1   H17 6649   2.776   6.194   9.230 -0.8008 -1.0148  0.7898
   57CHL1   C13 6650   2.849   6.032   9.350  0.6211  0.3939 -0.7126
   57CHL1   C18 6651   2.924   5.907   9.321  1.0092  0.6617  0.0930
   57CHL1  H18A 6652   3.029   5.934   9.295  1.7836  0.1794  2.4877
   57CHL1  H18B 6653   2.938   5.845   9.412 -1.2713 -1.1947 -0.7142
   57CHL1  H18C 6654   2.892   5.850   9.230  0.6917  0.2915  0.4336
   57CHL1   C12 6655   2.926   6.124   9.448 -0.8472 -0.3679 -0.9797
   57CHL1  H12A 6656   3.028   6.139   9.407 -1.1066  2.9409 -0.6996
   57CHL1  H12B 6657   2.878   6.225   9.454 -0.9127 -0.4856  1.0403
   57CHL1   C11 6658   2.940   6.056   9.586 -0.0263 -0.5399  1.1638
   57CHL1  H11A 6659   2.999   5.963   9.580  0.4066 -0.2519  0.9030
   57CHL1  H11B 6660   2.994   6.131   9.648  4.4648 -3.0600  0.6776
   57CHL1    C9 6661   2.798   6.017   9.653 -0.1874  0.4140  0.4298
   57CHL1    H9 6662   2.747   6.115   9.660 -0.4069  0.3651 -0.3273
   57CHL1   C10 6663   2.807   5.948   9.796  0.5710 -0.5989 -0.2394
   57CHL1   C19 6664   2.920   5.843   9.784  0.0148 -0.6947 -0.1731
   57CHL1  H19A 6665   3.026   5.875   9.778 -0.2025 -0.0853 -0.9366
   57CHL1  H19B 6666   2.928   5.779   9.874  2.5981  1.8951  1.5968
   57CHL1  H19C 6667   2.905   5.780   9.693 -0.4471  2.0518 -2.1368
   57CHL1    C1 6668   2.848   6.060   9.900  0.2814  0.1729  0.0723
   57CHL1   H1A 6669   2.949   6.098   9.874  1.1121 -1.5485  0.5905
   57CHL1   H1B 6670   2.777   6.144   9.897  0.1733  0.2692  2.6081
   57CHL1    C2 6671   2.843   6.011  10.046  0.0944  0.3018 -0.8297
   57CHL1   H2A 6672   2.863   6.103  10.105  1.5884 -0.0096 -0.8223
   57CHL1   H2B 6673   2.919   5.934  10.069 -1.0070 -0.4937  0.2895
   57CHL1   C20 6674   2.903   6.101   9.086  0.6022  0.3100  0.1244
   57CHL1   H20 6675   2.932   6.001   9.046  0.0579  0.7071 -1.3144
   57CHL1   C21 6676   3.028   6.179   9.125  0.0108  0.0876 -0.3316
   57CHL1  H21A 6677   3.114   6.171   9.055 -0.2689 -2.2116 -0.4956
   57CHL1  H21B 6678   3.070   6.130   9.215  0.3318  0.3920 -0.3132
   57CHL1  H21C 6679   3.004   6.285   9.149  0.2459  0.3119 -1.0545
   57CHL1   C22 6680   2.827   6.160   8.963  0.0744  0.5897 -0.1068
   57CHL1  H22A 6681   2.720   6.130   8.963 -0.1429  1.3448  0.4069
   57CHL1  H22B 6682   2.817   6.269   8.980 -2.4913  0.6647 -1.5077
   57CHL1   C23 6683   2.895   6.117   8.833  1.1739  0.2467  0.0349
   57CHL1  H23A 6684   3.005   6.135   8.834  1.2189  0.1944 -1.4956
   57CHL1  H23B 6685   2.868   6.014   8.803  0.8777  0.0339  1.0185
   57CHL1   C24 6686   2.843   6.209   8.718 -0.6215  0.1479 -0.0613
   57CHL1  H24A 6687   2.739   6.187   8.684  0.9318 -1.8638 -4.2262
   57CHL1  H24B 6688   2.834   6.313   8.756  0.5087 -0.1110  0.9943
   57CHL1   C25 6689   2.905   6.201   8.576 -0.6603  0.0264 -0.0644
   57CHL1   H25 6690   3.014   6.219   8.587 -0.9079  1.8949 -0.4413
   57CHL1   C26 6691   2.878   6.062   8.526 -0.6975  0.1764 -0.2234
   57CHL1  H26A 6692   2.770   6.034   8.520 -0.4002 -0.9694 -0.4490
   57CHL1  H26B 6693   2.915   6.036   8.425 -0.0888 -0.5106  0.1663
   57CHL1  H26C 6694   2.910   5.991   8.606  1.0873  0.5554 -0.5584
   57CHL1   C27 6695   2.864   6.303   8.471 -0.4489  0.5506  0.1442
   57CHL1  H27A 6696   2.912   6.403   8.485 -0.1038  0.5041 -0.6753
   57CHL1  H27B 6697   2.884   6.266   8.368 -1.9706 -3.4909  1.1260
   57CHL1  H27C 6698   2.755   6.313   8.488 -0.4193 -0.5914  1.1065
   58CHL1    C3 6699   1.238   5.055   9.897 -0.6805 -0.3291  0.1157
   58CHL1    H3 6700   1.154   4.987   9.871 -1.2822  0.3061  0.3792
   58CHL1    O3 6701   1.270   5.060  10.034  0.4881  0.2978  0.2400
   58CHL1   H3' 6702   1.192   5.107  10.066 -0.0962 -0.9248  0.6901
   58CHL1    C4 6703   1.364   5.002   9.815  0.1545  0.2184  0.0129
   58CHL1   H4A 6704   1.464   5.044   9.839  0.9061 -0.8569 -1.1294
   58CHL1   H4B 6705   1.370   4.897   9.853  1.2451  0.8541  1.7209
   58CHL1    C5 6706   1.351   5.004   9.670  0.2188 -0.3182  0.0754
   58CHL1    C6 6707   1.366   4.889   9.597  0.1922  0.3143  0.1929
   58CHL1    H6 6708   1.384   4.793   9.646 -2.1125 -0.2450  0.0524
   58CHL1    C7 6709   1.327   4.868   9.451 -0.9567 -0.5181  0.4501
   58CHL1   H7A 6710   1.401   4.803   9.401  1.0894  1.5893  0.5517
   58CHL1   H7B 6711   1.226   4.826   9.432 -1.1676  0.3607 -0.4552
   58CHL1    C8 6712   1.320   5.008   9.378 -0.4526 -0.7591 -0.1745
   58CHL1    H8 6713   1.426   5.044   9.375 -1.1477  1.6490  1.0536
   58CHL1   C14 6714   1.251   4.997   9.243 -0.2233  0.0851 -0.2356
   58CHL1   H14 6715   1.147   4.963   9.257  0.2234 -0.7110  1.4275
   58CHL1   C15 6716   1.303   4.895   9.139  0.5871 -0.1045 -0.9043
   58CHL1  H15A 6717   1.413   4.882   9.132  0.6330 -0.0963 -0.2637
   58CHL1  H15B 6718   1.259   4.798   9.170  0.3181  1.0411  2.7185
   58CHL1   C16 6719   1.240   4.950   9.004 -0.1485  1.5043  0.1043
   58CHL1  H16A 6720   1.328   4.968   8.939  1.5130 -0.6149  1.6177
   58CHL1  H16B 6721   1.190   4.875   8.939 -1.0339  2.0253  0.1564
   58CHL1   C17 6722   1.156   5.072   9.037 -0.5539 -0.5141 -0.4151
   58CHL1   H17 6723   1.056   5.046   9.077 -0.8818  1.6301  0.3028
   58CHL1   C13 6724   1.228   5.129   9.164  0.3192  0.0266  0.2055
   58CHL1   C18 6725   1.365   5.196   9.135 -0.0839  0.3987 -0.8450
   58CHL1  H18A 6726   1.354   5.292   9.081 -0.7040 -0.7081 -2.7775
   58CHL1  H18B 6727   1.429   5.210   9.225  0.2200 -1.1267 -0.8065
   58CHL1  H18C 6728   1.419   5.126   9.068  0.1916 -0.6207  0.3979
   58CHL1   C12 6729   1.137   5.217   9.250  0.6557  1.0614  0.4266
   58CHL1  H12A 6730   1.136   5.313   9.193  1.6308 -0.4373 -2.3291
   58CHL1  H12B 6731   1.035   5.173   9.252  0.3189  1.8363  1.8344
   58CHL1   C11 6732   1.196   5.242   9.391  0.5128 -0.0248 -0.9219
   58CHL1  H11A 6733   1.291   5.299   9.382  0.0870  0.7277 -0.7195
   58CHL1  H11B 6734   1.116   5.294   9.448  1.5687  0.1580  0.4651
   58CHL1    C9 6735   1.240   5.112   9.469 -0.0767 -0.2834 -0.1277
   58CHL1    H9 6736   1.140   5.067   9.486 -0.2563  0.4315  0.7871
   58CHL1   C10 6737   1.299   5.134   9.608 -0.4509 -0.5047 -0.5670
   58CHL1   C19 6738   1.420   5.239   9.600 -0.4544  0.1222 -0.3913
   58CHL1  H19A 6739   1.486   5.223   9.512  0.5328  1.8998 -0.0290
   58CHL1  H19B 6740   1.371   5.337   9.581  0.2633  0.3481 -1.1104
   58CHL1  H19C 6741   1.471   5.254   9.697 -0.0052  1.5957 -0.8365
   58CHL1    C1 6742   1.187   5.194   9.698  0.0544  0.1929  0.0425
   58CHL1   H1A 6743   1.169   5.299   9.665 -3.7686 -0.3339 -0.0071
   58CHL1   H1B 6744   1.086   5.149   9.683 -0.9705  2.7482 -1.5364
   58CHL1    C2 6745   1.209   5.199   9.842  0.5259  0.5480 -0.7334
   58CHL1   H2A 6746   1.120   5.237   9.896  1.5337 -0.7410  2.0248
   58CHL1   H2B 6747   1.302   5.251   9.877  0.5051  0.9054 -1.2058
   58CHL1   C20 6748   1.115   5.167   8.922 -0.4901 -0.0276  0.1406
   58CHL1   H20 6749   1.082   5.262   8.971  1.3043 -0.8142  3.1724
   58CHL1   C21 6750   0.995   5.106   8.852 -0.4755 -0.2521  0.1559
   58CHL1  H21A 6751   0.924   5.054   8.919 -0.5158  1.6782  1.6970
   58CHL1  H21B 6752   1.041   5.025   8.792 -1.1156  0.2071 -1.0051
   58CHL1  H21C 6753   0.944   5.177   8.783  1.6765  0.4876 -0.7903
   58CHL1   C22 6754   1.220   5.207   8.816 -0.3560 -0.6777  0.0300
   58CHL1  H22A 6755   1.318   5.224   8.864 -0.4900  1.9363 -0.4941
   58CHL1  H22B 6756   1.241   5.118   8.752  3.5571  0.3481 -0.3545
   58CHL1   C23 6757   1.191   5.328   8.725  0.2112  0.1892 -0.2968
   58CHL1  H23A 6758   1.083   5.349   8.710  0.3928  1.5876  0.2218
   58CHL1  H23B 6759   1.231   5.417   8.779  2.3132 -0.3599 -0.8282
   58CHL1   C24 6760   1.278   5.319   8.595 -0.5653  0.8312 -0.2498
   58CHL1  H24A 6761   1.292   5.423   8.559  2.8129  1.2985  2.0182
   58CHL1  H24B 6762   1.378   5.278   8.617 -0.6778  1.6459  2.0037
   58CHL1   C25 6763   1.206   5.238   8.483  0.8976 -0.3235  0.1946
   58CHL1   H25 6764   1.173   5.155   8.548  1.2483 -0.7523 -0.1643
   58CHL1   C26 6765   1.083   5.312   8.421  0.0723 -0.5840 -0.0923
   58CHL1  H26A 6766   1.066   5.407   8.476  1.1835  0.9813 -2.3175
   58CHL1  H26B 6767   1.111   5.340   8.317  1.2282 -0.0658  0.3371
   58CHL1  H26C 6768   0.990   5.253   8.414  0.1486 -0.5363 -2.2634
   58CHL1   C27 6769   1.295   5.174   8.374 -0.5061  0.4613  0.1773
   58CHL1  H27A 6770   1.228   5.121   8.302  0.3008  1.4907 -1.4063
   58CHL1  H27B 6771   1.353   5.250   8.317  1.3355 -1.7164 -0.9954
   58CHL1  H27C 6772   1.347   5.091   8.425 -0.9136  1.4370  2.2903
   59CHL1    C3 6773   5.627   2.964  10.330  0.4738 -0.5110 -0.2979
   59CHL1    H3 6774   5.636   3.062  10.279  0.2684  0.5623  1.6272
   59CHL1    O3 6775   5.618   2.986  10.472  0.2977  0.2452  1.0651
   59CHL1   H3' 6776   5.587   2.902  10.506  1.6472 -0.2630  1.1134
   59CHL1    C4 6777   5.499   2.903  10.272  0.1024  0.3172  0.4947
   59CHL1   H4A 6778   5.461   2.814  10.326  0.5837 -0.3345 -0.2273
   59CHL1   H4B 6779   5.415   2.970  10.302 -0.5946 -0.7058  0.8794
   59CHL1    C5 6780   5.516   2.880  10.126  0.1005  0.2589  0.1047
   59CHL1    C6 6781   5.434   2.942  10.041 -0.6310 -0.2863 -0.0087
   59CHL1    H6 6782   5.366   3.016  10.085  0.6768  1.0682 -0.1572
   59CHL1    C7 6783   5.431   2.924   9.895  0.0627  0.5218  0.2501
   59CHL1   H7A 6784   5.327   2.899   9.868 -1.4367  2.3814  3.6222
   59CHL1   H7B 6785   5.468   3.016   9.845  0.4511  0.7068  0.8649
   59CHL1    C8 6786   5.522   2.803   9.859  0.0620 -0.2876 -0.6896
   59CHL1    H8 6787   5.473   2.710   9.896  2.5276 -0.7743  1.7571
   59CHL1   C14 6788   5.549   2.805   9.707  0.1272  0.6259  0.1612
   59CHL1   H14 6789   5.594   2.904   9.684  1.1814 -0.2147 -1.5776
   59CHL1   C15 6790   5.421   2.791   9.614 -0.2279  0.1722  0.1773
   59CHL1  H15A 6791   5.366   2.702   9.652  2.3411 -1.8102 -0.3969
   59CHL1  H15B 6792   5.372   2.890   9.611  0.5279  0.5311 -0.7378
   59CHL1   C16 6793   5.483   2.752   9.480 -0.5961  0.1355 -0.0095
   59CHL1  H16A 6794   5.431   2.665   9.435  1.0385 -0.7351 -0.2916
   59CHL1  H16B 6795   5.470   2.827   9.400 -0.4924 -1.6645 -1.7803
   59CHL1   C17 6796   5.634   2.718   9.499 -0.1412 -0.1147  0.5931
   59CHL1   H17 6797   5.687   2.815   9.491  2.5341 -1.5489  0.0872
   59CHL1   C13 6798   5.646   2.693   9.660 -0.0696 -0.0509  0.0141
   59CHL1   C18 6799   5.593   2.550   9.684 -0.0035 -0.2920  0.0226
   59CHL1  H18A 6800   5.676   2.491   9.639  0.5855  1.2684 -1.0324
   59CHL1  H18B 6801   5.572   2.512   9.786  0.6671  0.1311  0.3229
   59CHL1  H18C 6802   5.509   2.528   9.615 -0.3753  2.6125 -0.5717
   59CHL1   C12 6803   5.780   2.720   9.725  0.1696 -0.1391 -0.5108
   59CHL1  H12A 6804   5.852   2.642   9.692  1.6899  1.9458 -2.3989
   59CHL1  H12B 6805   5.815   2.823   9.704  1.5509 -0.1416  1.5206
   59CHL1   C11 6806   5.762   2.704   9.879 -0.3309  0.2025 -0.7077
   59CHL1  H11A 6807   5.727   2.600   9.896 -0.3051  0.0558 -1.4936
   59CHL1  H11B 6808   5.859   2.723   9.931 -1.4723  0.5028  1.4111
   59CHL1    C9 6809   5.658   2.802   9.938  0.0117 -0.2004 -0.1857
   59CHL1    H9 6810   5.700   2.904   9.923 -1.0720  0.4520  0.9957
   59CHL1   C10 6811   5.638   2.798  10.089 -0.0461  0.0171 -0.3323
   59CHL1   C19 6812   5.618   2.652  10.136  0.7316  0.3178  0.0296
   59CHL1  H19A 6813   5.704   2.595  10.094  1.7623  1.7853  0.0734
   59CHL1  H19B 6814   5.620   2.640  10.246 -0.6623  0.7013  0.1208
   59CHL1  H19C 6815   5.522   2.605  10.105 -0.4607  0.9543  2.5208
   59CHL1    C1 6816   5.773   2.855  10.155  0.6408 -0.2788  0.2392
   59CHL1   H1A 6817   5.851   2.777  10.148 -0.1011 -1.5257  3.8038
   59CHL1   H1B 6818   5.794   2.955  10.111 -1.3890  0.1016  0.0125
   59CHL1    C2 6819   5.753   2.881  10.307 -0.4740 -0.4618  0.3107
   59CHL1   H2A 6820   5.845   2.932  10.344  0.0279 -0.3429 -1.0167
   59CHL1   H2B 6821   5.748   2.779  10.349 -0.3053 -0.6281 -0.0600
   59CHL1   C20 6822   5.687   2.622   9.394  0.4557 -0.7017 -0.6107
   59CHL1   H20 6823   5.658   2.517   9.415 -0.3467 -0.6229 -1.2884
   59CHL1   C21 6824   5.842   2.633   9.406  0.4142 -0.1358  0.0669
   59CHL1  H21A 6825   5.891   2.570   9.329  0.6140 -1.4768  1.2324
   59CHL1  H21B 6826   5.880   2.610   9.508 -2.2120 -0.3703  1.0746
   59CHL1  H21C 6827   5.849   2.741   9.381 -1.7022  0.0906  0.2723
   59CHL1   C22 6828   5.631   2.652   9.250  0.3806 -0.3879  0.2109
   59CHL1  H22A 6829   5.520   2.644   9.246  0.4601 -1.7704  0.3657
   59CHL1  H22B 6830   5.671   2.753   9.229 -0.5331  0.2525  1.3629
   59CHL1   C23 6831   5.682   2.553   9.145 -0.9032 -0.3730 -0.3427
   59CHL1  H23A 6832   5.793   2.539   9.145 -0.9367 -0.6466 -0.6539
   59CHL1  H23B 6833   5.648   2.450   9.168 -0.2223 -0.2010  1.6052
   59CHL1   C24 6834   5.641   2.603   9.002 -0.4159 -0.3320 -0.5698
   59CHL1  H24A 6835   5.656   2.516   8.934 -0.4545 -0.6751 -0.1413
   59CHL1  H24B 6836   5.531   2.616   8.994 -0.3359 -0.4830 -2.4638
   59CHL1   C25 6837   5.727   2.726   8.963  0.5752 -0.5401  0.3121
   59CHL1   H25 6838   5.750   2.790   9.052  0.7611 -0.5632  0.2807
   59CHL1   C26 6839   5.865   2.690   8.908  0.0292 -0.0141 -0.4716
   59CHL1  H26A 6840   5.858   2.620   8.821 -1.6698 -3.3550  2.0942
   59CHL1  H26B 6841   5.914   2.787   8.886 -0.0415  0.4963  1.4668
   59CHL1  H26C 6842   5.922   2.642   8.990  0.7188 -1.4179 -1.7351
   59CHL1   C27 6843   5.641   2.803   8.867 -0.5021 -0.6955 -0.1290
   59CHL1  H27A 6844   5.630   2.762   8.764  2.7331  2.4599 -1.9476
   59CHL1  H27B 6845   5.548   2.829   8.921  0.3763 -0.2906  1.2311
   59CHL1  H27C 6846   5.685   2.903   8.848 -3.2347  0.2634 -1.9408
   60CHL1    C3 6847   0.488   3.165   9.966 -0.5424 -0.4039  0.0085
   60CHL1    H3 6848   0.506   3.057   9.948  0.3911 -0.7071  2.4955
   60CHL1    O3 6849   0.473   3.197  10.106 -0.2354  0.2247  0.5057
   60CHL1   H3' 6850   0.414   3.272  10.097 -0.6612 -0.1453  0.1653
   60CHL1    C4 6851   0.618   3.241   9.913  0.4103 -0.3356  0.5514
   60CHL1   H4A 6852   0.628   3.342   9.958 -0.8373  0.5258 -1.0014
   60CHL1   H4B 6853   0.705   3.179   9.942  1.8057 -0.3826 -3.2007
   60CHL1    C5 6854   0.615   3.256   9.763  0.7335 -0.2884 -0.1420
   60CHL1    C6 6855   0.719   3.220   9.686  0.1713 -0.2735 -0.0035
   60CHL1    H6 6856   0.805   3.174   9.735 -0.1686 -3.1044 -1.8423
   60CHL1    C7 6857   0.726   3.229   9.537  0.7661  0.2541  0.3595
   60CHL1   H7A 6858   0.825   3.267   9.503  0.1579  0.2084 -1.5728
   60CHL1   H7B 6859   0.724   3.126   9.497 -1.8591  0.1663  0.5248
   60CHL1    C8 6860   0.605   3.301   9.473  0.4108 -0.3392  0.5264
   60CHL1    H8 6861   0.616   3.411   9.480  0.3157 -0.3569  0.9474
   60CHL1   C14 6862   0.611   3.267   9.324  0.0582  0.4984 -0.7262
   60CHL1   H14 6863   0.606   3.156   9.328  0.7198  0.4756 -0.3417
   60CHL1   C15 6864   0.737   3.293   9.243 -0.4329  0.0634 -0.6044
   60CHL1  H15A 6865   0.776   3.397   9.250 -0.0750 -0.0657 -0.6839
   60CHL1  H15B 6866   0.817   3.223   9.274  0.3823  0.9636 -0.5986
   60CHL1   C16 6867   0.689   3.279   9.096  0.1313  0.3749 -0.8624
   60CHL1  H16A 6868   0.715   3.374   9.044 -0.4542  1.4916  0.8123
   60CHL1  H16B 6869   0.734   3.188   9.050  0.6270 -0.8531  1.8271
   60CHL1   C17 6870   0.539   3.271   9.105 -0.3359  0.6168 -0.3915
   60CHL1   H17 6871   0.506   3.165   9.106 -0.9235  0.7920  1.2077
   60CHL1   C13 6872   0.492   3.317   9.242  0.1090  0.1053 -0.0140
   60CHL1   C18 6873   0.487   3.475   9.249  0.1183 -0.3942 -0.2758
   60CHL1  H18A 6874   0.581   3.525   9.218  1.8430 -1.7145  2.4131
   60CHL1  H18B 6875   0.414   3.519   9.178 -1.8708  0.8443  2.3709
   60CHL1  H18C 6876   0.466   3.504   9.354  0.5136 -0.5775 -0.1435
   60CHL1   C12 6877   0.362   3.255   9.300  1.1483  0.2772 -0.2588
   60CHL1  H12A 6878   0.266   3.278   9.250 -1.1727 -3.8288  1.8173
   60CHL1  H12B 6879   0.385   3.146   9.302  0.2268  0.0756  2.7186
   60CHL1   C11 6880   0.351   3.285   9.457  0.4675  0.0521  0.6238
   60CHL1  H11A 6881   0.318   3.391   9.466 -0.3952 -0.1313 -0.1802
   60CHL1  H11B 6882   0.281   3.207   9.494  1.1626 -0.4164  0.9815
   60CHL1    C9 6883   0.474   3.260   9.538  0.7035 -0.0546 -0.2108
   60CHL1    H9 6884   0.486   3.149   9.537 -0.7254 -0.2187 -0.0609
   60CHL1   C10 6885   0.480   3.298   9.690  0.8137  0.6009  0.5196
   60CHL1   C19 6886   0.448   3.446   9.697 -0.5552 -0.2881 -0.1419
   60CHL1  H19A 6887   0.447   3.476   9.804 -0.2502  0.0832 -0.2392
   60CHL1  H19B 6888   0.528   3.498   9.640  0.8333 -1.5710  0.5756
   60CHL1  H19C 6889   0.350   3.470   9.651 -0.1366 -0.6278 -1.2467
   60CHL1    C1 6890   0.367   3.209   9.748  0.1830 -0.2195  0.1992
   60CHL1   H1A 6891   0.268   3.241   9.709  0.6512  0.6473 -0.3003
   60CHL1   H1B 6892   0.380   3.104   9.714  0.8166  0.2925 -1.2187
   60CHL1    C2 6893   0.358   3.213   9.900 -0.1008 -0.1998  0.4257
   60CHL1   H2A 6894   0.266   3.158   9.931 -0.3150  0.3154  0.7192
   60CHL1   H2B 6895   0.339   3.319   9.926 -1.2508 -0.0145 -1.0477
   60CHL1   C20 6896   0.471   3.335   8.979 -0.0093  0.2584 -0.7220
   60CHL1   H20 6897   0.496   3.443   8.990  0.8064  0.1888 -1.7348
   60CHL1   C21 6898   0.317   3.324   8.983 -0.1328  0.2605 -0.3548
   60CHL1  H21A 6899   0.284   3.218   8.983 -1.8462  0.7362  0.6012
   60CHL1  H21B 6900   0.272   3.392   8.907  1.6005  1.8305 -0.0432
   60CHL1  H21C 6901   0.278   3.378   9.073  0.7011 -0.2446  0.3236
   60CHL1   C22 6902   0.532   3.287   8.849 -0.2607 -0.1582  0.0143
   60CHL1  H22A 6903   0.636   3.247   8.854  0.7193  2.2781  0.6383
   60CHL1  H22B 6904   0.459   3.219   8.801 -1.8113  0.9928  0.6764
   60CHL1   C23 6905   0.545   3.403   8.740  0.4973  0.2495 -0.1808
   60CHL1  H23A 6906   0.441   3.429   8.712  0.1131 -0.7291  0.2999
   60CHL1  H23B 6907   0.606   3.487   8.780  1.0487 -1.3908  2.6608
   60CHL1   C24 6908   0.623   3.335   8.619  0.7112  0.2321  0.2600
   60CHL1  H24A 6909   0.725   3.310   8.658  0.2807 -0.2930  1.0789
   60CHL1  H24B 6910   0.573   3.241   8.590 -0.1483  0.8452 -0.2818
   60CHL1   C25 6911   0.632   3.422   8.492  0.4959  0.2320 -0.4582
   60CHL1   H25 6912   0.689   3.517   8.508 -0.1424  0.4666  0.5702
   60CHL1   C26 6913   0.711   3.343   8.385 -0.0947  0.2852  0.0494
   60CHL1  H26A 6914   0.814   3.315   8.416  0.6496 -2.3874 -4.0191
   60CHL1  H26B 6915   0.653   3.249   8.373 -0.4145  0.1892  1.9693
   60CHL1  H26C 6916   0.720   3.389   8.284 -2.1799 -0.4990 -0.5495
   60CHL1   C27 6917   0.486   3.452   8.436  0.7201 -0.2011  0.0739
   60CHL1  H27A 6918   0.426   3.359   8.428  1.2549 -0.6503  1.0767
   60CHL1  H27B 6919   0.429   3.527   8.495  1.2327 -0.0120  0.3409
   60CHL1  H27C 6920   0.503   3.504   8.339 -2.2606  1.7866  0.4648
   61CHL1    C3 6921   1.019   1.698   9.941  0.1614 -0.0790 -0.1984
   61CHL1    H3 6922   1.091   1.763   9.888  1.2331  1.8014  3.2537
   61CHL1    O3 6923   1.044   1.705  10.079  0.0099 -0.1122 -0.2144
   61CHL1   H3' 6924   0.961   1.677  10.118 -0.3353 -1.5453 -1.8460
   61CHL1    C4 6925   0.873   1.756   9.933 -0.6092  0.5537 -0.4410
   61CHL1   H4A 6926   0.808   1.687   9.990  0.9721  0.3481  1.2047
   61CHL1   H4B 6927   0.862   1.851   9.990 -0.7875 -0.3533  1.0849
   61CHL1    C5 6928   0.820   1.762   9.793 -0.1384 -0.1580 -0.4716
   61CHL1    C6 6929   0.788   1.874   9.735 -0.1819  0.2127 -0.0049
   61CHL1    H6 6930   0.787   1.969   9.791 -0.1215  2.1212 -3.0274
   61CHL1    C7 6931   0.732   1.890   9.601  0.1956  1.2688  0.0385
   61CHL1   H7A 6932   0.632   1.936   9.614 -1.3324 -2.1714  1.6747
   61CHL1   H7B 6933   0.805   1.952   9.544  0.7446 -0.9589 -1.8145
   61CHL1    C8 6934   0.711   1.750   9.527  0.4252 -0.6340  0.9695
   61CHL1    H8 6935   0.612   1.710   9.560 -1.5032  3.3169  0.6588
   61CHL1   C14 6936   0.699   1.771   9.372  0.1122 -0.5430 -0.2937
   61CHL1   H14 6937   0.804   1.791   9.340  1.1038  0.6151  3.1549
   61CHL1   C15 6938   0.614   1.885   9.316  0.0070  0.1002 -0.1128
   61CHL1  H15A 6939   0.516   1.887   9.369  0.0317  0.6723 -0.0837
   61CHL1  H15B 6940   0.654   1.988   9.316 -2.1032  0.9774  0.2204
   61CHL1   C16 6941   0.580   1.833   9.177  0.4365 -0.7619 -0.5729
   61CHL1  H16A 6942   0.470   1.829   9.166  0.3807  1.6886 -1.4635
   61CHL1  H16B 6943   0.619   1.912   9.109 -0.0157  0.9266  1.0385
   61CHL1   C17 6944   0.653   1.697   9.157 -0.1662  0.2656 -0.3554
   61CHL1   H17 6945   0.758   1.723   9.130  0.3844 -0.4514  1.0072
   61CHL1   C13 6946   0.669   1.638   9.298 -0.3457  0.2611 -0.5636
   61CHL1   C18 6947   0.545   1.582   9.351 -0.4240  0.9566 -0.0707
   61CHL1  H18A 6948   0.465   1.659   9.356 -0.8843  0.4570  0.5064
   61CHL1  H18B 6949   0.516   1.497   9.286  3.4243 -0.6444  0.0816
   61CHL1  H18C 6950   0.559   1.546   9.455  2.4032  3.2731  0.4473
   61CHL1   C12 6951   0.781   1.537   9.328  0.8735 -0.2189  0.5054
   61CHL1  H12A 6952   0.769   1.440   9.276 -1.7868  0.4831 -0.3496
   61CHL1  H12B 6953   0.873   1.584   9.287 -0.1626 -1.1539 -3.2632
   61CHL1   C11 6954   0.801   1.521   9.483 -0.3351  0.5004  0.0839
   61CHL1  H11A 6955   0.712   1.464   9.518 -0.4844  0.4384 -0.3932
   61CHL1  H11B 6956   0.886   1.450   9.497 -0.6277 -0.2580 -1.7551
   61CHL1    C9 6957   0.817   1.647   9.561  0.5056 -0.3672  0.2535
   61CHL1    H9 6958   0.914   1.694   9.533  0.8055 -0.3885  1.2313
   61CHL1   C10 6959   0.830   1.628   9.716 -0.2474  0.5352  0.3827
   61CHL1   C19 6960   0.715   1.543   9.764 -0.0227 -0.4266  0.0228
   61CHL1  H19A 6961   0.611   1.576   9.744 -0.7859 -1.9849  1.1696
   61CHL1  H19B 6962   0.720   1.439   9.727  0.9031 -0.5096  0.3532
   61CHL1  H19C 6963   0.716   1.533   9.875 -1.4753  1.0229  0.2036
   61CHL1    C1 6964   0.961   1.547   9.741 -0.6718  0.4333  0.0574
   61CHL1   H1A 6965   0.954   1.441   9.709  0.1352  0.3931 -0.0028
   61CHL1   H1B 6966   1.042   1.596   9.682  0.6573 -0.9054  0.7132
   61CHL1    C2 6967   1.014   1.551   9.886 -0.5576  0.3295  0.7751
   61CHL1   H2A 6968   1.113   1.501   9.891 -0.9681 -0.4475  1.3292
   61CHL1   H2B 6969   0.958   1.484   9.955 -0.9635 -0.8745 -0.6769
   61CHL1   C20 6970   0.583   1.608   9.043  0.8980  0.4375  0.2921
   61CHL1   H20 6971   0.477   1.586   9.069 -0.0451 -0.4026 -3.5657
   61CHL1   C21 6972   0.650   1.467   9.026 -0.1677  0.1253  0.0618
   61CHL1  H21A 6973   0.639   1.394   9.108 -0.2589 -0.1503 -0.1938
   61CHL1  H21B 6974   0.760   1.479   9.012  0.1838  0.9038  2.8495
   61CHL1  H21C 6975   0.606   1.422   8.934 -0.1085 -0.7833  0.4775
   61CHL1   C22 6976   0.553   1.676   8.914  0.3119 -0.2990 -0.3179
   61CHL1  H22A 6977   0.522   1.598   8.841  0.7467 -2.2032  1.4198
   61CHL1  H22B 6978   0.476   1.756   8.923  0.0513 -0.3956 -1.4701
   61CHL1   C23 6979   0.674   1.751   8.854  0.2992 -0.1431 -0.0512
   61CHL1  H23A 6980   0.721   1.804   8.939  1.1800 -0.2779 -0.4468
   61CHL1  H23B 6981   0.746   1.671   8.826 -0.9264 -0.9161 -1.1215
   61CHL1   C24 6982   0.638   1.846   8.737 -0.6855  0.0820  0.0746
   61CHL1  H24A 6983   0.588   1.788   8.656 -1.0185  0.9625 -0.3580
   61CHL1  H24B 6984   0.571   1.931   8.762  0.0173  0.5005  0.5701
   61CHL1   C25 6985   0.756   1.920   8.677  0.4513  0.7918 -0.7751
   61CHL1   H25 6986   0.832   1.848   8.640 -1.3106 -0.7554 -1.5609
   61CHL1   C26 6987   0.718   1.997   8.545 -0.5068  0.4550 -0.4206
   61CHL1  H26A 6988   0.662   1.929   8.478  0.4136 -0.6820 -0.0648
   61CHL1  H26B 6989   0.648   2.080   8.571 -0.0237  0.2164  1.8205
   61CHL1  H26C 6990   0.809   2.040   8.498  0.1125 -0.5154 -0.1252
   61CHL1   C27 6991   0.816   2.023   8.782  0.4051  0.2591 -0.0414
   61CHL1  H27A 6992   0.820   1.976   8.882  0.1186 -1.9649 -1.0241
   61CHL1  H27B 6993   0.924   2.043   8.763  0.0848  0.6695 -1.5842
   61CHL1  H27C 6994   0.763   2.120   8.775  2.7364  1.6906  0.8270
   62CHL1    C3 6995   2.756   4.694   9.806  0.5254  0.6308  0.2882
   62CHL1    H3 6996   2.717   4.592   9.785 -1.7954  1.6399 -0.6589
   62CHL1    O3 6997   2.765   4.714   9.947  0.0444  0.0616  0.0401
   62CHL1   H3' 6998   2.729   4.802   9.963 -0.4475 -0.2228  0.4954
   62CHL1    C4 6999   2.901   4.712   9.756  0.0294 -0.4914  0.0251
   62CHL1   H4A 7000   2.940   4.808   9.797 -2.8932 -0.0280  1.9564
   62CHL1   H4B 7001   2.975   4.642   9.801  0.1382  0.2767  1.1000
   62CHL1    C5 7002   2.916   4.707   9.604 -0.1250  0.2478 -0.6682
   62CHL1    C6 7003   3.014   4.635   9.544  0.0412  0.1864  0.1379
   62CHL1    H6 7004   3.083   4.587   9.615  0.7624  0.0879 -0.6059
   62CHL1    C7 7005   3.048   4.620   9.397  1.1550 -1.2750  0.0886
   62CHL1   H7A 7006   3.154   4.651   9.386  0.6562  1.0227  1.3300
   62CHL1   H7B 7007   3.038   4.517   9.355  1.0581 -1.4523  0.5490
   62CHL1    C8 7008   2.964   4.721   9.312  0.0337 -0.1337 -0.6787
   62CHL1    H8 7009   3.015   4.820   9.315  0.6020 -0.4331  1.9860
   62CHL1   C14 7010   2.948   4.668   9.167  0.3621 -0.8819  0.8022
   62CHL1   H14 7011   2.891   4.574   9.178 -0.0756 -0.7090  0.0983
   62CHL1   C15 7012   3.073   4.625   9.090  0.3422  0.0760 -0.6806
   62CHL1  H15A 7013   3.157   4.697   9.100  0.5604  0.0207 -1.9260
   62CHL1  H15B 7014   3.118   4.530   9.125  1.0479  0.4342 -0.5989
   62CHL1   C16 7015   3.029   4.616   8.945  0.4971  0.3941  0.1182
   62CHL1  H16A 7016   3.114   4.657   8.886  2.5850 -2.9640  0.5148
   62CHL1  H16B 7017   3.015   4.512   8.908 -0.2621  0.3687  0.4566
   62CHL1   C17 7018   2.894   4.692   8.934  0.7203 -0.8146 -0.1136
   62CHL1   H17 7019   2.811   4.618   8.925 -1.3386  1.3840 -0.1500
   62CHL1   C13 7020   2.873   4.760   9.073  0.6888  0.3845 -0.1183
   62CHL1   C18 7021   2.928   4.903   9.070  0.4251  0.1406  0.5120
   62CHL1  H18A 7022   2.944   4.939   9.174 -0.0285 -1.3412  1.1167
   62CHL1  H18B 7023   3.022   4.903   9.011  0.8159 -0.6407  1.1261
   62CHL1  H18C 7024   2.860   4.966   9.008  1.8780  2.3232  0.9999
   62CHL1   C12 7025   2.723   4.769   9.125 -1.3525 -0.3975  0.5363
   62CHL1  H12A 7026   2.673   4.856   9.076  0.8589  1.0428  0.7000
   62CHL1  H12B 7027   2.677   4.669   9.110  0.4065 -1.2537  0.5752
   62CHL1   C11 7028   2.726   4.812   9.276  0.4965  0.3870  0.7464
   62CHL1  H11A 7029   2.742   4.921   9.290  1.5622  0.2635  0.5602
   62CHL1  H11B 7030   2.628   4.786   9.322 -0.0923 -2.4548 -1.7482
   62CHL1    C9 7031   2.824   4.742   9.374  0.2810  0.3578  0.5927
   62CHL1    H9 7032   2.788   4.637   9.376  1.6393 -0.1246  0.7211
   62CHL1   C10 7033   2.817   4.780   9.526 -0.4428 -0.4480 -0.9939
   62CHL1   C19 7034   2.838   4.937   9.536  0.0529 -0.1932  0.0833
   62CHL1  H19A 7035   2.745   4.994   9.517 -0.0240 -0.2504  0.2836
   62CHL1  H19B 7036   2.881   4.960   9.636  0.6206  1.5115 -0.5222
   62CHL1  H19C 7037   2.913   4.974   9.463 -0.9245  0.4809 -0.6123
   62CHL1    C1 7038   2.676   4.758   9.584 -1.0868  0.6152 -0.9939
   62CHL1   H1A 7039   2.602   4.822   9.532 -1.5088  0.7650 -0.2294
   62CHL1   H1B 7040   2.643   4.653   9.570  2.8860 -0.8724 -0.4613
   62CHL1    C2 7041   2.667   4.791   9.731  1.0214 -0.0321 -0.0872
   62CHL1   H2A 7042   2.559   4.778   9.752  0.3713  1.6086 -2.0824
   62CHL1   H2B 7043   2.698   4.897   9.741 -1.0064  0.7591 -1.5984
   62CHL1   C20 7044   2.873   4.780   8.805 -0.7433 -0.7395  0.1084
   62CHL1   H20 7045   2.937   4.870   8.816 -0.9463 -0.3862 -1.3834
   62CHL1   C21 7046   2.731   4.822   8.804 -0.2412 -0.0237  0.5199
   62CHL1  H21A 7047   2.703   4.873   8.710  0.1887 -1.2201 -0.2817
   62CHL1  H21B 7048   2.706   4.897   8.882 -0.1606  1.2025 -0.6111
   62CHL1  H21C 7049   2.658   4.738   8.808 -0.7129  0.1884 -2.1717
   62CHL1   C22 7050   2.914   4.701   8.676 -0.1774 -0.1931  0.2530
   62CHL1  H22A 7051   3.025   4.696   8.677 -0.1338  0.6891  0.7359
   62CHL1  H22B 7052   2.867   4.600   8.675 -0.9464  0.1433  1.1399
   62CHL1   C23 7053   2.893   4.759   8.538 -0.7367  0.0159 -0.5149
   62CHL1  H23A 7054   2.890   4.674   8.466  0.7611 -0.7397  0.2567
   62CHL1  H23B 7055   2.791   4.802   8.530 -1.7103 -2.0804 -0.2414
   62CHL1   C24 7056   2.996   4.872   8.512 -0.3505  0.7800  0.1301
   62CHL1  H24A 7057   2.989   4.951   8.589 -0.1948 -0.4473  1.4331
   62CHL1  H24B 7058   3.097   4.824   8.516 -0.5719  0.3639  0.9096
   62CHL1   C25 7059   2.989   4.945   8.372 -0.1050 -0.4552 -0.1999
   62CHL1   H25 7060   3.077   5.011   8.359 -0.0489 -0.8652 -2.1990
   62CHL1   C26 7061   2.993   4.843   8.262 -0.1071 -0.3967  0.4016
   62CHL1  H26A 7062   3.018   4.891   8.165  0.7871  0.0139  0.8274
   62CHL1  H26B 7063   3.073   4.770   8.285 -2.2267 -2.5286  1.4268
   62CHL1  H26C 7064   2.900   4.782   8.254  0.6368 -1.6965  1.4331
   62CHL1   C27 7065   2.866   5.034   8.379  0.8694 -0.3386 -0.4658
   62CHL1  H27A 7066   2.825   5.080   8.286  1.5920  1.2213 -0.0436
   62CHL1  H27B 7067   2.781   4.985   8.430  0.5080  1.3312  0.6186
   62CHL1  H27C 7068   2.876   5.124   8.442  0.1926 -0.8416  0.3772
   63CHL1    C3 7069   5.317   6.216   9.950 -0.0484  0.6505 -0.0593
   63CHL1    H3 7070   5.426   6.219   9.971  0.3094  1.4251 -1.8555
   63CHL1    O3 7071   5.262   6.180  10.076 -0.4785  0.0316  0.4144
   63CHL1   H3' 7072   5.329   6.210  10.139  0.8124 -0.5136 -0.6636
   63CHL1    C4 7073   5.261   6.349   9.901 -0.0257  0.0615  0.3303
   63CHL1   H4A 7074   5.150   6.360   9.903  0.0369  0.6015  0.8901
   63CHL1   H4B 7075   5.286   6.432   9.970  1.1661  1.4510 -1.7022
   63CHL1    C5 7076   5.315   6.385   9.764  0.1116  0.7747 -0.1138
   63CHL1    C6 7077   5.386   6.496   9.742  0.2886 -0.3093  0.5915
   63CHL1    H6 7078   5.405   6.570   9.821  0.7060  2.3420 -1.8140
   63CHL1    C7 7079   5.414   6.540   9.608  0.3977 -0.2441  0.6960
   63CHL1   H7A 7080   5.389   6.648   9.598  0.2817 -0.3160  0.1768
   63CHL1   H7B 7081   5.524   6.537   9.591  0.1680 -1.3346 -0.8082
   63CHL1    C8 7082   5.343   6.461   9.490  0.4229  0.4001 -0.7800
   63CHL1    H8 7083   5.239   6.500   9.494 -0.1741 -0.9597  4.4181
   63CHL1   C14 7084   5.410   6.488   9.360 -0.8090 -0.1199 -0.3413
   63CHL1   H14 7085   5.510   6.440   9.367  0.4919  2.4839  0.3966
   63CHL1   C15 7086   5.429   6.629   9.317  0.3486 -0.2009 -0.0296
   63CHL1  H15A 7087   5.344   6.697   9.340  0.9728  0.7526 -0.4960
   63CHL1  H15B 7088   5.514   6.678   9.369  0.7780  1.1756 -1.9272
   63CHL1   C16 7089   5.452   6.622   9.163 -0.1783 -0.6485  0.3165
   63CHL1  H16A 7090   5.382   6.692   9.112 -3.6096 -1.1938  3.7944
   63CHL1  H16B 7091   5.559   6.647   9.151 -0.0160 -1.3049  0.3377
   63CHL1   C17 7092   5.433   6.465   9.125  0.6083 -0.0996  0.4468
   63CHL1   H17 7093   5.536   6.423   9.128  1.2726  1.4437  0.3560
   63CHL1   C13 7094   5.354   6.407   9.243 -0.1098  0.3579  0.1767
   63CHL1   C18 7095   5.207   6.437   9.221  0.1853  0.2362 -0.0310
   63CHL1  H18A 7096   5.167   6.378   9.136 -0.1425 -0.1515  0.3842
   63CHL1  H18B 7097   5.145   6.421   9.313  0.9994  1.1138  0.6894
   63CHL1  H18C 7098   5.191   6.543   9.194  0.8756  0.2236 -0.5147
   63CHL1   C12 7099   5.377   6.261   9.275 -0.8428 -0.1748 -0.5135
   63CHL1  H12A 7100   5.351   6.196   9.188 -1.3296  0.3296 -0.7501
   63CHL1  H12B 7101   5.486   6.244   9.284 -1.0006 -0.9161  0.0811
   63CHL1   C11 7102   5.314   6.219   9.400 -0.0215  0.2232 -0.2028
   63CHL1  H11A 7103   5.204   6.213   9.384 -0.1000  0.3379  0.2782
   63CHL1  H11B 7104   5.353   6.121   9.433  0.6446  1.4738  3.0437
   63CHL1    C9 7105   5.349   6.312   9.519  0.0985  0.0148  0.4969
   63CHL1    H9 7106   5.456   6.301   9.548 -0.1501 -0.7603  1.1728
   63CHL1   C10 7107   5.283   6.283   9.659 -0.0001 -0.0396  0.7497
   63CHL1   C19 7108   5.124   6.281   9.627 -0.3346 -0.1331 -0.6720
   63CHL1  H19A 7109   5.077   6.267   9.726  1.5672  1.6793  0.5824
   63CHL1  H19B 7110   5.094   6.385   9.601  1.2600  0.6977  0.6211
   63CHL1  H19C 7111   5.101   6.200   9.554  2.5742 -0.9563 -0.8149
   63CHL1    C1 7112   5.337   6.144   9.705 -0.0916  0.5351 -0.4542
   63CHL1   H1A 7113   5.314   6.067   9.628 -0.8052  0.0237  0.2546
   63CHL1   H1B 7114   5.446   6.138   9.720 -0.3687 -5.1486  2.0922
   63CHL1    C2 7115   5.281   6.109   9.848  0.7598 -0.0103  0.3291
   63CHL1   H2A 7116   5.325   6.014   9.885  3.8750  0.3449 -2.0580
   63CHL1   H2B 7117   5.170   6.108   9.848  0.5972  3.5900  1.4893
   63CHL1   C20 7118   5.382   6.443   8.980 -0.5932  0.1820 -0.5935
   63CHL1   H20 7119   5.284   6.492   8.962  0.9964  3.9887  0.2240
   63CHL1   C21 7120   5.370   6.296   8.951 -0.0536 -0.6209 -0.3466
   63CHL1  H21A 7121   5.460   6.236   8.978 -1.1223 -2.4325 -0.6268
   63CHL1  H21B 7122   5.347   6.276   8.844  2.2440 -1.0465 -0.8070
   63CHL1  H21C 7123   5.289   6.246   9.009 -0.6973 -1.4349 -1.8738
   63CHL1   C22 7124   5.477   6.507   8.870  0.2261 -0.4016 -0.0541
   63CHL1  H22A 7125   5.434   6.486   8.769  0.1007 -1.8962  0.2901
   63CHL1  H22B 7126   5.472   6.618   8.874 -0.5328 -0.4547  0.8736
   63CHL1   C23 7127   5.632   6.473   8.887 -0.0380  0.3278 -0.4503
   63CHL1  H23A 7128   5.677   6.511   8.981  0.8075  0.0412 -0.7377
   63CHL1  H23B 7129   5.633   6.363   8.893  0.3630  0.3690  0.3720
   63CHL1   C24 7130   5.715   6.509   8.759 -0.0967  0.1398 -0.0807
   63CHL1  H24A 7131   5.818   6.500   8.798 -0.5924  2.1215  1.9003
   63CHL1  H24B 7132   5.698   6.443   8.671 -0.3185 -0.0150  0.0766
   63CHL1   C25 7133   5.710   6.657   8.720  0.1176 -1.0526  0.4827
   63CHL1   H25 7134   5.611   6.676   8.674 -0.4294 -3.2126  0.6787
   63CHL1   C26 7135   5.730   6.746   8.843 -1.2272 -0.8090  0.1189
   63CHL1  H26A 7136   5.822   6.712   8.894  0.5108  0.2653 -2.1305
   63CHL1  H26B 7137   5.751   6.849   8.807  3.0695 -0.7460  2.2244
   63CHL1  H26C 7138   5.650   6.751   8.920 -2.5819  2.2978 -1.2927
   63CHL1   C27 7139   5.824   6.695   8.611 -0.2927 -0.2687  0.5910
   63CHL1  H27A 7140   5.800   6.797   8.573 -1.2468 -0.0743  1.6760
   63CHL1  H27B 7141   5.922   6.695   8.664  0.3791 -0.2677 -0.6064
   63CHL1  H27C 7142   5.816   6.627   8.524 -0.3139 -0.7252  0.9506
   64CHL1    C3 7143   4.744   4.907   9.902  0.4567 -0.0144  0.7430
   64CHL1    H3 7144   4.636   4.931   9.904  0.7056  1.1721  1.0635
   64CHL1    O3 7145   4.789   4.898  10.037 -0.1571  0.0872 -0.0593
   64CHL1   H3' 7146   4.748   4.821  10.077  0.2872 -0.3884 -0.5126
   64CHL1    C4 7147   4.798   4.783   9.818  0.1189 -0.4567 -0.6792
   64CHL1   H4A 7148   4.899   4.772   9.863 -0.2806 -2.6610 -0.1925
   64CHL1   H4B 7149   4.750   4.692   9.860  0.2979 -0.7552 -1.1075
   64CHL1    C5 7150   4.798   4.792   9.669 -0.3944 -0.0532 -0.4524
   64CHL1    C6 7151   4.737   4.695   9.601  0.4616  0.2776 -0.4782
   64CHL1    H6 7152   4.706   4.603   9.652  1.1542  0.1922 -0.1937
   64CHL1    C7 7153   4.728   4.693   9.454  0.9536 -0.1191  0.7880
   64CHL1   H7A 7154   4.737   4.588   9.418 -1.4146 -0.1488  0.1364
   64CHL1   H7B 7155   4.625   4.718   9.424  0.8031 -2.4935 -1.0240
   64CHL1    C8 7156   4.816   4.792   9.381 -0.4630 -0.1356 -0.8104
   64CHL1    H8 7157   4.915   4.742   9.371 -0.6894 -1.6934  3.0484
   64CHL1   C14 7158   4.762   4.831   9.245 -0.2059  0.4667  0.2082
   64CHL1   H14 7159   4.667   4.887   9.255 -1.1872 -0.7402 -1.7265
   64CHL1   C15 7160   4.724   4.718   9.149  0.2386  0.8824  0.3120
   64CHL1  H15A 7161   4.802   4.640   9.153 -1.5532 -0.9599  1.3352
   64CHL1  H15B 7162   4.633   4.661   9.179  0.0413  0.7623 -0.4913
   64CHL1   C16 7163   4.714   4.784   9.015 -0.0557  0.2366  0.0604
   64CHL1  H16A 7164   4.778   4.739   8.936  0.2182 -0.3467  0.6005
   64CHL1  H16B 7165   4.610   4.800   8.980 -0.5992 -0.3352  1.3415
   64CHL1   C17 7166   4.788   4.929   9.028  0.3791 -0.1819  0.4290
   64CHL1   H17 7167   4.697   4.991   9.046 -0.1217 -0.3674 -1.2473
   64CHL1   C13 7168   4.858   4.919   9.165 -0.5061 -0.3999 -0.2760
   64CHL1   C18 7169   4.995   4.849   9.147 -0.2566 -0.5760  0.6666
   64CHL1  H18A 7170   5.067   4.904   9.082 -1.2883 -0.6099 -0.5336
   64CHL1  H18B 7171   5.054   4.843   9.241  0.9159 -1.4062 -0.0996
   64CHL1  H18C 7172   4.999   4.745   9.108 -0.7689 -0.8589  1.3436
   64CHL1   C12 7173   4.878   5.049   9.242  0.2863 -0.2529 -0.1479
   64CHL1  H12A 7174   4.953   5.108   9.184  1.5531 -0.9186  0.7750
   64CHL1  H12B 7175   4.775   5.092   9.242  0.5339  0.4092  1.1847
   64CHL1   C11 7176   4.929   5.026   9.390  0.6153  0.6169  0.2827
   64CHL1  H11A 7177   5.029   4.980   9.378 -0.9167 -2.3267 -2.6981
   64CHL1  H11B 7178   4.937   5.124   9.443 -1.1593  0.9354  0.0229
   64CHL1    C9 7179   4.834   4.926   9.460 -0.3292 -0.4748  0.3427
   64CHL1    H9 7180   4.735   4.976   9.453 -0.0555 -0.1071 -1.5020
   64CHL1   C10 7181   4.853   4.921   9.611  0.4034  0.2970 -0.4436
   64CHL1   C19 7182   5.009   4.909   9.628  0.3392 -0.3051  0.0842
   64CHL1  H19A 7183   5.060   5.006   9.614  1.7856 -0.6479  2.4305
   64CHL1  H19B 7184   5.038   4.887   9.733  1.3554  0.6266  0.0134
   64CHL1  H19C 7185   5.045   4.828   9.561  0.7128  0.9714 -1.3198
   64CHL1    C1 7186   4.799   5.042   9.694 -0.6612  1.5224  0.3310
   64CHL1   H1A 7187   4.865   5.126   9.662 -0.1238  0.6633 -0.9150
   64CHL1   H1B 7188   4.696   5.055   9.656  0.3925 -0.3517 -3.7338
   64CHL1    C2 7189   4.807   5.037   9.840  0.2284 -0.2828 -1.1271
   64CHL1   H2A 7190   4.768   5.131   9.884  1.4984 -0.6680  0.9820
   64CHL1   H2B 7191   4.914   5.036   9.871 -0.7525  0.4633  2.7357
   64CHL1   C20 7192   4.839   4.994   8.899 -0.9349 -0.0702 -0.0304
   64CHL1   H20 7193   4.950   4.994   8.895 -0.7333  1.7537  2.8493
   64CHL1   C21 7194   4.809   5.152   8.900  0.1358  0.6778  0.8367
   64CHL1  H21A 7195   4.831   5.202   8.997  0.1564 -0.9146  1.7055
   64CHL1  H21B 7196   4.700   5.159   8.881  0.3282 -2.1629 -2.2039
   64CHL1  H21C 7197   4.857   5.205   8.815  1.8681 -1.4407  0.4015
   64CHL1   C22 7198   4.787   4.933   8.763 -0.4997 -0.2404 -0.0850
   64CHL1  H22A 7199   4.800   4.823   8.755  0.0879 -0.1923  0.1587
   64CHL1  H22B 7200   4.679   4.956   8.771 -0.0915  2.0241 -0.4292
   64CHL1   C23 7201   4.856   4.993   8.637  0.0917 -0.0806  0.1503
   64CHL1  H23A 7202   4.885   5.101   8.634  2.2858 -0.4150  3.2854
   64CHL1  H23B 7203   4.950   4.934   8.628  0.1972  0.1355 -0.1670
   64CHL1   C24 7204   4.769   4.979   8.516 -0.4564  0.2720  0.0793
   64CHL1  H24A 7205   4.743   4.871   8.512  1.5017 -0.3169  1.5081
   64CHL1  H24B 7206   4.677   5.039   8.533 -0.2025  0.2864  1.5052
   64CHL1   C25 7207   4.830   5.038   8.383  0.8062 -0.5423  0.5763
   64CHL1   H25 7208   4.849   5.148   8.381 -0.8531 -0.2391 -1.1481
   64CHL1   C26 7209   4.958   4.970   8.341  0.4480 -0.1417  0.2783
   64CHL1  H26A 7210   4.989   5.010   8.242 -0.8607  0.3166  0.0342
   64CHL1  H26B 7211   5.043   4.991   8.409  0.4207  2.3281 -0.3771
   64CHL1  H26C 7212   4.941   4.860   8.330 -1.9581  0.1564  0.3849
   64CHL1   C27 7213   4.717   5.011   8.266 -0.6818  0.0103 -0.5173
   64CHL1  H27A 7214   4.704   4.901   8.255  1.2683 -0.3290  0.2055
   64CHL1  H27B 7215   4.629   5.057   8.317  0.1466  0.3276  0.6656
   64CHL1  H27C 7216   4.754   5.057   8.172 -2.0027  2.5037  0.0843
   65CHL1    C3 7217   4.293   3.821  10.211  0.5900  0.1817 -0.7264
   65CHL1    H3 7218   4.289   3.713  10.182  1.1003 -0.0101 -0.0951
   65CHL1    O3 7219   4.336   3.832  10.342  0.0394 -0.7935  0.4484
   65CHL1   H3' 7220   4.264   3.810  10.401  0.7247  0.9430  2.0257
   65CHL1    C4 7221   4.389   3.893  10.115  0.6949  0.3846  0.4625
   65CHL1   H4A 7222   4.392   4.004  10.124  1.6131  0.3145  1.2484
   65CHL1   H4B 7223   4.493   3.858  10.135 -0.4637 -2.4623  1.9603
   65CHL1    C5 7224   4.343   3.874   9.974  0.9696  0.0047  0.2799
   65CHL1    C6 7225   4.418   3.820   9.872  0.7910 -0.6356 -0.0235
   65CHL1    H6 7226   4.524   3.796   9.890  1.1487  1.5630  1.1733
   65CHL1    C7 7227   4.383   3.816   9.723 -0.0856  0.3107  0.0048
   65CHL1   H7A 7228   4.461   3.848   9.651  0.8102 -2.0174 -0.1122
   65CHL1   H7B 7229   4.376   3.707   9.707  1.1663  0.0921  0.8861
   65CHL1    C8 7230   4.253   3.895   9.694 -0.1447 -0.3105  0.0982
   65CHL1    H8 7231   4.298   3.997   9.694  0.5863 -0.6025  1.7067
   65CHL1   C14 7232   4.199   3.857   9.565 -0.1037  0.5459  0.6966
   65CHL1   H14 7233   4.160   3.753   9.571 -0.0529  0.5961  2.6082
   65CHL1   C15 7234   4.291   3.866   9.437  0.6702  0.8936  0.5134
   65CHL1  H15A 7235   4.361   3.951   9.451  2.0953 -0.0063 -0.9249
   65CHL1  H15B 7236   4.355   3.776   9.431  2.0351  1.8551  0.2666
   65CHL1   C16 7237   4.198   3.873   9.321 -0.8438 -0.3117 -0.2160
   65CHL1  H16A 7238   4.223   3.969   9.269 -1.1474  1.8723  3.3480
   65CHL1  H16B 7239   4.205   3.790   9.248  0.7518 -0.8170  0.4836
   65CHL1   C17 7240   4.054   3.876   9.381  1.0916 -0.0292  0.5160
   65CHL1   H17 7241   4.011   3.773   9.386  2.4718 -0.6815 -0.3288
   65CHL1   C13 7242   4.068   3.929   9.522  0.4019  0.2677  0.4703
   65CHL1   C18 7243   4.088   4.086   9.513  0.1314 -0.7910  0.7569
   65CHL1  H18A 7244   3.999   4.142   9.478  1.1639 -0.3983 -1.4532
   65CHL1  H18B 7245   4.118   4.128   9.611 -0.3402  0.5497  0.3505
   65CHL1  H18C 7246   4.167   4.114   9.440 -0.3559  1.2451  0.9527
   65CHL1   C12 7247   3.964   3.901   9.631  0.2231 -0.4285 -0.0134
   65CHL1  H12A 7248   3.869   3.956   9.611  0.2944 -0.3427 -0.1213
   65CHL1  H12B 7249   3.950   3.791   9.621  0.2250 -0.5576  1.2892
   65CHL1   C11 7250   4.008   3.939   9.774 -0.8640  0.4126 -0.3497
   65CHL1  H11A 7251   4.002   4.049   9.781 -1.1148  0.3134  1.6426
   65CHL1  H11B 7252   3.929   3.904   9.844  0.0235  0.3701  0.6507
   65CHL1    C9 7253   4.145   3.877   9.810 -0.2613 -0.6132 -0.1501
   65CHL1    H9 7254   4.128   3.768   9.818  0.0181 -0.6466  0.0008
   65CHL1   C10 7255   4.195   3.917   9.949  0.2382  0.5002 -0.3475
   65CHL1   C19 7256   4.196   4.074   9.959 -0.9483 -0.0216 -0.2324
   65CHL1  H19A 7257   4.233   4.107   9.860  1.7585 -2.7684 -0.2971
   65CHL1  H19B 7258   4.091   4.108   9.974 -0.6813  0.1983  1.2286
   65CHL1  H19C 7259   4.250   4.109  10.049  0.8894 -0.6591 -1.0458
   65CHL1    C1 7260   4.104   3.854  10.055 -0.6873  0.1820 -0.3154
   65CHL1   H1A 7261   3.999   3.889  10.045 -1.3883 -0.5815  3.1402
   65CHL1   H1B 7262   4.098   3.743  10.045 -0.0009  0.2606 -2.1130
   65CHL1    C2 7263   4.146   3.876  10.204 -0.6581 -0.3527 -0.3718
   65CHL1   H2A 7264   4.080   3.819  10.273 -2.1261 -0.8693 -2.1149
   65CHL1   H2B 7265   4.139   3.983  10.232  0.1899 -0.7313  1.4420
   65CHL1   C20 7266   3.956   3.942   9.279  0.5523  0.7270  0.8142
   65CHL1   H20 7267   3.989   4.044   9.252 -2.4452  1.3923 -0.7778
   65CHL1   C21 7268   3.814   3.961   9.338 -0.5753 -0.4678 -0.9084
   65CHL1  H21A 7269   3.743   3.991   9.258 -0.8277  2.6908  0.3849
   65CHL1  H21B 7270   3.803   4.048   9.406 -0.6959 -0.8098 -0.4828
   65CHL1  H21C 7271   3.778   3.872   9.394 -1.4237 -1.2381 -2.5932
   65CHL1   C22 7272   3.932   3.862   9.144  0.1415  0.1431 -0.1702
   65CHL1  H22A 7273   4.034   3.837   9.108 -0.2031 -2.7180  0.5659
   65CHL1  H22B 7274   3.892   3.763   9.174  1.4870 -0.9605 -1.8143
   65CHL1   C23 7275   3.849   3.916   9.028  0.2087  0.0554  0.5067
   65CHL1  H23A 7276   3.748   3.938   9.068  0.3498  0.4693  0.6392
   65CHL1  H23B 7277   3.876   4.021   9.001 -0.0799 -0.1993 -0.8423
   65CHL1   C24 7278   3.840   3.825   8.902  0.0891  1.0531  0.4744
   65CHL1  H24A 7279   3.941   3.825   8.855  0.6592 -0.9263  1.5973
   65CHL1  H24B 7280   3.810   3.725   8.938 -0.4873  1.3986  0.9738
   65CHL1   C25 7281   3.734   3.869   8.805 -0.4125  0.7142  0.0146
   65CHL1   H25 7282   3.735   3.979   8.786  0.0513  0.7902  0.4610
   65CHL1   C26 7283   3.752   3.794   8.666  0.0791  0.8663  0.3460
   65CHL1  H26A 7284   3.860   3.805   8.641  0.9303 -3.1318  1.5285
   65CHL1  H26B 7285   3.737   3.685   8.677 -0.6972  0.9204 -0.0589
   65CHL1  H26C 7286   3.685   3.836   8.588  1.9063  1.7803 -0.8088
   65CHL1   C27 7287   3.598   3.825   8.853 -0.2044 -0.4001 -0.0108
   65CHL1  H27A 7288   3.579   3.718   8.874  0.0178 -0.3997  0.1931
   65CHL1  H27B 7289   3.583   3.869   8.954 -1.7448 -1.3566  0.2199
   65CHL1  H27C 7290   3.520   3.866   8.785 -0.6961  0.1897  0.8751
   66CHL1    C3 7291   3.560   6.315  10.227 -0.4162  0.4695  0.9072
   66CHL1    H3 7292   3.536   6.424  10.230 -1.5509  0.2401  0.7024
   66CHL1    O3 7293   3.585   6.255  10.352  0.1909  0.3860 -0.0812
   66CHL1   H3' 7294   3.501   6.214  10.373 -1.2342  2.5361 -1.1643
   66CHL1    C4 7295   3.444   6.235  10.165  0.4181 -0.6726 -0.2873
   66CHL1   H4A 7296   3.476   6.129  10.170 -1.2604 -1.1544  1.6242
   66CHL1   H4B 7297   3.366   6.234  10.244  1.2214 -1.6342  0.5058
   66CHL1    C5 7298   3.402   6.286  10.027  0.1712  1.3182 -0.3681
   66CHL1    C6 7299   3.271   6.311   9.999 -0.4244  0.1047 -0.0265
   66CHL1    H6 7300   3.192   6.296  10.074 -0.4565  1.2773  0.1868
   66CHL1    C7 7301   3.228   6.365   9.870 -0.1092 -0.2861  0.6221
   66CHL1   H7A 7302   3.137   6.319   9.825 -0.8028 -1.1357  2.7816
   66CHL1   H7B 7303   3.204   6.474   9.872 -1.1809 -0.4905 -0.0750
   66CHL1    C8 7304   3.333   6.349   9.755 -0.1247 -0.4501  0.2309
   66CHL1    H8 7305   3.334   6.243   9.721 -0.8475 -0.8305  1.3396
   66CHL1   C14 7306   3.296   6.435   9.631 -0.0951 -0.9138  0.0302
   66CHL1   H14 7307   3.303   6.532   9.685 -3.8169 -0.5665  0.1998
   66CHL1   C15 7308   3.158   6.421   9.567 -0.6786 -1.0360 -0.2485
   66CHL1  H15A 7309   3.116   6.319   9.567  0.6071 -1.7052  3.1119
   66CHL1  H15B 7310   3.092   6.492   9.622 -0.6855 -0.1717 -1.3478
   66CHL1   C16 7311   3.178   6.479   9.421  0.5763  0.1457 -0.0241
   66CHL1  H16A 7312   3.147   6.413   9.337  0.8639  1.9611 -1.6283
   66CHL1  H16B 7313   3.115   6.570   9.419  0.7639  0.2715 -0.2163
   66CHL1   C17 7314   3.328   6.518   9.408 -0.0369 -0.3918  0.0123
   66CHL1   H17 7315   3.336   6.614   9.463  0.5751 -0.8881  0.8102
   66CHL1   C13 7316   3.396   6.424   9.512  0.4511  0.1344  0.2036
   66CHL1   C18 7317   3.399   6.277   9.457  0.5967  0.4352 -0.1207
   66CHL1  H18A 7318   3.299   6.244   9.420  0.3285 -0.0705  1.0071
   66CHL1  H18B 7319   3.476   6.265   9.378  1.7298 -0.5482  1.1020
   66CHL1  H18C 7320   3.435   6.213   9.540  1.0809  1.2517  0.3111
   66CHL1   C12 7321   3.531   6.469   9.562  0.4373 -0.5063 -0.9728
   66CHL1  H12A 7322   3.607   6.459   9.482  0.7419 -3.2237 -0.4314
   66CHL1  H12B 7323   3.513   6.577   9.581 -1.2791 -1.1456  1.6713
   66CHL1   C11 7324   3.573   6.386   9.684 -0.9985 -0.2859  0.0043
   66CHL1  H11A 7325   3.593   6.283   9.649 -0.9511  0.1972 -1.4713
   66CHL1  H11B 7326   3.666   6.430   9.725 -0.0324 -0.2328 -2.0767
   66CHL1    C9 7327   3.479   6.385   9.801  0.2563 -0.5402 -0.2277
   66CHL1    H9 7328   3.469   6.488   9.842 -0.4982  0.3213 -2.4243
   66CHL1   C10 7329   3.520   6.308   9.932 -0.7597 -1.2324  1.0972
   66CHL1   C19 7330   3.587   6.173   9.884 -0.0635  0.2055 -0.1072
   66CHL1  H19A 7331   3.604   6.101   9.967  1.7154  0.2520 -0.4036
   66CHL1  H19B 7332   3.501   6.124   9.833 -0.9411  1.0394  0.5261
   66CHL1  H19C 7333   3.682   6.184   9.828 -0.0601  0.1781 -0.1058
   66CHL1    C1 7334   3.629   6.383  10.007 -0.2073 -0.8563  0.4683
   66CHL1   H1A 7335   3.722   6.401   9.949 -0.2257 -1.8615  0.1055
   66CHL1   H1B 7336   3.586   6.482  10.033  2.0872 -0.2800  2.4922
   66CHL1    C2 7337   3.680   6.325  10.139 -0.7665 -1.1578  0.3976
   66CHL1   H2A 7338   3.752   6.396  10.185 -0.3288 -0.7184 -0.9023
   66CHL1   H2B 7339   3.747   6.238  10.121  1.4822  0.5469  0.1260
   66CHL1   C20 7340   3.393   6.516   9.269  0.3464  0.6801  0.1713
   66CHL1   H20 7341   3.439   6.419   9.237  0.2638  0.7035 -0.0185
   66CHL1   C21 7342   3.500   6.628   9.255  0.2084 -0.6684 -0.5206
   66CHL1  H21A 7343   3.588   6.602   9.318  0.4659 -1.5865 -1.2305
   66CHL1  H21B 7344   3.465   6.728   9.287  1.6863 -0.3163  0.1026
   66CHL1  H21C 7345   3.528   6.651   9.149 -2.1831  0.7907 -0.9072
   66CHL1   C22 7346   3.283   6.529   9.160  0.4058 -0.1148 -0.0389
   66CHL1  H22A 7347   3.229   6.432   9.157 -2.7581  1.5388  0.2730
   66CHL1  H22B 7348   3.214   6.615   9.164 -1.6279 -1.5644 -1.6125
   66CHL1   C23 7349   3.336   6.525   9.011  0.6268 -0.2696 -0.3320
   66CHL1  H23A 7350   3.394   6.616   8.987  0.9416 -0.1620  0.7755
   66CHL1  H23B 7351   3.406   6.440   9.005 -0.2761 -0.9825 -1.0392
   66CHL1   C24 7352   3.210   6.517   8.917 -0.3004 -0.0292  0.2335
   66CHL1  H24A 7353   3.154   6.423   8.935 -0.9728  0.4406  0.6084
   66CHL1  H24B 7354   3.155   6.612   8.935  2.8478  2.2288 -1.0756
   66CHL1   C25 7355   3.246   6.512   8.764 -0.4777  0.0284  0.4879
   66CHL1   H25 7356   3.347   6.554   8.746 -0.1847 -0.9068 -0.1569
   66CHL1   C26 7357   3.248   6.363   8.730  0.6534 -0.4767  0.0483
   66CHL1  H26A 7358   3.321   6.302   8.788  0.2256 -1.1614 -0.1133
   66CHL1  H26B 7359   3.148   6.314   8.741  0.8065 -0.6821  0.6011
   66CHL1  H26C 7360   3.287   6.350   8.627 -2.0987 -2.1269 -0.9051
   66CHL1   C27 7361   3.145   6.592   8.686 -0.2038  0.1603  0.3544
   66CHL1  H27A 7362   3.165   6.605   8.578  1.5805  0.9049  0.7360
   66CHL1  H27B 7363   3.052   6.534   8.703  0.2867 -0.5434  0.6981
   66CHL1  H27C 7364   3.136   6.698   8.721  1.9638 -0.2722  2.4831
   67CHL1    C3 7365   0.790   2.204  10.134  0.5270 -0.3694  0.3815
   67CHL1    H3 7366   0.827   2.102  10.111  0.8798 -0.1215 -0.1654
   67CHL1    O3 7367   0.835   2.229  10.263 -0.2014 -0.2279  0.7234
   67CHL1   H3' 7368   0.817   2.322  10.276 -3.7089 -0.3483 -1.7737
   67CHL1    C4 7369   0.849   2.313  10.044  0.6945 -0.1051 -1.0273
   67CHL1   H4A 7370   0.821   2.415  10.078 -1.8353 -0.9296 -0.4102
   67CHL1   H4B 7371   0.959   2.302  10.054  0.4800 -1.5507  0.1774
   67CHL1    C5 7372   0.794   2.303   9.904  0.2739  0.2528  0.6820
   67CHL1    C6 7373   0.877   2.294   9.795  0.2580 -0.2184 -1.0744
   67CHL1    H6 7374   0.985   2.310   9.811  0.1411  0.7068 -1.1818
   67CHL1    C7 7375   0.833   2.285   9.652  0.9695  1.2648  1.4709
   67CHL1   H7A 7376   0.898   2.350   9.590  1.6551 -1.1323 -0.4584
   67CHL1   H7B 7377   0.840   2.182   9.612 -2.0738  1.2057  0.8225
   67CHL1    C8 7378   0.685   2.326   9.629 -0.5145  0.7998 -0.1643
   67CHL1    H8 7379   0.668   2.436   9.622  0.4140  0.8788 -1.8105
   67CHL1   C14 7380   0.627   2.266   9.501  0.3460 -0.1360  0.0589
   67CHL1   H14 7381   0.626   2.156   9.517 -2.2533  0.2800  4.0302
   67CHL1   C15 7382   0.711   2.306   9.381  0.1760 -0.0799 -0.0186
   67CHL1  H15A 7383   0.733   2.415   9.389  4.1696 -0.8356  1.9751
   67CHL1  H15B 7384   0.813   2.263   9.376  0.5876  0.9061 -0.4933
   67CHL1   C16 7385   0.611   2.302   9.262  0.2321 -0.4640  0.7105
   67CHL1  H16A 7386   0.606   2.402   9.214 -1.8471 -0.7412  0.2717
   67CHL1  H16B 7387   0.638   2.221   9.191 -0.9614  0.0256 -0.3419
   67CHL1   C17 7388   0.465   2.263   9.319  0.0739  0.3200 -0.3005
   67CHL1   H17 7389   0.464   2.152   9.324 -1.6691  0.3473  1.1366
   67CHL1   C13 7390   0.481   2.309   9.469  0.1670 -0.2722 -0.1272
   67CHL1   C18 7391   0.455   2.460   9.467 -0.7705 -0.3985 -0.7886
   67CHL1  H18A 7392   0.494   2.504   9.561 -0.3380 -0.3939 -0.9693
   67CHL1  H18B 7393   0.509   2.501   9.380  0.2640  2.3210  1.0009
   67CHL1  H18C 7394   0.349   2.490   9.449 -0.4381  1.0061 -0.5752
   67CHL1   C12 7395   0.392   2.244   9.580  0.1840  0.3345  0.6836
   67CHL1  H12A 7396   0.284   2.271   9.569  0.6213  2.4040  1.0667
   67CHL1  H12B 7397   0.404   2.133   9.578 -2.3854 -0.0052 -0.5669
   67CHL1   C11 7398   0.438   2.289   9.716  0.6082 -0.1788 -0.4100
   67CHL1  H11A 7399   0.404   2.392   9.738  0.4753 -0.1588 -0.7041
   67CHL1  H11B 7400   0.389   2.229   9.796  0.9902  0.8160  0.6009
   67CHL1    C9 7401   0.597   2.266   9.744  0.3196 -0.6366  0.6372
   67CHL1    H9 7402   0.604   2.156   9.738  0.9663 -0.8399  3.4648
   67CHL1   C10 7403   0.646   2.299   9.892  0.0108 -0.1056  0.8926
   67CHL1   C19 7404   0.595   2.449   9.914 -0.1993  0.5247 -0.1060
   67CHL1  H19A 7405   0.485   2.457   9.913 -0.1561  1.4651 -1.9081
   67CHL1  H19B 7406   0.624   2.477  10.017  0.8467  0.5827 -0.3951
   67CHL1  H19C 7407   0.651   2.520   9.849 -1.0602  1.7189  0.4373
   67CHL1    C1 7408   0.582   2.200   9.992  0.8015  0.7418 -0.4351
   67CHL1   H1A 7409   0.475   2.224  10.006  1.4376  2.7748  1.3925
   67CHL1   H1B 7410   0.599   2.091   9.972  0.1379  0.0717  2.3053
   67CHL1    C2 7411   0.634   2.218  10.136 -0.4042 -0.0400  0.0623
   67CHL1   H2A 7412   0.588   2.142  10.203 -1.3082  0.5981  0.1750
   67CHL1   H2B 7413   0.612   2.321  10.171  1.5347  1.0777 -1.7664
   67CHL1   C20 7414   0.351   2.309   9.229  0.3392  0.4789 -0.4990
   67CHL1   H20 7415   0.344   2.420   9.227 -1.6718  0.4527  1.0201
   67CHL1   C21 7416   0.222   2.267   9.304 -0.4499  0.5489  0.4411
   67CHL1  H21A 7417   0.209   2.336   9.390 -2.2833 -0.2804  0.8783
   67CHL1  H21B 7418   0.226   2.163   9.343 -1.2116  0.2316 -0.2994
   67CHL1  H21C 7419   0.131   2.282   9.242 -0.6351  0.6082  0.7282
   67CHL1   C22 7420   0.346   2.255   9.092  0.2286  0.4874  0.5925
   67CHL1  H22A 7421   0.422   2.174   9.084  1.3291  1.5255  0.1094
   67CHL1  H22B 7422   0.248   2.212   9.062 -0.0255  0.3334  1.6132
   67CHL1   C23 7423   0.394   2.361   8.983  0.3725 -0.1763 -0.3703
   67CHL1  H23A 7424   0.334   2.454   8.999  0.1356 -0.5333  0.9574
   67CHL1  H23B 7425   0.501   2.381   9.005 -0.2637  2.5980  0.6870
   67CHL1   C24 7426   0.383   2.297   8.846 -0.6040 -0.4162  0.2271
   67CHL1  H24A 7427   0.450   2.209   8.859 -0.5625 -0.3766  0.2799
   67CHL1  H24B 7428   0.279   2.262   8.828  0.2592 -2.3669 -1.4094
   67CHL1   C25 7429   0.419   2.388   8.723 -0.5627  0.1378  0.1026
   67CHL1   H25 7430   0.512   2.439   8.756 -0.6477  0.0331  0.5093
   67CHL1   C26 7431   0.453   2.311   8.595 -0.2518 -0.0918 -0.5299
   67CHL1  H26A 7432   0.489   2.376   8.512  2.2767  2.0893  2.0838
   67CHL1  H26B 7433   0.540   2.247   8.621 -0.3884 -1.2439 -2.6169
   67CHL1  H26C 7434   0.370   2.245   8.561 -0.5185 -0.4260  0.7321
   67CHL1   C27 7435   0.299   2.480   8.698 -0.4471 -0.2600  0.5513
   67CHL1  H27A 7436   0.243   2.438   8.612 -0.0447 -0.3475  0.3247
   67CHL1  H27B 7437   0.236   2.505   8.785 -2.8032  1.2535 -1.4669
   67CHL1  H27C 7438   0.350   2.568   8.654 -1.9214 -0.9863 -2.9849
   68CHL1    C3 7439   5.735   3.937  10.136 -0.0163  0.7270 -0.3672
   68CHL1    H3 7440   5.836   3.966  10.101  0.6577 -1.7545 -0.6991
   68CHL1    O3 7441   5.718   3.970  10.273 -0.3198 -0.0795  1.0471
   68CHL1   H3' 7442   5.675   4.055  10.273 -1.1385 -0.2801 -3.2739
   68CHL1    C4 7443   5.617   3.988  10.050 -0.1118 -0.1349 -0.2658
   68CHL1   H4A 7444   5.529   3.937  10.093 -0.0180  0.2039  0.3338
   68CHL1   H4B 7445   5.585   4.093  10.067 -0.8093 -0.4775  0.6203
   68CHL1    C5 7446   5.626   3.957   9.900  0.1357 -0.3935 -0.6211
   68CHL1    C6 7447   5.621   4.056   9.812 -0.3353 -0.3359  0.8988
   68CHL1    H6 7448   5.607   4.160   9.843 -0.2443 -0.2985  0.8165
   68CHL1    C7 7449   5.624   4.024   9.661 -0.1566 -0.5211 -0.1760
   68CHL1   H7A 7450   5.547   4.085   9.608  0.6495  1.3084  0.6666
   68CHL1   H7B 7451   5.722   4.056   9.619 -0.2959  1.6744  0.9883
   68CHL1    C8 7452   5.607   3.883   9.626 -0.2174  0.7059  0.2027
   68CHL1    H8 7453   5.499   3.856   9.620 -0.4272  1.7019 -1.1817
   68CHL1   C14 7454   5.645   3.851   9.483 -0.7008 -0.1412  0.5252
   68CHL1   H14 7455   5.752   3.880   9.479 -0.7072  0.0058  1.2399
   68CHL1   C15 7456   5.585   3.939   9.378 -0.0777 -0.0108 -0.3129
   68CHL1  H15A 7457   5.481   3.964   9.407  0.7110  0.6708  2.1504
   68CHL1  H15B 7458   5.650   4.028   9.363  2.8447 -1.8841  0.4605
   68CHL1   C16 7459   5.582   3.859   9.249  0.0784  0.2062  1.0200
   68CHL1  H16A 7460   5.474   3.840   9.228  0.2771  0.9575 -0.8799
   68CHL1  H16B 7461   5.615   3.916   9.160 -0.0083  3.1564  2.7358
   68CHL1   C17 7462   5.662   3.722   9.277  0.1822  0.3105  0.0981
   68CHL1   H17 7463   5.771   3.745   9.267  0.8891 -2.4144  0.7416
   68CHL1   C13 7464   5.636   3.706   9.432 -0.8582 -0.0813  0.5404
   68CHL1   C18 7465   5.491   3.650   9.451  0.2747 -0.0042 -0.2551
   68CHL1  H18A 7466   5.417   3.704   9.389  0.6593  0.9327  0.0901
   68CHL1  H18B 7467   5.495   3.541   9.431 -0.5570  0.3383 -2.5406
   68CHL1  H18C 7468   5.461   3.659   9.558 -0.0707  2.3019 -0.4883
   68CHL1   C12 7469   5.734   3.629   9.520 -0.5842  0.2311 -0.4469
   68CHL1  H12A 7470   5.730   3.520   9.500  1.5226  0.2528 -1.2032
   68CHL1  H12B 7471   5.840   3.658   9.506 -1.1156  1.3184 -2.7084
   68CHL1   C11 7472   5.693   3.650   9.666  0.3640  0.8153 -0.2508
   68CHL1  H11A 7473   5.603   3.587   9.680  0.7630 -0.0580 -1.4495
   68CHL1  H11B 7474   5.773   3.599   9.725  0.2549  0.5318 -0.3482
   68CHL1    C9 7475   5.689   3.794   9.721  0.1294  0.2910  0.4240
   68CHL1    H9 7476   5.794   3.828   9.718  0.4518 -0.6382  0.8188
   68CHL1   C10 7477   5.651   3.803   9.872 -0.5168 -0.5727  0.1592
   68CHL1   C19 7478   5.516   3.729   9.895 -0.5584 -0.2306  0.2094
   68CHL1  H19A 7479   5.534   3.620   9.887  1.3430  0.0889 -0.2926
   68CHL1  H19B 7480   5.468   3.740   9.995 -0.3730 -1.7057  0.4797
   68CHL1  H19C 7481   5.441   3.755   9.816 -1.7446  2.0728  1.9685
   68CHL1    C1 7482   5.766   3.760   9.968  1.1675 -0.4705 -0.4272
   68CHL1   H1A 7483   5.785   3.653   9.948  0.9072 -0.6861  0.4707
   68CHL1   H1B 7484   5.861   3.814   9.945  0.6676  1.2142  1.2571
   68CHL1    C2 7485   5.727   3.781  10.115 -0.3042 -0.6572  0.7720
   68CHL1   H2A 7486   5.804   3.733  10.179 -1.1718 -3.3177 -0.0564
   68CHL1   H2B 7487   5.632   3.737  10.151 -0.2649 -2.9499 -1.6333
   68CHL1   C20 7488   5.632   3.607   9.179 -0.5399  0.3511 -0.0819
   68CHL1   H20 7489   5.523   3.584   9.179 -0.2856 -0.9219  0.4576
   68CHL1   C21 7490   5.714   3.484   9.214  0.0478  0.5813 -0.2563
   68CHL1  H21A 7491   5.698   3.398   9.146 -3.0115 -1.5939  2.8820
   68CHL1  H21B 7492   5.680   3.443   9.312  0.4778  0.4395 -0.1639
   68CHL1  H21C 7493   5.821   3.514   9.211  0.2951 -0.1052  0.9564
   68CHL1   C22 7494   5.670   3.651   9.040 -0.1246  0.5483  0.4130
   68CHL1  H22A 7495   5.617   3.742   9.006 -1.3615  0.6503  2.4496
   68CHL1  H22B 7496   5.778   3.672   9.033  0.2150 -1.3304 -0.8937
   68CHL1   C23 7497   5.637   3.545   8.931 -0.0545 -1.2310 -0.4027
   68CHL1  H23A 7498   5.729   3.483   8.927  0.3514 -0.5959 -2.6125
   68CHL1  H23B 7499   5.544   3.489   8.954 -1.2098  0.8145  0.2459
   68CHL1   C24 7500   5.614   3.613   8.789 -0.0425  0.0470 -0.4754
   68CHL1  H24A 7501   5.526   3.680   8.799  0.8527  0.9132  2.3799
   68CHL1  H24B 7502   5.702   3.668   8.751  0.9849 -1.3288 -0.1552
   68CHL1   C25 7503   5.592   3.509   8.680  0.0958  0.1087  0.0632
   68CHL1   H25 7504   5.655   3.424   8.711  2.2071  1.5285 -0.1329
   68CHL1   C26 7505   5.445   3.467   8.674 -0.4956  0.3822  0.4579
   68CHL1  H26A 7506   5.404   3.457   8.777 -0.6280  2.0355  0.5893
   68CHL1  H26B 7507   5.387   3.554   8.636  1.1742  0.1984 -2.8324
   68CHL1  H26C 7508   5.422   3.375   8.615  0.3854  0.5095 -0.0987
   68CHL1   C27 7509   5.647   3.557   8.551  0.0360 -0.1662  0.0737
   68CHL1  H27A 7510   5.627   3.489   8.465  1.1342  1.7330 -1.7949
   68CHL1  H27B 7511   5.622   3.664   8.533 -0.8797  0.0207  2.2131
   68CHL1  H27C 7512   5.758   3.566   8.559 -0.1667  1.9728  1.3261
   69CHL1    C3 7513   4.491   5.919   6.687  0.1952  0.0684  0.2673
   69CHL1    H3 7514   4.581   5.880   6.740 -0.3086 -0.1234  0.9979
   69CHL1    O3 7515   4.502   5.877   6.549  0.0364  0.0219 -0.0512
   69CHL1   H3' 7516   4.546   5.792   6.554 -0.5387 -0.5274 -2.7214
   69CHL1    C4 7517   4.366   5.859   6.741  0.5713 -0.5095  0.2463
   69CHL1   H4A 7518   4.280   5.885   6.675  0.4375  0.8158  0.9088
   69CHL1   H4B 7519   4.367   5.749   6.730  0.7134 -0.3187 -1.9957
   69CHL1    C5 7520   4.343   5.901   6.884 -0.3333  0.7337  0.2535
   69CHL1    C6 7521   4.357   5.817   6.986 -0.2568 -0.4421 -0.3037
   69CHL1    H6 7522   4.376   5.710   6.973 -2.5463 -1.1355  1.4193
   69CHL1    C7 7523   4.331   5.863   7.127  0.8120 -0.2175  0.0593
   69CHL1   H7A 7524   4.260   5.797   7.181  0.3126 -0.1556 -0.5116
   69CHL1   H7B 7525   4.425   5.862   7.186  0.0708  0.1116  1.2652
   69CHL1    C8 7526   4.256   5.999   7.136 -0.3604 -0.0699  0.1673
   69CHL1    H8 7527   4.151   5.979   7.107 -0.4421 -0.1957  0.5496
   69CHL1   C14 7528   4.260   6.053   7.281  0.2920 -0.7391  0.1209
   69CHL1   H14 7529   4.367   6.070   7.303  0.7180 -2.5833 -0.3759
   69CHL1   C15 7530   4.215   5.959   7.390  0.0635 -0.4994 -0.0519
   69CHL1  H15A 7531   4.123   5.902   7.364  0.3783 -1.2489  0.4194
   69CHL1  H15B 7532   4.301   5.894   7.414 -0.1107 -0.8133 -0.2656
   69CHL1   C16 7533   4.195   6.052   7.516  0.4635  0.2407  0.7823
   69CHL1  H16A 7534   4.089   6.059   7.548  0.2610 -1.2185  0.5143
   69CHL1  H16B 7535   4.259   6.029   7.603  0.5070  2.5543  1.4310
   69CHL1   C17 7536   4.227   6.193   7.464  0.3088 -0.3452  0.0285
   69CHL1   H17 7537   4.335   6.205   7.485 -0.2701  2.7258  2.0080
   69CHL1   C13 7538   4.192   6.188   7.311 -0.1307  0.2038  0.5018
   69CHL1   C18 7539   4.040   6.165   7.289  0.2431 -0.2865  0.2613
   69CHL1  H18A 7540   3.989   6.102   7.364 -2.0997 -0.0860 -1.0784
   69CHL1  H18B 7541   3.989   6.264   7.290  0.9849  0.1141 -0.0269
   69CHL1  H18C 7542   4.026   6.120   7.189  0.7731  0.3955 -0.1343
   69CHL1   C12 7543   4.251   6.290   7.210  0.5680 -0.8503 -0.1613
   69CHL1  H12A 7544   4.194   6.386   7.211  2.1489  0.1317 -0.2379
   69CHL1  H12B 7545   4.357   6.306   7.240  0.8252  0.2529 -1.5467
   69CHL1   C11 7546   4.245   6.235   7.057 -0.0275 -0.5173 -0.4729
   69CHL1  H11A 7547   4.138   6.237   7.026 -0.8449  1.4633  2.1392
   69CHL1  H11B 7548   4.293   6.319   7.001 -1.1262  2.1140  2.2624
   69CHL1    C9 7549   4.313   6.104   7.038 -0.1751 -0.4866  0.2740
   69CHL1    H9 7550   4.416   6.119   7.077 -0.3663 -0.8247  0.9250
   69CHL1   C10 7551   4.312   6.054   6.889 -0.5420 -0.5144 -0.3107
   69CHL1   C19 7552   4.169   6.066   6.830  0.4218  0.5994 -0.7123
   69CHL1  H19A 7553   4.124   6.168   6.830  0.2566  0.7068  3.4001
   69CHL1  H19B 7554   4.147   6.002   6.742 -1.2566 -0.8700  0.7174
   69CHL1  H19C 7555   4.098   6.022   6.903 -1.2654  1.0458 -2.0132
   69CHL1    C1 7556   4.422   6.134   6.813 -0.3540 -0.1434 -0.2124
   69CHL1   H1A 7557   4.390   6.240   6.810 -3.5242 -1.0207 -0.5141
   69CHL1   H1B 7558   4.510   6.130   6.881 -0.0031  2.0592 -0.4585
   69CHL1    C2 7559   4.466   6.075   6.682 -0.1475  0.5334 -0.1412
   69CHL1   H2A 7560   4.548   6.131   6.631 -2.0328  1.8469 -1.8988
   69CHL1   H2B 7561   4.374   6.085   6.621 -0.3957  1.0732  0.3110
   69CHL1   C20 7562   4.161   6.298   7.550  0.3380  0.4462 -0.2449
   69CHL1   H20 7563   4.056   6.306   7.514  0.3177  1.5295  0.0195
   69CHL1   C21 7564   4.234   6.426   7.512  0.0981  0.4027 -0.5382
   69CHL1  H21A 7565   4.328   6.437   7.571 -0.5358  1.1372  0.3614
   69CHL1  H21B 7566   4.157   6.503   7.532 -0.9636 -1.1703  1.8761
   69CHL1  H21C 7567   4.251   6.429   7.403  0.1652 -0.8278 -0.5677
   69CHL1   C22 7568   4.149   6.293   7.700 -0.0993 -0.3087 -0.2314
   69CHL1  H22A 7569   4.097   6.200   7.732  2.2008 -2.7046 -2.9545
   69CHL1  H22B 7570   4.252   6.284   7.741 -0.9288  1.6448  2.6603
   69CHL1   C23 7571   4.076   6.411   7.763  0.1883  0.2816  0.0084
   69CHL1  H23A 7572   4.135   6.501   7.737 -0.4080  1.0082  1.1043
   69CHL1  H23B 7573   3.976   6.423   7.715 -0.3167 -2.7042  0.1191
   69CHL1   C24 7574   4.045   6.414   7.915  0.1145  0.5697 -0.1272
   69CHL1  H24A 7575   3.995   6.318   7.940  0.0310  0.0335 -2.1557
   69CHL1  H24B 7576   4.145   6.418   7.963 -1.2190  1.8790  2.7267
   69CHL1   C25 7577   3.961   6.524   7.971  0.2882  0.2190 -0.2544
   69CHL1   H25 7578   3.865   6.527   7.915 -0.3334  1.1047  0.8133
   69CHL1   C26 7579   3.930   6.517   8.121 -0.8830 -0.9399 -0.1626
   69CHL1  H26A 7580   3.918   6.416   8.165 -1.3121 -0.1679  1.5829
   69CHL1  H26B 7581   4.013   6.576   8.165 -2.1325  1.8162 -1.2562
   69CHL1  H26C 7582   3.845   6.585   8.140  1.0937  2.0138 -1.1401
   69CHL1   C27 7583   4.012   6.663   7.945 -0.2257  0.3307 -0.4823
   69CHL1  H27A 7584   3.943   6.742   7.980 -0.5174 -0.0862 -0.1037
   69CHL1  H27B 7585   4.108   6.674   8.001  0.1960  1.1020 -1.3324
   69CHL1  H27C 7586   4.041   6.684   7.839 -2.1355  0.1011 -1.0870
   70CHL1    C3 7587   2.937   3.818   6.677  0.4612  0.0402 -0.3041
   70CHL1    H3 7588   2.835   3.791   6.712 -0.2177  1.5504 -1.0156
   70CHL1    O3 7589   2.983   3.742   6.573  0.2056  0.9187  0.2254
   70CHL1   H3' 7590   3.055   3.692   6.613  0.8648  0.5341 -1.3863
   70CHL1    C4 7591   2.926   3.967   6.640  0.3236  0.5894  0.6804
   70CHL1   H4A 7592   3.029   3.996   6.610  0.1547  1.4235  0.8813
   70CHL1   H4B 7593   2.863   3.981   6.550  0.4465  2.1346  0.8100
   70CHL1    C5 7594   2.887   4.060   6.751  0.0800 -0.5073  0.5631
   70CHL1    C6 7595   2.773   4.133   6.730  0.4217  0.8667 -0.1562
   70CHL1    H6 7596   2.719   4.145   6.635 -1.4971  0.1869  0.7833
   70CHL1    C7 7597   2.706   4.210   6.841 -0.3351  0.4235 -0.5421
   70CHL1   H7A 7598   2.673   4.311   6.809  1.4303  1.1046 -0.3316
   70CHL1   H7B 7599   2.614   4.160   6.877  0.6532  0.3506  2.0830
   70CHL1    C8 7600   2.804   4.225   6.971  0.7076 -0.2673  0.3471
   70CHL1    H8 7601   2.872   4.309   6.949  0.1054 -0.1505 -1.2123
   70CHL1   C14 7602   2.720   4.264   7.095  0.1712 -0.0450  0.1782
   70CHL1   H14 7603   2.656   4.177   7.121 -0.3896 -0.4653 -2.4248
   70CHL1   C15 7604   2.620   4.381   7.082 -0.0698  0.4185  0.5836
   70CHL1  H15A 7605   2.661   4.457   7.012 -0.4357  1.3759  1.3801
   70CHL1  H15B 7606   2.525   4.345   7.038 -0.0887  0.7412  0.3582
   70CHL1   C16 7607   2.595   4.435   7.229 -0.4757 -0.2262 -0.6619
   70CHL1  H16A 7608   2.614   4.542   7.208 -1.5165 -0.5287 -3.7041
   70CHL1  H16B 7609   2.491   4.419   7.266 -0.4623  1.6229  0.2711
   70CHL1   C17 7610   2.700   4.354   7.318 -0.0303 -0.4837  0.8197
   70CHL1   H17 7611   2.637   4.274   7.363 -1.4987 -1.4653 -2.6128
   70CHL1   C13 7612   2.805   4.291   7.225 -0.0787 -0.1315  0.0475
   70CHL1   C18 7613   2.916   4.399   7.193  0.2662  0.1526 -0.0672
   70CHL1  H18A 7614   2.958   4.441   7.286 -1.9799  0.0226  1.0547
   70CHL1  H18B 7615   3.010   4.363   7.146  1.1053  0.6804  1.1476
   70CHL1  H18C 7616   2.881   4.487   7.134 -0.9900 -0.3163 -0.0542
   70CHL1   C12 7617   2.858   4.155   7.268  0.5826  0.1071 -0.0471
   70CHL1  H12A 7618   2.928   4.172   7.353  0.4652  3.5813 -0.5193
   70CHL1  H12B 7619   2.763   4.107   7.300 -1.1513  1.7887 -2.3569
   70CHL1   C11 7620   2.940   4.087   7.149 -0.7133 -0.2187  0.1399
   70CHL1  H11A 7621   3.025   4.158   7.142 -0.5606 -0.5517 -1.9231
   70CHL1  H11B 7622   2.980   3.987   7.180  0.1587 -0.3194 -1.2356
   70CHL1    C9 7623   2.868   4.095   7.014 -0.3320  0.1063  0.4259
   70CHL1    H9 7624   2.784   4.024   7.028 -0.5202  0.3766  0.6684
   70CHL1   C10 7625   2.955   4.038   6.891 -0.0890 -0.2738 -0.8847
   70CHL1   C19 7626   3.092   4.105   6.895 -0.6978  0.1418 -1.1174
   70CHL1  H19A 7627   3.161   4.073   6.975 -1.2770  0.1067 -0.6261
   70CHL1  H19B 7628   3.149   4.084   6.802 -0.7480  2.6777 -1.7955
   70CHL1  H19C 7629   3.080   4.215   6.884  2.4728  0.4885 -1.9509
   70CHL1    C1 7630   2.970   3.882   6.923  0.1005  1.3667 -0.6644
   70CHL1   H1A 7631   3.030   3.866   7.015  0.7222  1.1823 -1.0920
   70CHL1   H1B 7632   2.869   3.838   6.933  0.7983  0.1492  1.5375
   70CHL1    C2 7633   3.029   3.795   6.805  0.2169  0.4710  0.1109
   70CHL1   H2A 7634   3.028   3.688   6.833 -0.2633 -0.4469 -3.0334
   70CHL1   H2B 7635   3.133   3.826   6.782  0.6886 -0.2121  1.2364
   70CHL1   C20 7636   2.743   4.437   7.433 -0.8689 -0.3449 -0.7335
   70CHL1   H20 7637   2.796   4.525   7.391  0.7331  0.1310  1.9988
   70CHL1   C21 7638   2.849   4.369   7.528 -1.3490  0.2707 -0.5341
   70CHL1  H21A 7639   2.826   4.262   7.547 -2.2498  0.6318  0.5501
   70CHL1  H21B 7640   2.871   4.424   7.623  0.4123 -0.0136 -0.7502
   70CHL1  H21C 7641   2.945   4.356   7.475 -2.4807  2.4030 -3.4136
   70CHL1   C22 7642   2.621   4.486   7.521 -0.2587 -0.3317 -0.5895
   70CHL1  H22A 7643   2.546   4.536   7.456  0.2565  0.7409 -0.3823
   70CHL1  H22B 7644   2.576   4.396   7.569  0.2656 -0.0705  0.4199
   70CHL1   C23 7645   2.658   4.595   7.621 -0.1971 -0.5634  0.1592
   70CHL1  H23A 7646   2.733   4.564   7.697 -2.4961 -3.3961  1.4946
   70CHL1  H23B 7647   2.695   4.680   7.561  2.4946 -1.3076  0.6583
   70CHL1   C24 7648   2.534   4.646   7.695  0.5663  0.1958  0.0451
   70CHL1  H24A 7649   2.463   4.666   7.612 -1.5770 -3.1824  0.8852
   70CHL1  H24B 7650   2.482   4.565   7.749  1.5823 -0.3042  0.2974
   70CHL1   C25 7651   2.555   4.768   7.787  0.3879 -0.3542 -0.1491
   70CHL1   H25 7652   2.580   4.858   7.728 -2.9121  1.1783  0.5886
   70CHL1   C26 7653   2.426   4.806   7.865  0.0023 -0.4574 -0.7240
   70CHL1  H26A 7654   2.436   4.904   7.916  2.7007 -0.9233 -0.2053
   70CHL1  H26B 7655   2.336   4.805   7.799 -1.3138  0.0597  0.9913
   70CHL1  H26C 7656   2.417   4.726   7.942  2.0286 -1.4808 -1.4771
   70CHL1   C27 7657   2.669   4.749   7.891 -0.1118  1.0559 -0.3866
   70CHL1  H27A 7658   2.645   4.663   7.958 -3.1440  2.1157  0.0289
   70CHL1  H27B 7659   2.762   4.714   7.841 -0.5434  0.4137 -0.7735
   70CHL1  H27C 7660   2.686   4.831   7.963  3.6127 -0.1556  0.3194
   71CHL1    C3 7661   3.182   1.572   6.800  0.4482  0.5070 -0.7666
   71CHL1    H3 7662   3.077   1.536   6.785  0.9045 -1.7797  0.9217
   71CHL1    O3 7663   3.250   1.582   6.676  0.2571  0.0640 -0.3273
   71CHL1   H3' 7664   3.257   1.494   6.638  2.0113 -0.6300  1.4566
   71CHL1    C4 7665   3.188   1.699   6.872  0.0314 -0.6602  0.4666
   71CHL1   H4A 7666   3.296   1.725   6.882 -0.3193  1.6171 -0.8804
   71CHL1   H4B 7667   3.154   1.788   6.815 -2.7322 -1.3054  0.9477
   71CHL1    C5 7668   3.122   1.701   7.007 -0.3064  0.6617 -0.2930
   71CHL1    C6 7669   3.018   1.777   7.039  0.6025  0.6781  0.1347
   71CHL1    H6 7670   2.965   1.841   6.968 -1.0727  1.0747  1.6702
   71CHL1    C7 7671   2.951   1.774   7.174  0.5096 -0.6238 -0.2660
   71CHL1   H7A 7672   2.933   1.877   7.212  0.0568 -1.2664  1.3613
   71CHL1   H7B 7673   2.854   1.719   7.175  2.3786 -4.1881  0.9325
   71CHL1    C8 7674   3.049   1.693   7.273 -0.2504  0.7388 -0.3226
   71CHL1    H8 7675   3.127   1.770   7.290 -0.5491  1.6037 -2.6160
   71CHL1   C14 7676   2.978   1.669   7.406  0.8115 -0.2254 -0.0380
   71CHL1   H14 7677   2.891   1.603   7.389  0.1955  1.0922 -2.5933
   71CHL1   C15 7678   2.916   1.790   7.475  0.2585 -0.3980 -0.3820
   71CHL1  H15A 7679   2.987   1.874   7.467 -1.6701  1.1612 -3.0295
   71CHL1  H15B 7680   2.818   1.806   7.424  0.4989  0.1594 -0.6766
   71CHL1   C16 7681   2.906   1.745   7.627 -0.1035  0.0567  0.3245
   71CHL1  H16A 7682   2.967   1.816   7.687 -1.6012  0.4683  1.4151
   71CHL1  H16B 7683   2.801   1.755   7.661 -0.3649  2.6422 -0.9888
   71CHL1   C17 7684   2.966   1.599   7.629  0.3150 -0.4977  1.3328
   71CHL1   H17 7685   2.897   1.513   7.617 -1.3960  0.9278  0.5454
   71CHL1   C13 7686   3.061   1.585   7.509  0.5478 -0.2599 -0.9305
   71CHL1   C18 7687   3.192   1.661   7.535 -0.6715  0.6269 -0.0889
   71CHL1  H18A 7688   3.273   1.600   7.581 -1.4878 -0.6694 -0.3138
   71CHL1  H18B 7689   3.232   1.703   7.440 -0.6852  1.9151  0.4477
   71CHL1  H18C 7690   3.163   1.747   7.599 -0.7750  0.4852  0.0566
   71CHL1   C12 7691   3.073   1.453   7.449 -0.8635  0.0115  0.1951
   71CHL1  H12A 7692   3.128   1.377   7.509 -1.4741 -0.4596  0.1672
   71CHL1  H12B 7693   2.977   1.405   7.420 -1.0278  0.1908  0.4365
   71CHL1   C11 7694   3.155   1.470   7.318  0.2074  0.5955 -0.5029
   71CHL1  H11A 7695   3.256   1.504   7.348  0.2334  1.9359 -1.9708
   71CHL1  H11B 7696   3.169   1.365   7.285  1.2933  0.5433  0.0965
   71CHL1    C9 7697   3.092   1.560   7.209 -0.3136 -0.1518 -0.0406
   71CHL1    H9 7698   3.001   1.504   7.177  1.4455 -2.2603 -1.6014
   71CHL1   C10 7699   3.184   1.586   7.095  1.0903 -0.0044  0.3174
   71CHL1   C19 7700   3.329   1.637   7.143  0.3803 -0.0374 -0.3366
   71CHL1  H19A 7701   3.391   1.563   7.197 -1.3836 -1.5829 -0.3480
   71CHL1  H19B 7702   3.396   1.686   7.070  1.7505  1.3661  1.7624
   71CHL1  H19C 7703   3.324   1.725   7.211  3.1636 -0.2654  0.2868
   71CHL1    C1 7704   3.202   1.447   7.020  0.2497 -0.1916  0.6269
   71CHL1   H1A 7705   3.248   1.368   7.084 -1.4024 -1.1709  0.6405
   71CHL1   H1B 7706   3.099   1.412   6.999  0.5898 -1.4721  1.0414
   71CHL1    C2 7707   3.264   1.466   6.879 -0.5624 -0.6255 -0.2245
   71CHL1   H2A 7708   3.244   1.369   6.829 -0.0079 -0.9368  0.1520
   71CHL1   H2B 7709   3.372   1.491   6.876 -0.8227  0.9528  1.5872
   71CHL1   C20 7710   3.022   1.571   7.769  0.3822  0.1944  0.2265
   71CHL1   H20 7711   3.110   1.632   7.797  0.2743  0.8232 -0.7494
   71CHL1   C21 7712   3.076   1.427   7.774  0.1634  0.1876 -0.2453
   71CHL1  H21A 7713   3.169   1.423   7.714 -2.1285 -1.0878 -4.0508
   71CHL1  H21B 7714   3.014   1.350   7.724  1.3691 -1.5771  0.8567
   71CHL1  H21C 7715   3.096   1.379   7.872 -3.1945  0.2470  0.5675
   71CHL1   C22 7716   2.911   1.587   7.886  0.1203  0.1482  0.7081
   71CHL1  H22A 7717   2.832   1.661   7.863 -0.2829 -0.4864  0.0142
   71CHL1  H22B 7718   2.865   1.486   7.877  1.9263 -0.5428 -1.8764
   71CHL1   C23 7719   2.974   1.618   8.020  0.2381  0.3958 -0.0113
   71CHL1  H23A 7720   3.070   1.563   8.025  0.0345 -0.0277 -0.6307
   71CHL1  H23B 7721   3.006   1.724   8.028  1.3206  0.3991 -3.1151
   71CHL1   C24 7722   2.876   1.579   8.133 -0.4612  0.0733 -0.0009
   71CHL1  H24A 7723   2.798   1.659   8.141  1.1468  1.7862 -0.7326
   71CHL1  H24B 7724   2.833   1.480   8.109 -1.7724  0.4883  0.5177
   71CHL1   C25 7725   2.953   1.568   8.266 -0.0800  0.3300  0.1733
   71CHL1   H25 7726   3.042   1.504   8.246 -0.6856 -0.7976  0.9395
   71CHL1   C26 7727   3.012   1.702   8.312 -0.5565 -0.1366 -0.1202
   71CHL1  H26A 7728   2.930   1.760   8.359 -1.0530  0.3156 -1.4933
   71CHL1  H26B 7729   3.086   1.694   8.394 -1.4580  2.3876  1.0247
   71CHL1  H26C 7730   3.061   1.762   8.232 -1.4261  1.1538  0.2901
   71CHL1   C27 7731   2.866   1.507   8.379  0.0283 -0.2981  0.8395
   71CHL1  H27A 7732   2.798   1.437   8.326 -0.5706  0.5228  0.4976
   71CHL1  H27B 7733   2.927   1.452   8.454  0.5296 -1.6921 -0.5390
   71CHL1  H27C 7734   2.804   1.582   8.434 -1.2064 -1.5980  1.2903
   72CHL1    C3 7735   1.105   4.337   6.501 -0.0263 -0.3937 -0.2658
   72CHL1    H3 7736   1.073   4.231   6.497 -1.8173  0.1615 -2.3047
   72CHL1    O3 7737   1.129   4.380   6.369 -0.0387  0.0972  0.3334
   72CHL1   H3' 7738   1.182   4.309   6.332  1.9633  1.9721 -0.6148
   72CHL1    C4 7739   1.008   4.437   6.573  0.1362 -0.1188 -0.1456
   72CHL1   H4A 7740   1.050   4.537   6.551  0.9361 -0.2279  0.8121
   72CHL1   H4B 7741   0.907   4.437   6.525  0.1777 -0.3939 -0.2346
   72CHL1    C5 7742   0.998   4.410   6.722  0.1032  0.3800  0.3325
   72CHL1    C6 7743   0.876   4.396   6.773 -0.1188  0.0001  0.1702
   72CHL1    H6 7744   0.785   4.407   6.712 -2.2778 -2.7797  2.6055
   72CHL1    C7 7745   0.858   4.369   6.919 -0.0790 -0.1357 -0.3464
   72CHL1   H7A 7746   0.771   4.429   6.953 -0.3379  0.3789 -1.8462
   72CHL1   H7B 7747   0.838   4.261   6.930 -2.1160 -0.0044 -2.2091
   72CHL1    C8 7748   0.984   4.388   7.010  0.1349  0.0692 -0.4369
   72CHL1    H8 7749   0.997   4.497   7.029  2.7042 -0.3080  0.3078
   72CHL1   C14 7750   0.971   4.316   7.151  0.3937 -0.8863  0.2910
   72CHL1   H14 7751   0.962   4.207   7.131  0.2921 -1.4277  2.9680
   72CHL1   C15 7752   0.838   4.351   7.231  0.1946 -0.3864  1.1493
   72CHL1  H15A 7753   0.807   4.454   7.202 -0.0452 -0.5848  0.6800
   72CHL1  H15B 7754   0.754   4.287   7.196  0.9264  0.6174 -2.9928
   72CHL1   C16 7755   0.869   4.329   7.377  0.1566  0.0902  0.2281
   72CHL1  H16A 7756   0.866   4.424   7.434 -1.2546  1.1138 -1.4428
   72CHL1  H16B 7757   0.805   4.251   7.424  1.2618 -0.2690  1.1866
   72CHL1   C17 7758   1.018   4.281   7.380  0.0571 -0.2438  0.1153
   72CHL1   H17 7759   1.020   4.173   7.357  0.4065 -0.2203  0.0309
   72CHL1   C13 7760   1.080   4.346   7.247 -0.3810  0.2941  0.5327
   72CHL1   C18 7761   1.100   4.496   7.272  0.1264 -1.1859 -0.7000
   72CHL1  H18A 7762   1.125   4.556   7.182 -1.3843 -0.5508 -0.7266
   72CHL1  H18B 7763   1.005   4.540   7.308  1.7606  2.4140 -0.3726
   72CHL1  H18C 7764   1.169   4.507   7.358 -1.7764 -2.3051  1.0517
   72CHL1   C12 7765   1.196   4.283   7.179 -0.9004  0.1410  0.2587
   72CHL1  H12A 7766   1.285   4.286   7.246 -0.6887  0.6908 -0.0451
   72CHL1  H12B 7767   1.175   4.175   7.162 -2.4565  0.6495 -1.2575
   72CHL1   C11 7768   1.227   4.340   7.043  0.6077 -0.1434  0.4606
   72CHL1  H11A 7769   1.263   4.445   7.044 -1.2921  0.6013 -1.4460
   72CHL1  H11B 7770   1.303   4.277   6.994  3.0254  2.1273  1.0283
   72CHL1    C9 7771   1.109   4.333   6.946 -0.3018  0.3029  0.0782
   72CHL1    H9 7772   1.090   4.228   6.917  1.1212 -0.2755  1.0789
   72CHL1   C10 7773   1.134   4.390   6.813 -0.4246 -0.6311  0.1659
   72CHL1   C19 7774   1.195   4.530   6.832  0.0667 -0.3203  0.6829
   72CHL1  H19A 7775   1.155   4.588   6.918  1.3698  1.1080  0.3722
   72CHL1  H19B 7776   1.305   4.530   6.850  0.5039 -1.5192 -1.5224
   72CHL1  H19C 7777   1.186   4.593   6.741 -0.9149 -2.4137 -0.7479
   72CHL1    C1 7778   1.232   4.304   6.727 -0.3551 -1.0730  0.0995
   72CHL1   H1A 7779   1.333   4.317   6.771  0.4962 -1.2198 -1.7231
   72CHL1   H1B 7780   1.205   4.196   6.739 -0.1461 -1.2208 -0.7171
   72CHL1    C2 7781   1.244   4.344   6.575  0.3455  0.0846 -0.3341
   72CHL1   H2A 7782   1.304   4.275   6.513 -0.1008 -0.2502 -0.4010
   72CHL1   H2B 7783   1.276   4.450   6.563 -0.3242  0.3596  0.1690
   72CHL1   C20 7784   1.089   4.302   7.517 -0.3571 -0.4456  0.1816
   72CHL1   H20 7785   1.080   4.413   7.525 -0.5453 -0.3457 -1.1009
   72CHL1   C21 7786   1.242   4.265   7.519  0.0823  0.1392 -0.0876
   72CHL1  H21A 7787   1.258   4.161   7.485 -1.4512 -0.6411  1.3898
   72CHL1  H21B 7788   1.270   4.277   7.626 -0.9529  0.7520  0.1345
   72CHL1  H21C 7789   1.315   4.329   7.465  1.2521  0.0695  1.3434
   72CHL1   C22 7790   1.012   4.242   7.634  0.0785  0.2947  0.2149
   72CHL1  H22A 7791   0.903   4.259   7.622  0.5012  2.4662 -1.3379
   72CHL1  H22B 7792   1.033   4.134   7.642 -1.5409 -0.0901 -0.3436
   72CHL1   C23 7793   1.042   4.305   7.774 -0.2198  0.1109 -0.6010
   72CHL1  H23A 7794   1.150   4.288   7.794 -0.1605  0.2980 -0.7571
   72CHL1  H23B 7795   1.008   4.411   7.766 -1.8098 -0.4351 -1.4003
   72CHL1   C24 7796   0.964   4.233   7.883  0.3747  0.8382  0.4582
   72CHL1  H24A 7797   0.858   4.242   7.853  0.0586  1.8133  1.7658
   72CHL1  H24B 7798   1.003   4.128   7.881  1.4058  1.1986  0.7687
   72CHL1   C25 7799   0.981   4.281   8.028 -0.5834  0.1349 -1.0485
   72CHL1   H25 7800   1.089   4.276   8.050 -0.4325  0.0089 -1.7788
   72CHL1   C26 7801   0.938   4.432   8.033 -0.4522  0.1791 -0.3452
   72CHL1  H26A 7802   0.929   4.459   8.141  1.9661 -0.8154  0.1765
   72CHL1  H26B 7803   1.014   4.494   7.980 -1.0980 -1.8148 -3.9116
   72CHL1  H26C 7804   0.837   4.442   7.989 -1.5823 -1.5567  1.6928
   72CHL1   C27 7805   0.889   4.205   8.120  0.3541  0.3351 -0.6174
   72CHL1  H27A 7806   0.859   4.238   8.222 -5.5279 -1.5701 -1.3250
   72CHL1  H27B 7807   0.788   4.201   8.074  0.5991  1.7645 -1.3212
   72CHL1  H27C 7808   0.927   4.101   8.127 -0.0655  0.2324  0.3917
   73CHL1    C3 7809   3.864   2.902  10.227  0.2864 -0.0848  0.4824
   73CHL1    H3 7810   3.753   2.897  10.219  0.2110 -0.1451  1.3849
   73CHL1    O3 7811   3.896   2.875  10.359 -0.3607 -0.5792  0.2647
   73CHL1   H3' 7812   3.989   2.896  10.359  0.0763 -2.3719 -0.5289
   73CHL1    C4 7813   3.933   2.788  10.153 -0.3096 -0.3573  0.8787
   73CHL1   H4A 7814   4.044   2.794  10.148 -0.3288  1.4764  2.0024
   73CHL1   H4B 7815   3.913   2.692  10.206  1.5695 -1.2583  0.0401
   73CHL1    C5 7816   3.903   2.782  10.007  0.5890  1.1662  0.1952
   73CHL1    C6 7817   3.854   2.674   9.950 -0.0078 -0.0213  0.4422
   73CHL1    H6 7818   3.841   2.580  10.006  1.1642 -1.2119 -1.1719
   73CHL1    C7 7819   3.821   2.664   9.802 -0.6182 -0.6318 -0.7269
   73CHL1   H7A 7820   3.865   2.569   9.763 -0.2607 -0.6510 -0.2719
   73CHL1   H7B 7821   3.710   2.666   9.795 -0.7254  2.6095  0.4984
   73CHL1    C8 7822   3.882   2.772   9.710 -0.1726  0.0882  0.1578
   73CHL1    H8 7823   3.988   2.743   9.692 -0.6565 -1.5377 -0.2345
   73CHL1   C14 7824   3.815   2.778   9.575 -0.2850 -0.5543  0.1279
   73CHL1   H14 7825   3.706   2.791   9.595 -0.3030  0.9854 -0.8037
   73CHL1   C15 7826   3.819   2.650   9.488 -0.8195 -0.4276 -0.0755
   73CHL1  H15A 7827   3.916   2.596   9.480  0.1990  1.2394  0.4814
   73CHL1  H15B 7828   3.745   2.579   9.529  0.3553 -0.1134  2.7786
   73CHL1   C16 7829   3.814   2.703   9.348  0.7359 -0.1468  0.8683
   73CHL1  H16A 7830   3.900   2.669   9.287 -0.3323 -0.5526 -0.4568
   73CHL1  H16B 7831   3.722   2.663   9.300  1.3086 -0.7459  0.2335
   73CHL1   C17 7832   3.797   2.856   9.345  0.4601  0.5205 -0.2009
   73CHL1   H17 7833   3.689   2.878   9.353  0.8078  2.4487 -0.2544
   73CHL1   C13 7834   3.864   2.887   9.482  0.8841 -0.3120  0.2374
   73CHL1   C18 7835   4.016   2.871   9.459  0.5974 -0.0778  0.0503
   73CHL1  H18A 7836   4.056   2.957   9.401  0.3646 -0.1737 -0.2533
   73CHL1  H18B 7837   4.071   2.885   9.555 -0.2041 -1.0124  0.6764
   73CHL1  H18C 7838   4.050   2.779   9.407 -0.4315 -0.5299  0.1494
   73CHL1   C12 7839   3.825   3.015   9.555 -0.1056 -0.2957  0.4277
   73CHL1  H12A 7840   3.844   3.111   9.503 -0.1110 -1.2251 -1.3781
   73CHL1  H12B 7841   3.716   3.012   9.574 -0.2586  0.9088 -0.1524
   73CHL1   C11 7842   3.887   3.038   9.694 -0.1936  1.0629 -0.2841
   73CHL1  H11A 7843   3.995   3.060   9.678  0.2974  0.7052  2.1749
   73CHL1  H11B 7844   3.841   3.122   9.750 -1.0810  0.6593 -0.3860
   73CHL1    C9 7845   3.868   2.911   9.784 -0.6444  1.2673  0.3851
   73CHL1    H9 7846   3.758   2.918   9.797 -0.9694 -0.9134 -0.8114
   73CHL1   C10 7847   3.930   2.914   9.926  0.4221  0.6461  0.1506
   73CHL1   C19 7848   4.085   2.922   9.912 -0.8746  0.3303  0.8320
   73CHL1  H19A 7849   4.106   2.840   9.839 -1.2754 -0.3652  1.4853
   73CHL1  H19B 7850   4.107   3.019   9.862 -0.3096  0.2386  0.8944
   73CHL1  H19C 7851   4.149   2.927  10.003 -0.0996  1.6244  0.2448
   73CHL1    C1 7852   3.876   3.031  10.008  0.4105 -0.2895 -0.3958
   73CHL1   H1A 7853   3.928   3.126   9.984 -0.2503  0.4227  0.8294
   73CHL1   H1B 7854   3.765   3.040   9.997  0.6205  1.5147 -1.4600
   73CHL1    C2 7855   3.903   3.030  10.165 -0.1217 -0.6532  0.2045
   73CHL1   H2A 7856   3.838   3.107  10.213 -2.2999 -2.9788  1.2776
   73CHL1   H2B 7857   4.010   3.043  10.190  0.1754 -0.6953 -1.0043
   73CHL1   C20 7858   3.845   2.925   9.217 -0.5125  0.0072  0.5726
   73CHL1   H20 7859   3.956   2.925   9.213 -0.5280 -0.3811 -2.5150
   73CHL1   C21 7860   3.801   3.075   9.211 -0.3586  0.1970 -0.3262
   73CHL1  H21A 7861   3.828   3.126   9.306 -0.8702 -1.9520  1.0505
   73CHL1  H21B 7862   3.690   3.075   9.199 -0.4331  0.0237  0.3579
   73CHL1  H21C 7863   3.845   3.120   9.120  0.7128  1.2495  0.6876
   73CHL1   C22 7864   3.797   2.875   9.086  0.1333  0.9063  0.3872
   73CHL1  H22A 7865   3.818   2.947   9.004  0.8140  0.4633  0.1683
   73CHL1  H22B 7866   3.854   2.782   9.068  0.9042  1.4206  0.1274
   73CHL1   C23 7867   3.652   2.816   9.069 -0.1700  0.0881  0.0062
   73CHL1  H23A 7868   3.631   2.729   9.135 -0.7801  1.2504  1.4004
   73CHL1  H23B 7869   3.582   2.891   9.112 -2.2648 -2.3069  1.0129
   73CHL1   C24 7870   3.625   2.781   8.926  0.9363 -0.3398  0.8426
   73CHL1  H24A 7871   3.514   2.767   8.921  1.1779 -2.3880  0.0563
   73CHL1  H24B 7872   3.654   2.871   8.868 -1.5985  1.7012  2.5126
   73CHL1   C25 7873   3.694   2.653   8.876  0.0437 -0.2165 -0.9392
   73CHL1   H25 7874   3.803   2.660   8.896 -0.1966 -0.0419  0.4114
   73CHL1   C26 7875   3.643   2.522   8.947 -0.5516 -0.4548  0.2536
   73CHL1  H26A 7876   3.648   2.529   9.058  0.7743 -1.1128  0.2572
   73CHL1  H26B 7877   3.537   2.519   8.914 -0.0655 -1.0390 -1.3470
   73CHL1  H26C 7878   3.693   2.426   8.922 -0.0017 -0.5353  1.5767
   73CHL1   C27 7879   3.676   2.642   8.731 -0.1843  0.1013  0.5189
   73CHL1  H27A 7880   3.568   2.633   8.708  0.0455 -0.5876 -0.3456
   73CHL1  H27B 7881   3.715   2.724   8.667  0.4773  1.2277  2.2802
   73CHL1  H27C 7882   3.721   2.550   8.688 -1.1629  1.2116 -3.2683
   74CHL1    C3 7883   3.406   0.371   7.237 -0.6620 -0.0641  0.2351
   74CHL1    H3 7884   3.454   0.275   7.266 -2.8745 -0.4023  3.2880
   74CHL1    O3 7885   3.377   0.381   7.097 -0.0174  0.2041 -0.0323
   74CHL1   H3' 7886   3.381   0.475   7.079  4.3432  0.9803  3.1919
   74CHL1    C4 7887   3.271   0.375   7.315  0.2801 -0.0942 -0.4484
   74CHL1   H4A 7888   3.222   0.472   7.291 -0.1394  0.0452  0.8683
   74CHL1   H4B 7889   3.202   0.293   7.284 -0.7773  0.5865  0.0579
   74CHL1    C5 7890   3.304   0.367   7.466  0.9008  0.0304 -0.3559
   74CHL1    C6 7891   3.257   0.267   7.542 -0.2159 -0.1925 -0.2412
   74CHL1    H6 7892   3.194   0.188   7.499 -0.0853  0.8360 -2.4456
   74CHL1    C7 7893   3.286   0.248   7.687  0.0697  0.4558  0.0744
   74CHL1   H7A 7894   3.188   0.230   7.736 -0.7238  1.8438 -0.9364
   74CHL1   H7B 7895   3.353   0.163   7.713 -0.6843  0.2910  1.6223
   74CHL1    C8 7896   3.346   0.379   7.747 -0.0561  0.7377 -0.5425
   74CHL1    H8 7897   3.261   0.451   7.746 -0.6636  0.0978  1.0704
   74CHL1   C14 7898   3.394   0.346   7.886 -0.5161 -0.9120 -0.4262
   74CHL1   H14 7899   3.474   0.270   7.878 -0.2770 -0.7754  0.5874
   74CHL1   C15 7900   3.298   0.269   7.978 -0.1746  0.6342 -0.8145
   74CHL1  H15A 7901   3.194   0.304   7.968 -0.8867 -1.3530 -0.8563
   74CHL1  H15B 7902   3.299   0.159   7.963 -0.2225  0.4113  0.6301
   74CHL1   C16 7903   3.370   0.301   8.115  0.1393  0.1872 -0.2597
   74CHL1  H16A 7904   3.286   0.350   8.169 -0.9445  0.7089 -2.3167
   74CHL1  H16B 7905   3.399   0.209   8.169 -0.3204  0.2569  0.1220
   74CHL1   C17 7906   3.488   0.396   8.100 -0.5925 -0.7909  0.4870
   74CHL1   H17 7907   3.579   0.334   8.087  0.4275  0.2214  2.2476
   74CHL1   C13 7908   3.459   0.468   7.965  0.6281  0.5385  0.7865
   74CHL1   C18 7909   3.347   0.579   7.982 -0.6075  0.7350  0.3196
   74CHL1  H18A 7910   3.296   0.615   7.890 -0.5898  2.0987  0.8279
   74CHL1  H18B 7911   3.268   0.525   8.039  0.3660  0.4123  1.4009
   74CHL1  H18C 7912   3.379   0.671   8.034  0.3494  0.3796  0.3782
   74CHL1   C12 7913   3.575   0.514   7.876  0.0071  0.6332 -0.3557
   74CHL1  H12A 7914   3.621   0.603   7.924 -0.4549  0.7815 -0.1837
   74CHL1  H12B 7915   3.650   0.432   7.864 -1.4257 -0.8491  0.4403
   74CHL1   C11 7916   3.531   0.560   7.738  0.3466 -0.5348  1.1093
   74CHL1  H11A 7917   3.476   0.656   7.749  3.6131  1.3254  2.9198
   74CHL1  H11B 7918   3.624   0.585   7.683 -0.4320 -0.5421 -0.2491
   74CHL1    C9 7919   3.456   0.441   7.665  0.0964  0.4294  0.8833
   74CHL1    H9 7920   3.536   0.365   7.654  0.5517  1.1374 -1.1041
   74CHL1   C10 7921   3.403   0.472   7.524  0.1191  0.2098 -0.0291
   74CHL1   C19 7922   3.319   0.605   7.530 -0.4806  0.9628 -0.2560
   74CHL1  H19A 7923   3.230   0.598   7.595 -0.8179  0.2297 -0.7854
   74CHL1  H19B 7924   3.385   0.690   7.559 -0.1642  0.3238  0.9631
   74CHL1  H19C 7925   3.276   0.634   7.432 -1.3761  1.5054  0.2832
   74CHL1    C1 7926   3.524   0.483   7.428  0.5054 -0.1589 -0.3835
   74CHL1   H1A 7927   3.583   0.575   7.448 -1.9213  2.0884 -2.6603
   74CHL1   H1B 7928   3.584   0.393   7.454 -0.7603 -0.2545  2.5460
   74CHL1    C2 7929   3.494   0.496   7.279  0.4647  0.1755 -0.0817
   74CHL1   H2A 7930   3.584   0.499   7.215  0.6414 -0.4279  0.1370
   74CHL1   H2B 7931   3.442   0.589   7.247  0.0630 -0.0247 -0.0249
   74CHL1   C20 7932   3.507   0.482   8.228  0.2913 -0.2256 -0.1644
   74CHL1   H20 7933   3.411   0.534   8.246 -0.9109 -2.2997 -0.3075
   74CHL1   C21 7934   3.627   0.577   8.201  0.0640  0.5384  0.6303
   74CHL1  H21A 7935   3.646   0.622   8.301  1.9710  0.7425  0.2086
   74CHL1  H21B 7936   3.590   0.654   8.129  0.5818  1.0456  0.8973
   74CHL1  H21C 7937   3.715   0.521   8.162  0.3221  0.4266  1.3543
   74CHL1   C22 7938   3.524   0.401   8.366 -0.7384 -0.2572  0.3983
   74CHL1  H22A 7939   3.534   0.483   8.440  0.3984  0.0329 -0.0747
   74CHL1  H22B 7940   3.424   0.356   8.387 -1.2298  0.4609 -0.3414
   74CHL1   C23 7941   3.630   0.293   8.376  0.7466  0.4169 -0.2378
   74CHL1  H23A 7942   3.602   0.228   8.290 -1.7493  0.7156  0.2641
   74CHL1  H23B 7943   3.731   0.336   8.357  0.3679  1.4775  0.0844
   74CHL1   C24 7944   3.611   0.200   8.499  0.3103  0.4785 -0.5459
   74CHL1  H24A 7945   3.510   0.156   8.488  0.0460  1.0727 -0.5670
   74CHL1  H24B 7946   3.690   0.122   8.505  0.2212  0.4821  1.1727
   74CHL1   C25 7947   3.615   0.280   8.637  0.0741 -0.6598  0.0138
   74CHL1   H25 7948   3.535   0.357   8.635  2.3415  1.8864  1.1560
   74CHL1   C26 7949   3.605   0.179   8.756  0.5485 -0.5304  0.0635
   74CHL1  H26A 7950   3.580   0.225   8.854 -1.2527 -1.3129  0.0000
   74CHL1  H26B 7951   3.529   0.103   8.729  0.9894 -0.6934 -0.7760
   74CHL1  H26C 7952   3.705   0.130   8.764 -0.1770 -2.6328 -2.4560
   74CHL1   C27 7953   3.744   0.365   8.659  0.1258  0.1328  0.1988
   74CHL1  H27A 7954   3.761   0.421   8.564  1.4698 -0.9209 -0.2111
   74CHL1  H27B 7955   3.736   0.441   8.739 -0.0585  0.5582 -0.2187
   74CHL1  H27C 7956   3.833   0.299   8.669  0.1116 -0.3022 -2.0003
   75CHL1    C3 7957   5.644   6.316   7.024  0.5834  0.3944  0.6092
   75CHL1    H3 7958   5.543   6.356   7.047 -0.4675 -1.8780  0.2355
   75CHL1    O3 7959   5.698   6.397   6.919  0.0809  0.3088  0.6779
   75CHL1   H3' 7960   5.741   6.334   6.861 -0.9856  1.4257 -1.4308
   75CHL1    C4 7961   5.741   6.320   7.147  0.0969  0.9998 -0.1228
   75CHL1   H4A 7962   5.834   6.268   7.118 -0.5040  0.0757 -0.4345
   75CHL1   H4B 7963   5.764   6.426   7.170  0.2786  0.5820  1.8119
   75CHL1    C5 7964   5.680   6.238   7.261  0.8380 -0.3194 -0.8188
   75CHL1    C6 7965   5.656   6.302   7.379 -0.4935 -0.6149  0.0672
   75CHL1    H6 7966   5.694   6.404   7.391 -0.4817 -0.3573 -1.9230
   75CHL1    C7 7967   5.588   6.229   7.493  0.8065 -0.0953  1.0090
   75CHL1   H7A 7968   5.643   6.240   7.590 -0.9253 -0.0226  2.0216
   75CHL1   H7B 7969   5.482   6.263   7.502  0.1966 -1.9127  1.0171
   75CHL1    C8 7970   5.576   6.075   7.469  0.4966 -0.3994 -0.5182
   75CHL1    H8 7971   5.676   6.028   7.475  0.5454 -0.4308 -1.4732
   75CHL1   C14 7972   5.479   6.024   7.574 -0.1841 -0.3862 -0.5457
   75CHL1   H14 7973   5.390   6.085   7.546  0.8579  1.3665 -0.2124
   75CHL1   C15 7974   5.518   6.037   7.725  0.0064 -0.0893 -0.3569
   75CHL1  H15A 7975   5.624   6.004   7.734 -0.4004 -0.8564  2.1445
   75CHL1  H15B 7976   5.494   6.137   7.766  0.8788  0.7223 -1.7370
   75CHL1   C16 7977   5.416   5.950   7.791 -0.3942 -0.2406 -1.5908
   75CHL1  H16A 7978   5.466   5.902   7.878  2.8961  0.5708 -2.8761
   75CHL1  H16B 7979   5.344   6.024   7.833  1.5481  0.7411  0.2329
   75CHL1   C17 7980   5.345   5.861   7.684 -0.2142 -0.1203 -0.5880
   75CHL1   H17 7981   5.252   5.916   7.660 -0.1318 -0.1345 -0.9518
   75CHL1   C13 7982   5.437   5.877   7.564 -0.0988  0.3465 -0.0788
   75CHL1   C18 7983   5.569   5.794   7.582 -0.0358  0.3730  0.2589
   75CHL1  H18A 7984   5.540   5.689   7.558 -2.2964  1.0553 -0.3142
   75CHL1  H18B 7985   5.650   5.827   7.514 -0.2796 -0.2298 -0.3340
   75CHL1  H18C 7986   5.603   5.781   7.687 -0.2586  2.3723  0.6273
   75CHL1   C12 7987   5.379   5.858   7.422 -0.0343 -0.4629 -0.5983
   75CHL1  H12A 7988   5.356   5.752   7.402 -0.6550 -1.1410  3.0084
   75CHL1  H12B 7989   5.290   5.925   7.412  0.9390  1.0401  0.3697
   75CHL1   C11 7990   5.477   5.898   7.308 -0.3350  0.5168 -0.2639
   75CHL1  H11A 7991   5.558   5.823   7.299 -0.9038 -0.3430  1.3535
   75CHL1  H11B 7992   5.428   5.884   7.210 -1.1737 -0.4797  0.2822
   75CHL1    C9 7993   5.533   6.038   7.332  0.0082 -0.1756  0.5601
   75CHL1    H9 7994   5.439   6.094   7.314 -1.0443 -1.8703  0.5998
   75CHL1   C10 7995   5.634   6.091   7.225  0.3717 -0.9818 -0.3593
   75CHL1   C19 7996   5.764   6.004   7.206 -0.2055 -0.1073  0.2039
   75CHL1  H19A 7997   5.819   5.988   7.301  0.5823 -2.8154 -0.6078
   75CHL1  H19B 7998   5.718   5.910   7.168 -0.5409  0.7985 -1.8003
   75CHL1  H19C 7999   5.827   6.034   7.119 -1.2977  0.9862 -0.2350
   75CHL1    C1 8000   5.551   6.098   7.094 -0.1225  0.0573  0.0352
   75CHL1   H1A 8001   5.528   5.994   7.063 -1.6386 -0.2443  1.9568
   75CHL1   H1B 8002   5.453   6.145   7.118 -0.6915 -1.7886  1.5652
   75CHL1    C2 8003   5.621   6.170   6.974  0.1231 -0.5453 -0.1533
   75CHL1   H2A 8004   5.551   6.176   6.888 -0.2870  1.0551  0.2502
   75CHL1   H2B 8005   5.718   6.120   6.951 -0.4706 -2.7753  1.7667
   75CHL1   C20 8006   5.310   5.721   7.720  0.3760  0.1230 -0.2252
   75CHL1   H20 8007   5.400   5.672   7.764  1.0364  1.1403 -0.4174
   75CHL1   C21 8008   5.264   5.616   7.616  0.3866 -0.3301 -0.1007
   75CHL1  H21A 8009   5.168   5.650   7.570  0.4859  1.0744  0.6788
   75CHL1  H21B 8010   5.244   5.524   7.675 -0.5514  0.8911  1.5805
   75CHL1  H21C 8011   5.337   5.597   7.534  0.6695 -0.2738  0.1400
   75CHL1   C22 8012   5.207   5.717   7.843  0.0490 -0.4130  0.2211
   75CHL1  H22A 8013   5.207   5.618   7.893 -0.9058 -0.2264  0.6204
   75CHL1  H22B 8014   5.232   5.794   7.920 -3.6202  1.1150  0.0951
   75CHL1   C23 8015   5.063   5.750   7.803 -0.5077 -0.1990  0.6666
   75CHL1  H23A 8016   5.069   5.851   7.758  0.8168 -0.8477 -0.6906
   75CHL1  H23B 8017   5.014   5.682   7.730 -0.8001  0.0969  0.5872
   75CHL1   C24 8018   4.971   5.741   7.929 -0.2385  0.4068  0.0678
   75CHL1  H24A 8019   4.870   5.765   7.889 -1.4571 -1.7013  1.7022
   75CHL1  H24B 8020   4.964   5.635   7.962 -1.4092  0.7149  0.8574
   75CHL1   C25 8021   5.006   5.832   8.056  0.2850 -0.0272 -0.0474
   75CHL1   H25 8022   5.104   5.809   8.103 -0.7350 -2.6224  0.9993
   75CHL1   C26 8023   5.010   5.981   8.014 -0.6485  0.2917 -0.4012
   75CHL1  H26A 8024   5.099   6.006   7.952 -2.0009  1.6260 -1.9068
   75CHL1  H26B 8025   4.922   6.003   7.949 -2.4886 -1.3186  1.3888
   75CHL1  H26C 8026   5.020   6.052   8.099 -2.3041 -0.3671  0.3905
   75CHL1   C27 8027   4.897   5.812   8.162 -0.0893  0.1345 -0.1069
   75CHL1  H27A 8028   4.891   5.709   8.202 -1.7232  0.1383 -0.2721
   75CHL1  H27B 8029   4.911   5.874   8.253 -2.3723 -0.9758  1.0769
   75CHL1  H27C 8030   4.801   5.843   8.115 -0.9097 -2.8577 -0.6269
   76CHL1    C3 8031   2.626   3.733   6.471  0.2883 -0.3658 -0.2433
   76CHL1    H3 8032   2.725   3.769   6.508 -0.0899 -0.2679  0.7055
   76CHL1    O3 8033   2.635   3.709   6.332  0.4120  0.0361 -0.2167
   76CHL1   H3' 8034   2.632   3.794   6.288  2.3213 -0.8339 -2.2444
   76CHL1    C4 8035   2.578   3.606   6.542 -0.1795 -0.0301  0.5950
   76CHL1   H4A 8036   2.486   3.566   6.494  0.3645 -0.9039  0.2638
   76CHL1   H4B 8037   2.650   3.522   6.533  0.4635  0.4426  1.2969
   76CHL1    C5 8038   2.572   3.625   6.694 -0.6586 -0.1833  0.0720
   76CHL1    C6 8039   2.636   3.556   6.786 -0.4073  0.3125 -0.2796
   76CHL1    H6 8040   2.707   3.476   6.758  1.7034  2.1982 -0.6834
   76CHL1    C7 8041   2.638   3.582   6.935 -0.3174 -0.8454 -0.3931
   76CHL1   H7A 8042   2.630   3.487   6.992  1.8865  0.4734  2.3929
   76CHL1   H7B 8043   2.737   3.625   6.961 -0.1169 -0.2726 -2.0057
   76CHL1    C8 8044   2.528   3.679   6.988 -0.0580 -0.3153  0.3842
   76CHL1    H8 8045   2.433   3.621   6.989 -0.7052  0.6392 -1.2044
   76CHL1   C14 8046   2.557   3.737   7.124  0.1202  0.5391 -0.4971
   76CHL1   H14 8047   2.650   3.795   7.106 -0.4289  0.6156 -3.5944
   76CHL1   C15 8048   2.585   3.645   7.240 -0.5037  1.2305  0.7319
   76CHL1  H15A 8049   2.505   3.568   7.239 -0.1108  0.7739 -2.2916
   76CHL1  H15B 8050   2.681   3.590   7.247 -0.8563  0.7108  1.6669
   76CHL1   C16 8051   2.582   3.736   7.358 -0.2668 -0.3707  0.0139
   76CHL1  H16A 8052   2.516   3.694   7.437  0.0819 -1.4153 -0.2341
   76CHL1  H16B 8053   2.684   3.760   7.393 -0.2028 -2.1122  1.1154
   76CHL1   C17 8054   2.522   3.869   7.311 -0.4047 -0.2699  0.1266
   76CHL1   H17 8055   2.601   3.933   7.267 -0.4498 -0.3596 -0.0865
   76CHL1   C13 8056   2.454   3.833   7.181  0.0801  0.0016 -0.1515
   76CHL1   C18 8057   2.318   3.756   7.212 -0.2420 -0.1135  0.3534
   76CHL1  H18A 8058   2.265   3.715   7.123 -0.6786  2.0360 -0.4358
   76CHL1  H18B 8059   2.337   3.674   7.285  1.6616 -0.9046 -0.9486
   76CHL1  H18C 8060   2.256   3.826   7.272 -0.6541  1.2504 -1.5885
   76CHL1   C12 8061   2.421   3.948   7.078  0.3870  0.2990  0.4005
   76CHL1  H12A 8062   2.331   4.006   7.106 -2.1793 -1.7955 -2.7730
   76CHL1  H12B 8063   2.520   3.999   7.073  1.9836 -2.6571 -1.0642
   76CHL1   C11 8064   2.388   3.886   6.937 -0.5440  0.8807  0.3859
   76CHL1  H11A 8065   2.302   3.816   6.950 -0.0346 -0.0126 -0.7938
   76CHL1  H11B 8066   2.359   3.956   6.855  1.6694 -1.8642 -3.0278
   76CHL1    C9 8067   2.500   3.793   6.887 -0.7851  0.3487 -0.3745
   76CHL1    H9 8068   2.598   3.844   6.892 -0.6665  0.0404  0.7158
   76CHL1   C10 8069   2.491   3.743   6.740  0.1984  0.4246  0.3588
   76CHL1   C19 8070   2.345   3.697   6.716 -0.0396  0.0697 -0.5325
   76CHL1  H19A 8071   2.267   3.773   6.694 -2.4202 -2.5148 -1.6315
   76CHL1  H19B 8072   2.333   3.627   6.630 -0.7322 -1.6666  0.9316
   76CHL1  H19C 8073   2.308   3.635   6.800 -1.7500  0.5232 -0.9068
   76CHL1    C1 8074   2.532   3.873   6.658  0.0952  0.1825  0.5123
   76CHL1   H1A 8075   2.454   3.950   6.673  0.4189  0.7899 -0.7859
   76CHL1   H1B 8076   2.626   3.921   6.691 -0.9145  1.9056  1.0356
   76CHL1    C2 8077   2.536   3.850   6.508  0.4868  0.3559  0.5653
   76CHL1   H2A 8078   2.560   3.944   6.454  0.0530 -0.2238 -0.6531
   76CHL1   H2B 8079   2.431   3.828   6.480  0.8048 -1.5068  0.7187
   76CHL1   C20 8080   2.459   3.961   7.424  0.0162 -0.2795 -0.6450
   76CHL1   H20 8081   2.378   3.905   7.475 -0.0128 -0.4316 -0.8576
   76CHL1   C21 8082   2.407   4.086   7.357  0.1795 -0.8472 -0.1708
   76CHL1  H21A 8083   2.500   4.121   7.308  2.7953 -1.0336  4.0844
   76CHL1  H21B 8084   2.374   4.159   7.434  0.4040 -0.5372 -0.3656
   76CHL1  H21C 8085   2.324   4.065   7.287  0.4797  0.6674 -1.0366
   76CHL1   C22 8086   2.561   3.995   7.538  0.1671 -0.3352  0.1378
   76CHL1  H22A 8087   2.611   3.901   7.570  0.3651  0.4408  2.2553
   76CHL1  H22B 8088   2.638   4.059   7.489 -0.9043  1.1430  0.3244
   76CHL1   C23 8089   2.501   4.076   7.655 -0.2600  0.1356 -0.2430
   76CHL1  H23A 8090   2.583   4.099   7.727  0.0446 -4.1608  1.0879
   76CHL1  H23B 8091   2.447   4.166   7.618 -2.7565 -1.0831  0.1989
   76CHL1   C24 8092   2.399   3.993   7.734  0.0302 -0.9417 -0.4725
   76CHL1  H24A 8093   2.302   3.978   7.684 -1.0353 -0.2444  1.2825
   76CHL1  H24B 8094   2.446   3.895   7.756  0.9700 -0.2486  0.7773
   76CHL1   C25 8095   2.354   4.062   7.865  0.2891  0.8537  0.0382
   76CHL1   H25 8096   2.444   4.100   7.916  1.4014 -1.2206 -0.2646
   76CHL1   C26 8097   2.259   4.176   7.855  0.1884  0.5271  0.4283
   76CHL1  H26A 8098   2.288   4.254   7.781 -2.0270  0.7019 -0.3368
   76CHL1  H26B 8099   2.159   4.137   7.826 -0.1886  1.0443  1.0074
   76CHL1  H26C 8100   2.226   4.215   7.953 -1.3763 -0.8949  0.5123
   76CHL1   C27 8101   2.303   3.950   7.967 -0.5252  0.0985 -0.3445
   76CHL1  H27A 8102   2.204   3.910   7.934 -0.6097 -0.0506  0.0803
   76CHL1  H27B 8103   2.380   3.871   7.977 -0.7171 -1.0906 -5.5585
   76CHL1  H27C 8104   2.264   3.998   8.059 -0.1463 -1.9128  0.9322
   77CHL1    C3 8105   2.613   2.482   6.823  1.0494  0.6187 -0.0708
   77CHL1    H3 8106   2.630   2.375   6.846  0.4609  0.7859  1.2264
   77CHL1    O3 8107   2.633   2.509   6.684  0.1854  0.2939  0.0690
   77CHL1   H3' 8108   2.721   2.476   6.668  0.8939  1.7300  0.7822
   77CHL1    C4 8109   2.478   2.532   6.878 -0.7246 -0.0450 -0.2953
   77CHL1   H4A 8110   2.470   2.638   6.847  2.6939 -0.2055 -2.2191
   77CHL1   H4B 8111   2.399   2.480   6.819 -1.0956  1.1134 -0.8622
   77CHL1    C5 8112   2.469   2.518   7.030  0.3541  0.5262  0.0169
   77CHL1    C6 8113   2.368   2.451   7.087 -0.2772  0.2120 -0.1711
   77CHL1    H6 8114   2.291   2.404   7.024  0.4629 -2.3811  0.7584
   77CHL1    C7 8115   2.350   2.437   7.241 -0.3618 -0.5846  0.1962
   77CHL1   H7A 8116   2.245   2.455   7.272 -0.4184  0.5538 -0.5718
   77CHL1   H7B 8117   2.359   2.330   7.270 -2.1049 -0.9503 -0.4923
   77CHL1    C8 8118   2.458   2.511   7.325 -0.1523 -0.5955  0.0378
   77CHL1    H8 8119   2.424   2.617   7.332 -0.8785 -0.8852  1.0624
   77CHL1   C14 8120   2.466   2.448   7.464 -1.0098 -0.6805 -0.6375
   77CHL1   H14 8121   2.496   2.341   7.466 -1.4563 -0.8113  1.4586
   77CHL1   C15 8122   2.343   2.458   7.556  0.8991 -0.1700 -0.0877
   77CHL1  H15A 8123   2.299   2.557   7.535  2.2946  0.3462 -0.7110
   77CHL1  H15B 8124   2.263   2.386   7.527  1.9019 -0.4628 -2.3273
   77CHL1   C16 8125   2.395   2.434   7.696 -0.0530  0.3582 -0.4331
   77CHL1  H16A 8126   2.337   2.502   7.762 -1.7529 -0.0262 -1.4563
   77CHL1  H16B 8127   2.375   2.328   7.724 -1.0136  1.5633  4.2452
   77CHL1   C17 8128   2.551   2.442   7.688 -0.1873 -0.0875 -0.1340
   77CHL1   H17 8129   2.597   2.341   7.682  0.4103  0.1976 -0.4540
   77CHL1   C13 8130   2.572   2.516   7.555  0.5066  0.4848 -0.5710
   77CHL1   C18 8131   2.534   2.665   7.576  0.3820 -0.3643 -0.2134
   77CHL1  H18A 8132   2.607   2.705   7.649  0.5234  0.8938 -1.0072
   77CHL1  H18B 8133   2.519   2.714   7.477 -2.0273 -0.1533  0.2125
   77CHL1  H18C 8134   2.435   2.669   7.626  0.7271 -0.5083  0.4921
   77CHL1   C12 8135   2.708   2.505   7.484 -0.4490  0.0720 -0.2854
   77CHL1  H12A 8136   2.799   2.541   7.536  1.7122 -3.0353 -1.6192
   77CHL1  H12B 8137   2.716   2.395   7.469 -1.2414 -0.3899  2.2072
   77CHL1   C11 8138   2.711   2.572   7.345  0.0154  0.6490  0.2855
   77CHL1  H11A 8139   2.688   2.681   7.352 -0.6382  0.4930  0.6604
   77CHL1  H11B 8140   2.803   2.543   7.292  0.2678  0.1484  0.9832
   77CHL1    C9 8141   2.597   2.514   7.256  0.6362  0.0277 -0.1390
   77CHL1    H9 8142   2.619   2.405   7.246 -1.0604 -0.3972  0.4115
   77CHL1   C10 8143   2.592   2.570   7.109  0.1353  0.2353  0.6424
   77CHL1   C19 8144   2.582   2.727   7.108  0.0499 -0.2288 -0.0139
   77CHL1  H19A 8145   2.504   2.761   7.180  0.4920  0.2326  0.2585
   77CHL1  H19B 8146   2.675   2.779   7.140  1.0132 -0.4757 -2.2556
   77CHL1  H19C 8147   2.563   2.765   7.005  1.4964  0.4119 -0.0667
   77CHL1    C1 8148   2.727   2.524   7.044  0.5430  0.5389  0.4013
   77CHL1   H1A 8149   2.816   2.573   7.091 -0.4908  0.8950  2.0914
   77CHL1   H1B 8150   2.740   2.416   7.065 -1.1741  0.2663  0.1972
   77CHL1    C2 8151   2.724   2.551   6.896 -0.0718 -0.2031  0.0832
   77CHL1   H2A 8152   2.818   2.508   6.855 -0.7839 -0.8667 -0.9070
   77CHL1   H2B 8153   2.726   2.658   6.867  1.7069 -1.0051 -3.2341
   77CHL1   C20 8154   2.606   2.503   7.818 -0.2514 -0.0524  0.1721
   77CHL1   H20 8155   2.563   2.605   7.826 -1.9263 -0.8013  1.4447
   77CHL1   C21 8156   2.759   2.520   7.814 -0.2899 -0.0550  0.0001
   77CHL1  H21A 8157   2.793   2.600   7.745  1.4297 -1.5599 -0.9896
   77CHL1  H21B 8158   2.809   2.425   7.785  0.8320  0.3764  0.4460
   77CHL1  H21C 8159   2.804   2.562   7.906  2.0209  2.9006 -2.2747
   77CHL1   C22 8160   2.573   2.441   7.955  0.1382 -0.4840  0.5343
   77CHL1  H22A 8161   2.492   2.366   7.951  0.6917 -1.0770 -3.1552
   77CHL1  H22B 8162   2.661   2.381   7.987  0.5254 -0.4100 -0.3715
   77CHL1   C23 8163   2.536   2.531   8.074  0.1843  0.4629  1.0656
   77CHL1  H23A 8164   2.622   2.601   8.084 -1.0570  2.3456 -0.5434
   77CHL1  H23B 8165   2.447   2.593   8.049 -0.1479 -0.0935  0.8561
   77CHL1   C24 8166   2.511   2.442   8.192  0.6743  0.0213  0.0509
   77CHL1  H24A 8167   2.434   2.366   8.166  1.8548 -0.4973 -2.2440
   77CHL1  H24B 8168   2.610   2.395   8.211 -0.1016 -0.7381  2.4793
   77CHL1   C25 8169   2.467   2.514   8.321  0.0490 -0.1174  0.5461
   77CHL1   H25 8170   2.540   2.594   8.344 -0.7901  1.1981 -1.1553
   77CHL1   C26 8171   2.323   2.581   8.315  0.7262  0.4679  0.1175
   77CHL1  H26A 8172   2.252   2.501   8.287  0.5318  0.7428 -0.1818
   77CHL1  H26B 8173   2.293   2.616   8.416  3.2927 -0.3123  1.2432
   77CHL1  H26C 8174   2.322   2.657   8.234 -0.3045  0.5592  0.2105
   77CHL1   C27 8175   2.470   2.417   8.441 -0.2265 -0.2096 -0.3202
   77CHL1  H27A 8176   2.410   2.325   8.430 -1.2563  0.3879  0.1926
   77CHL1  H27B 8177   2.574   2.383   8.462 -0.2794  0.3151  0.8475
   77CHL1  H27C 8178   2.430   2.474   8.528 -0.8468  1.7644 -1.8231
   78CHL1    C3 8179   4.274   0.640   6.886 -0.4789 -0.8369 -0.1551
   78CHL1    H3 8180   4.303   0.536   6.912  0.7837 -0.5162 -0.2262
   78CHL1    O3 8181   4.270   0.645   6.747 -0.7889 -0.6037  0.1731
   78CHL1   H3' 8182   4.178   0.662   6.729  0.2093  2.6975 -3.0835
   78CHL1    C4 8183   4.139   0.672   6.946 -0.0935 -0.4330 -0.9831
   78CHL1   H4A 8184   4.091   0.767   6.914 -0.8889 -0.5738 -0.2360
   78CHL1   H4B 8185   4.070   0.595   6.906  0.8100 -0.9876 -1.5097
   78CHL1    C5 8186   4.151   0.660   7.095  1.1691  0.0302 -0.6773
   78CHL1    C6 8187   4.075   0.572   7.165  0.0056  0.6406 -0.2159
   78CHL1    H6 8188   4.008   0.501   7.115 -0.2360 -0.8805  2.0824
   78CHL1    C7 8189   4.088   0.555   7.315 -0.2101  0.1522 -0.1605
   78CHL1   H7A 8190   3.992   0.543   7.368  0.0368  1.3104  0.5830
   78CHL1   H7B 8191   4.150   0.464   7.332  0.0781  0.1794 -1.0210
   78CHL1    C8 8192   4.161   0.679   7.386  0.3279  0.1740  0.0318
   78CHL1    H8 8193   4.090   0.763   7.369  1.4538  0.8069 -1.7479
   78CHL1   C14 8194   4.181   0.641   7.531 -0.2083 -0.2952 -0.0496
   78CHL1   H14 8195   4.237   0.547   7.514 -0.0881  0.2713 -3.7134
   78CHL1   C15 8196   4.056   0.623   7.616 -0.9333 -0.6256  0.2988
   78CHL1  H15A 8197   3.987   0.708   7.600 -1.7010 -1.1142  0.9324
   78CHL1  H15B 8198   4.004   0.525   7.607  0.8761 -1.6187  0.1007
   78CHL1   C16 8199   4.117   0.625   7.761 -0.2003  0.9173 -1.0156
   78CHL1  H16A 8200   4.054   0.698   7.815 -2.0825 -0.8848 -0.6348
   78CHL1  H16B 8201   4.118   0.520   7.797  1.2253  0.2897 -2.7143
   78CHL1   C17 8202   4.260   0.669   7.752  0.3103  0.5643 -0.0516
   78CHL1   H17 8203   4.323   0.578   7.744 -1.0826 -0.4715  0.3045
   78CHL1   C13 8204   4.275   0.738   7.605  0.1429  0.7055  0.2597
   78CHL1   C18 8205   4.221   0.883   7.613 -0.1891 -0.4179 -0.1784
   78CHL1  H18A 8206   4.182   0.927   7.518 -0.0157 -3.7147 -1.9356
   78CHL1  H18B 8207   4.134   0.898   7.680  0.4190 -0.9476  0.7432
   78CHL1  H18C 8208   4.297   0.951   7.657 -1.2865  0.2595  0.6944
   78CHL1   C12 8209   4.409   0.722   7.532  0.3071 -0.5888  0.5643
   78CHL1  H12A 8210   4.496   0.781   7.570 -0.8942  1.0284  0.9458
   78CHL1  H12B 8211   4.446   0.618   7.528  0.0457 -0.6649  0.0360
   78CHL1   C11 8212   4.389   0.772   7.385  0.0612  0.2339  0.0313
   78CHL1  H11A 8213   4.351   0.876   7.390 -1.2266 -0.2185  0.0249
   78CHL1  H11B 8214   4.491   0.775   7.341  0.8755  0.9681  1.8343
   78CHL1    C9 8215   4.288   0.691   7.310 -0.1243  0.3263  0.4290
   78CHL1    H9 8216   4.330   0.590   7.289 -1.2701  0.3839 -2.7742
   78CHL1   C10 8217   4.258   0.733   7.163  0.0313 -0.2495 -0.4196
   78CHL1   C19 8218   4.225   0.886   7.149 -0.1427  0.0389 -0.6970
   78CHL1  H19A 8219   4.149   0.905   7.229 -0.8565  0.0143 -1.3599
   78CHL1  H19B 8220   4.321   0.936   7.173 -0.9783  0.3485  2.4828
   78CHL1  H19C 8221   4.186   0.920   7.051 -0.7238  1.5457  0.0283
   78CHL1    C1 8222   4.386   0.713   7.085  0.5245  0.2718 -0.7071
   78CHL1   H1A 8223   4.464   0.774   7.136 -0.7788  0.4448  1.1844
   78CHL1   H1B 8224   4.426   0.610   7.098  0.8205  0.7272  3.1386
   78CHL1    C2 8225   4.384   0.728   6.935 -0.7694  0.1179  0.5853
   78CHL1   H2A 8226   4.481   0.692   6.895 -1.4541 -2.6468  1.2585
   78CHL1   H2B 8227   4.361   0.831   6.898  0.6438 -0.3041 -1.6590
   78CHL1   C20 8228   4.307   0.735   7.880  0.3383 -0.0202  0.3445
   78CHL1   H20 8229   4.264   0.837   7.884  0.8654  0.2507 -0.6007
   78CHL1   C21 8230   4.457   0.749   7.866 -0.1839 -0.5665 -0.0787
   78CHL1  H21A 8231   4.483   0.816   7.781  1.1939 -0.1060  0.6749
   78CHL1  H21B 8232   4.513   0.653   7.869 -0.0001 -0.4712 -0.4282
   78CHL1  H21C 8233   4.491   0.809   7.952 -1.2493 -0.5441  0.3471
   78CHL1   C22 8234   4.281   0.655   8.011 -0.2488 -0.0125 -0.4255
   78CHL1  H22A 8235   4.267   0.545   7.998  2.3540 -0.6114  1.0543
   78CHL1  H22B 8236   4.373   0.666   8.072 -0.3072  1.7156 -0.6237
   78CHL1   C23 8237   4.184   0.723   8.105 -0.1277 -0.3888  0.5544
   78CHL1  H23A 8238   4.226   0.822   8.133 -1.4855  0.3214  0.1711
   78CHL1  H23B 8239   4.104   0.750   8.032  2.5702  0.9078 -2.1339
   78CHL1   C24 8240   4.130   0.656   8.233  0.1106  0.1862 -0.4199
   78CHL1  H24A 8241   4.094   0.552   8.221  2.2853 -1.0474  2.5873
   78CHL1  H24B 8242   4.215   0.643   8.303 -0.8961  0.5561  0.9164
   78CHL1   C25 8243   4.010   0.732   8.294 -0.1838 -0.3593 -0.4988
   78CHL1   H25 8244   3.922   0.699   8.236 -0.1777 -2.6228  0.6372
   78CHL1   C26 8245   3.973   0.665   8.434 -0.2900 -0.1359  0.0359
   78CHL1  H26A 8246   3.885   0.706   8.488 -2.3258 -2.1355 -1.5661
   78CHL1  H26B 8247   3.957   0.555   8.432  3.0878 -0.7453  0.8101
   78CHL1  H26C 8248   4.059   0.679   8.503 -0.8542  1.3447  0.4723
   78CHL1   C27 8249   4.012   0.889   8.300 -0.0815 -0.1701 -0.0863
   78CHL1  H27A 8250   4.089   0.916   8.376 -1.2993  1.8246  0.5155
   78CHL1  H27B 8251   4.039   0.952   8.212  2.2106  0.8470  1.2709
   78CHL1  H27C 8252   3.915   0.921   8.344  0.3356 -1.9491  2.2990
   79CHL1    C3 8253   2.006   6.764   9.995 -0.0609 -0.3326  0.2837
   79CHL1    H3 8254   1.964   6.666   9.962  2.5041 -1.0036 -1.2235
   79CHL1    O3 8255   1.990   6.778  10.133 -0.1019 -0.0467 -0.5247
   79CHL1   H3' 8256   2.043   6.855  10.152 -0.5574 -0.2046  1.5298
   79CHL1    C4 8257   2.152   6.775   9.966  0.1123 -0.1077 -0.9277
   79CHL1   H4A 8258   2.215   6.857  10.008  2.6629 -2.3039 -0.1554
   79CHL1   H4B 8259   2.191   6.678  10.004  1.4635  0.8152  0.1515
   79CHL1    C5 8260   2.188   6.793   9.826  0.4989  0.0183  0.6113
   79CHL1    C6 8261   2.269   6.712   9.761 -0.2936 -0.3795  0.4651
   79CHL1    H6 8262   2.310   6.618   9.802 -1.6713 -1.2961 -0.1873
   79CHL1    C7 8263   2.320   6.736   9.622 -0.0055 -0.5612 -0.1121
   79CHL1   H7A 8264   2.431   6.734   9.619  0.0081 -0.6114  0.4820
   79CHL1   H7B 8265   2.274   6.661   9.553 -0.8585 -0.7496  0.6488
   79CHL1    C8 8266   2.280   6.864   9.556  0.4035 -0.1520 -0.2580
   79CHL1    H8 8267   2.334   6.950   9.601 -0.7978  0.8711 -0.7023
   79CHL1   C14 8268   2.302   6.861   9.409  0.3359 -1.3368 -0.0983
   79CHL1   H14 8269   2.247   6.773   9.367 -0.9325 -0.8753  0.5287
   79CHL1   C15 8270   2.447   6.848   9.366 -0.4538  0.2378 -0.3052
   79CHL1  H15A 8271   2.504   6.930   9.414  1.3443 -0.2965 -1.4294
   79CHL1  H15B 8272   2.492   6.749   9.389 -2.2009 -0.8673 -1.3626
   79CHL1   C16 8273   2.440   6.870   9.215  0.2874  0.1308  0.7303
   79CHL1  H16A 8274   2.524   6.927   9.171  1.2307 -1.8959 -0.2021
   79CHL1  H16B 8275   2.444   6.773   9.162  1.5294  0.1164  0.8281
   79CHL1   C17 8276   2.302   6.939   9.188 -0.1069 -0.0512 -0.0108
   79CHL1   H17 8277   2.242   6.854   9.150 -0.3689 -1.0585  2.5012
   79CHL1   C13 8278   2.245   6.982   9.330 -0.2018  0.0351 -0.0286
   79CHL1   C18 8279   2.314   7.115   9.373 -0.3235  0.0194 -0.3095
   79CHL1  H18A 8280   2.248   7.195   9.332 -3.9990 -2.2205  0.7513
   79CHL1  H18B 8281   2.298   7.116   9.483 -0.7173 -2.5008 -0.2747
   79CHL1  H18C 8282   2.419   7.125   9.341 -0.9180  2.7921 -1.6951
   79CHL1   C12 8283   2.091   6.979   9.351  0.9900  0.2201 -0.8377
   79CHL1  H12A 8284   2.033   7.059   9.301 -0.9120  0.9070  2.2406
   79CHL1  H12B 8285   2.044   6.882   9.324 -0.2106  0.8371 -1.0240
   79CHL1   C11 8286   2.068   7.001   9.501  0.0802  0.2483  0.0737
   79CHL1  H11A 8287   2.098   7.102   9.536  0.5883  0.6085 -1.3405
   79CHL1  H11B 8288   1.958   6.998   9.517  0.1529 -0.6063  0.4817
   79CHL1    C9 8289   2.130   6.887   9.594 -0.4300 -0.4741  0.1313
   79CHL1    H9 8290   2.079   6.790   9.574 -1.6567  0.2503 -0.3508
   79CHL1   C10 8291   2.112   6.903   9.746  0.2477  0.8214  0.7538
   79CHL1   C19 8292   2.163   7.039   9.796 -0.2853 -0.1715 -0.3195
   79CHL1  H19A 8293   2.272   7.042   9.774 -0.4886 -2.6094 -2.1385
   79CHL1  H19B 8294   2.100   7.119   9.751 -2.1625 -1.7201 -0.5812
   79CHL1  H19C 8295   2.157   7.046   9.907 -1.1958 -0.5740 -0.3347
   79CHL1    C1 8296   1.962   6.886   9.782 -0.0554 -0.2123 -0.1274
   79CHL1   H1A 8297   1.910   6.976   9.744  2.0317  0.8428 -0.6421
   79CHL1   H1B 8298   1.918   6.793   9.739 -0.4019  0.1923 -0.6500
   79CHL1    C2 8299   1.931   6.879   9.933  0.3351 -0.4726 -0.1246
   79CHL1   H2A 8300   1.824   6.868   9.960  0.4890  0.3490  0.8815
   79CHL1   H2B 8301   1.953   6.978   9.978  2.4026 -1.2180  0.6671
   79CHL1   C20 8302   2.298   7.045   9.073 -0.5946 -0.7718 -0.5594
   79CHL1   H20 8303   2.379   7.120   9.091 -0.7777 -0.7973  0.4201
   79CHL1   C21 8304   2.157   7.109   9.056  0.6089 -0.0476  0.2823
   79CHL1  H21A 8305   2.113   7.161   9.144  0.5194 -0.3279  0.4043
   79CHL1  H21B 8306   2.088   7.030   9.019  0.6359 -0.9821  2.1509
   79CHL1  H21C 8307   2.163   7.182   8.972  3.3290  0.0034  0.4515
   79CHL1   C22 8308   2.333   6.973   8.942  0.3968 -0.5514  0.7333
   79CHL1  H22A 8309   2.430   6.922   8.960  1.0394  0.4565  0.2146
   79CHL1  H22B 8310   2.264   6.892   8.911  0.2271 -0.8754  1.9095
   79CHL1   C23 8311   2.353   7.071   8.823  0.4152 -0.0853 -0.7708
   79CHL1  H23A 8312   2.263   7.129   8.793 -1.6413 -2.6633  0.0241
   79CHL1  H23B 8313   2.431   7.141   8.861 -1.4064  2.0603 -0.7622
   79CHL1   C24 8314   2.417   6.997   8.703  0.0264  0.7345 -0.7870
   79CHL1  H24A 8315   2.498   6.938   8.752  0.4604  1.1150 -1.0336
   79CHL1  H24B 8316   2.350   6.923   8.654  1.3460 -1.2357  0.2645
   79CHL1   C25 8317   2.490   7.085   8.609 -0.0123 -0.0392 -0.0022
   79CHL1   H25 8318   2.573   7.133   8.666  2.7060 -3.7249 -0.4649
   79CHL1   C26 8319   2.554   7.008   8.490  0.7184 -0.1463 -0.3543
   79CHL1  H26A 8320   2.473   6.951   8.439 -0.1690 -2.0540  2.8928
   79CHL1  H26B 8321   2.595   7.077   8.414  1.0789 -0.5672 -0.5448
   79CHL1  H26C 8322   2.641   6.944   8.519  1.4535  0.5778 -0.9365
   79CHL1   C27 8323   2.389   7.185   8.550  0.9798  0.5001 -0.1673
   79CHL1  H27A 8324   2.327   7.238   8.625 -0.2710  0.3239 -1.0694
   79CHL1  H27B 8325   2.445   7.254   8.484  0.4556  1.4387  0.3553
   79CHL1  H27C 8326   2.322   7.125   8.485  0.1377 -0.9678  1.9043
   80CHL1    C3 8327   1.820   3.049   6.398  0.6308 -0.0251 -0.3422
   80CHL1    H3 8328   1.824   2.955   6.456  2.2352 -1.2830 -2.3141
   80CHL1    O3 8329   1.789   3.023   6.263 -0.2534  0.6051 -0.1438
   80CHL1   H3' 8330   1.693   3.020   6.261 -0.3288  1.6210  0.6657
   80CHL1    C4 8331   1.725   3.153   6.461  0.2818  0.1502 -0.7108
   80CHL1   H4A 8332   1.716   3.240   6.392  1.3053 -0.8423 -2.1499
   80CHL1   H4B 8333   1.624   3.109   6.462 -0.4075  1.6780  0.2469
   80CHL1    C5 8334   1.752   3.207   6.602  0.4389  0.2697  0.2382
   80CHL1    C6 8335   1.662   3.208   6.703 -0.5283  0.4305 -0.1407
   80CHL1    H6 8336   1.558   3.174   6.690 -0.3376 -0.7748  1.1920
   80CHL1    C7 8337   1.691   3.249   6.842  0.0500  0.3576 -0.0517
   80CHL1   H7A 8338   1.604   3.315   6.859 -0.6781  0.3522 -3.1256
   80CHL1   H7B 8339   1.688   3.166   6.916  1.6748  0.0738 -0.2661
   80CHL1    C8 8340   1.825   3.322   6.867 -0.0616  0.1493  0.3811
   80CHL1    H8 8341   1.809   3.431   6.851 -0.6191  0.8677  4.5156
   80CHL1   C14 8342   1.871   3.304   7.014  0.3414  0.1587  0.3108
   80CHL1   H14 8343   1.885   3.194   7.026 -0.7702 -0.0031  0.2380
   80CHL1   C15 8344   1.779   3.347   7.125 -0.8821  0.2219 -0.2617
   80CHL1  H15A 8345   1.751   3.455   7.122 -0.4048  0.3345 -1.4675
   80CHL1  H15B 8346   1.681   3.298   7.144  0.0488 -0.8033  2.2485
   80CHL1   C16 8347   1.869   3.317   7.244  0.3453  0.0129  0.1826
   80CHL1  H16A 8348   1.839   3.388   7.324  0.1492  1.4166 -1.1021
   80CHL1  H16B 8349   1.852   3.212   7.276  1.6283 -0.2098  0.2130
   80CHL1   C17 8350   2.015   3.323   7.196 -0.5174  0.2732 -0.1094
   80CHL1   H17 8351   2.051   3.218   7.187  0.4201  0.5670  0.0843
   80CHL1   C13 8352   2.005   3.360   7.049  0.2268  0.4313  0.3520
   80CHL1   C18 8353   1.998   3.515   7.035  0.3748  0.3589 -0.1254
   80CHL1  H18A 8354   1.949   3.566   7.121  0.3798 -1.9292  1.2991
   80CHL1  H18B 8355   2.101   3.557   7.041 -0.2266  1.8730  0.0475
   80CHL1  H18C 8356   1.959   3.546   6.936  0.2059  0.3156 -0.0732
   80CHL1   C12 8357   2.111   3.295   6.958  0.1694 -0.2677  0.0298
   80CHL1  H12A 8358   2.205   3.348   6.983  0.1036 -0.2414  0.2245
   80CHL1  H12B 8359   2.127   3.186   6.969  2.8741  0.2251  2.0565
   80CHL1   C11 8360   2.075   3.316   6.812 -0.1054 -0.1455 -0.0239
   80CHL1  H11A 8361   2.093   3.422   6.784 -0.3742 -0.4269 -1.3194
   80CHL1  H11B 8362   2.151   3.260   6.753  2.1961 -0.2147  2.8050
   80CHL1    C9 8363   1.933   3.261   6.777 -1.1477 -0.4510 -0.0212
   80CHL1    H9 8364   1.938   3.155   6.812 -1.9354 -0.7541 -0.8095
   80CHL1   C10 8365   1.898   3.250   6.626 -0.2490 -0.7039  0.5370
   80CHL1   C19 8366   1.924   3.397   6.563  0.0507  0.3542 -0.3645
   80CHL1  H19A 8367   1.867   3.472   6.621 -1.5469 -1.2130  0.1578
   80CHL1  H19B 8368   2.033   3.420   6.559  0.0129  0.5548 -0.2487
   80CHL1  H19C 8369   1.900   3.401   6.454 -0.0642 -0.9222 -0.3907
   80CHL1    C1 8370   1.991   3.147   6.550 -0.4153  0.4360  0.7834
   80CHL1   H1A 8371   2.098   3.178   6.550 -0.4828  0.6913  1.9929
   80CHL1   H1B 8372   1.984   3.059   6.617  2.6386 -0.4654  0.1066
   80CHL1    C2 8373   1.962   3.114   6.399 -0.2236 -0.2232 -0.2112
   80CHL1   H2A 8374   2.038   3.052   6.346 -1.3757 -1.1046 -0.8881
   80CHL1   H2B 8375   1.945   3.212   6.348 -2.0461 -0.8079 -0.8132
   80CHL1   C20 8376   2.114   3.396   7.299  0.1301  0.7169 -0.3236
   80CHL1   H20 8377   2.091   3.504   7.311  0.0786  0.6550  0.1645
   80CHL1   C21 8378   2.255   3.393   7.247  0.7226 -0.6232 -0.9932
   80CHL1  H21A 8379   2.273   3.463   7.163  1.1553  1.8851  1.0674
   80CHL1  H21B 8380   2.295   3.290   7.232  1.5277 -0.3671 -0.6629
   80CHL1  H21C 8381   2.324   3.424   7.329 -0.8520  2.1873 -0.6104
   80CHL1   C22 8382   2.121   3.341   7.445 -0.3134 -0.1478  0.1297
   80CHL1  H22A 8383   2.017   3.308   7.470 -0.8350  0.4670 -1.1510
   80CHL1  H22B 8384   2.209   3.274   7.458 -0.1874 -0.3236 -1.4953
   80CHL1   C23 8385   2.144   3.459   7.538  0.7905 -0.3596  0.1705
   80CHL1  H23A 8386   2.216   3.525   7.484 -0.4781 -0.5634 -1.8592
   80CHL1  H23B 8387   2.057   3.528   7.536 -0.2974 -1.7074 -0.0267
   80CHL1   C24 8388   2.174   3.414   7.685  0.3411  0.1646 -0.3152
   80CHL1  H24A 8389   2.075   3.388   7.729  1.7769 -1.7824  1.9841
   80CHL1  H24B 8390   2.246   3.330   7.693  0.1587  0.1273  1.3264
   80CHL1   C25 8391   2.243   3.516   7.788 -0.4719  0.5844  0.0579
   80CHL1   H25 8392   2.352   3.521   7.764  0.1552  2.2545  2.8165
   80CHL1   C26 8393   2.198   3.666   7.786 -0.4537 -0.1279  0.0310
   80CHL1  H26A 8394   2.090   3.673   7.814  0.0554  1.1212  1.8273
   80CHL1  H26B 8395   2.268   3.701   7.865  1.1482 -0.1699 -1.3218
   80CHL1  H26C 8396   2.219   3.735   7.701  1.2197  2.2324  2.2030
   80CHL1   C27 8397   2.223   3.469   7.930  0.0486  0.5847 -0.4261
   80CHL1  H27A 8398   2.251   3.550   8.000  0.0294 -0.5643  0.9607
   80CHL1  H27B 8399   2.114   3.450   7.940  0.4006 -2.0365 -0.7866
   80CHL1  H27C 8400   2.285   3.378   7.945 -0.8332  0.0233 -0.0731
   81CHL1    C3 8401   0.215   0.327   6.995  0.3156 -0.0004 -0.2174
   81CHL1    H3 8402   0.140   0.268   7.051 -1.8325  0.6538 -2.2767
   81CHL1    O3 8403   0.206   0.280   6.862  0.2873  0.3126 -0.0772
   81CHL1   H3' 8404   0.242   0.347   6.803  1.9805 -0.6818 -0.2372
   81CHL1    C4 8405   0.181   0.478   6.995  0.7587 -0.6367 -0.2512
   81CHL1   H4A 8406   0.244   0.529   6.920  0.5290  1.9143  1.1859
   81CHL1   H4B 8407   0.078   0.495   6.955  1.1271  4.4708  0.3189
   81CHL1    C5 8408   0.209   0.557   7.118 -0.3581 -0.9115 -0.1102
   81CHL1    C6 8409   0.123   0.635   7.184  0.2302 -0.4804 -0.2028
   81CHL1    H6 8410   0.023   0.645   7.138  0.2721 -0.0643 -0.2023
   81CHL1    C7 8411   0.154   0.719   7.312  0.2241 -0.2878  0.6681
   81CHL1   H7A 8412   0.151   0.829   7.295 -0.5139 -0.6350 -1.9509
   81CHL1   H7B 8413   0.077   0.694   7.387  1.1680 -2.8899  0.8744
   81CHL1    C8 8414   0.290   0.698   7.373  0.0517 -0.0667 -1.0416
   81CHL1    H8 8415   0.354   0.776   7.326 -2.7519  1.5762 -2.3678
   81CHL1   C14 8416   0.279   0.709   7.523 -0.1167 -0.3042  0.5933
   81CHL1   H14 8417   0.212   0.623   7.544 -0.4798 -0.2844 -0.4099
   81CHL1   C15 8418   0.222   0.835   7.582  0.1943  0.2135 -0.6355
   81CHL1  H15A 8419   0.282   0.916   7.537  2.3035 -1.5524 -1.1659
   81CHL1  H15B 8420   0.115   0.850   7.555 -0.3610 -1.5463  0.4245
   81CHL1   C16 8421   0.258   0.830   7.734  0.8590  0.9110  0.3123
   81CHL1  H16A 8422   0.318   0.913   7.777  0.3691  1.4494 -0.0177
   81CHL1  H16B 8423   0.177   0.798   7.803  1.9081 -1.7029  0.4465
   81CHL1   C17 8424   0.345   0.700   7.744 -0.1880  0.4764 -1.0625
   81CHL1   H17 8425   0.277   0.614   7.755  0.2221  0.1331 -1.1757
   81CHL1   C13 8426   0.401   0.672   7.604  0.2995 -0.4451  0.5758
   81CHL1   C18 8427   0.505   0.782   7.563 -1.1925 -0.4011  0.1685
   81CHL1  H18A 8428   0.482   0.881   7.608 -1.8381 -0.0000 -1.0092
   81CHL1  H18B 8429   0.609   0.749   7.585 -1.3027 -1.6659 -1.0293
   81CHL1  H18C 8430   0.505   0.804   7.454 -0.0289 -0.7132  0.0870
   81CHL1   C12 8431   0.450   0.533   7.571 -0.1322  0.1866 -0.3476
   81CHL1  H12A 8432   0.542   0.498   7.621  1.1273 -1.2311 -3.3712
   81CHL1  H12B 8433   0.367   0.462   7.591 -0.6854  0.1269 -2.5210
   81CHL1   C11 8434   0.473   0.526   7.417  0.0986 -0.0120 -0.0786
   81CHL1  H11A 8435   0.548   0.602   7.387  2.0997 -2.3290 -1.3019
   81CHL1  H11B 8436   0.511   0.423   7.397 -0.4390  0.2354 -2.6973
   81CHL1    C9 8437   0.342   0.554   7.334  0.1187 -1.1433  0.0253
   81CHL1    H9 8438   0.277   0.477   7.379  1.8402 -2.3359  0.6073
   81CHL1   C10 8439   0.349   0.523   7.182 -0.2292 -0.1454  0.0264
   81CHL1   C19 8440   0.456   0.604   7.112 -0.0204 -0.1736 -0.2293
   81CHL1  H19A 8441   0.439   0.713   7.118  0.9262  0.1168 -2.0181
   81CHL1  H19B 8442   0.560   0.586   7.146  0.5799  0.2920 -1.7184
   81CHL1  H19C 8443   0.471   0.574   7.006  1.9558 -1.0805  0.2518
   81CHL1    C1 8444   0.383   0.374   7.171 -0.7039 -0.1596 -0.3430
   81CHL1   H1A 8445   0.490   0.363   7.197 -0.0760  1.1455 -2.1488
   81CHL1   H1B 8446   0.328   0.311   7.244  1.2839 -2.1395 -0.4617
   81CHL1    C2 8447   0.356   0.300   7.036  0.0194 -0.1969  0.0070
   81CHL1   H2A 8448   0.370   0.190   7.041 -0.5265 -0.3688 -1.8024
   81CHL1   H2B 8449   0.432   0.335   6.963  0.5619 -1.2725  0.0224
   81CHL1   C20 8450   0.446   0.714   7.863 -0.0823 -0.1441 -0.5201
   81CHL1   H20 8451   0.513   0.800   7.845  0.6150 -1.0065 -2.3360
   81CHL1   C21 8452   0.544   0.593   7.859 -0.4593 -0.2866  0.0877
   81CHL1  H21A 8453   0.497   0.494   7.843  0.3061 -0.6909  0.2672
   81CHL1  H21B 8454   0.591   0.580   7.960  0.0882 -0.0238 -0.1271
   81CHL1  H21C 8455   0.626   0.607   7.786 -1.0732  2.4456 -0.1910
   81CHL1   C22 8456   0.365   0.730   7.999 -0.1370  0.0766  0.1999
   81CHL1  H22A 8457   0.296   0.816   8.012 -0.3987 -0.4042  2.3156
   81CHL1  H22B 8458   0.301   0.641   8.012  0.4452 -0.1119  1.9855
   81CHL1   C23 8459   0.448   0.743   8.136  0.3553  0.7946 -0.3965
   81CHL1  H23A 8460   0.520   0.659   8.144 -0.4083 -0.1168 -2.5693
   81CHL1  H23B 8461   0.499   0.842   8.138  0.1877  0.8675  0.4677
   81CHL1   C24 8462   0.351   0.740   8.252  0.0584  0.4252 -0.4053
   81CHL1  H24A 8463   0.258   0.797   8.234  0.1303  1.1894  1.4547
   81CHL1  H24B 8464   0.312   0.636   8.265  0.0309  0.3588 -0.9959
   81CHL1   C25 8465   0.411   0.785   8.388 -0.1035  0.3179 -0.1325
   81CHL1   H25 8466   0.470   0.873   8.352  1.1105 -0.5350 -0.2964
   81CHL1   C26 8467   0.302   0.816   8.490 -0.4003  0.2783  0.5511
   81CHL1  H26A 8468   0.226   0.891   8.459 -1.1284  0.2894  2.2741
   81CHL1  H26B 8469   0.258   0.719   8.522  0.3962 -1.0284 -1.9852
   81CHL1  H26C 8470   0.332   0.848   8.592 -0.1688 -0.6645  0.7882
   81CHL1   C27 8471   0.517   0.694   8.442  0.3722 -0.3040  0.2516
   81CHL1  H27A 8472   0.553   0.729   8.541 -1.2609  2.4455 -0.0127
   81CHL1  H27B 8473   0.472   0.594   8.457 -0.2790 -0.0705 -0.1362
   81CHL1  H27C 8474   0.602   0.666   8.376 -0.6497 -3.9403  0.2970
   82CHL1    C3 8475   1.091   1.133   6.883 -0.1733 -0.4227 -0.0609
   82CHL1    H3 8476   1.030   1.055   6.935 -0.5550  0.1060  0.2930
   82CHL1    O3 8477   1.110   1.110   6.741 -0.0643  0.2261 -0.5038
   82CHL1   H3' 8478   1.186   1.162   6.714  1.3663 -1.0529  0.8802
   82CHL1    C4 8479   1.031   1.271   6.904  0.0475  0.4779 -0.0595
   82CHL1   H4A 8480   1.095   1.345   6.851  0.9496  2.0127  2.9050
   82CHL1   H4B 8481   0.931   1.266   6.855 -0.7664  2.6688  1.2290
   82CHL1    C5 8482   1.022   1.304   7.050 -0.1781 -0.5880 -0.2769
   82CHL1    C6 8483   0.902   1.335   7.100 -0.8485  0.9989  0.2649
   82CHL1    H6 8484   0.812   1.327   7.037 -1.7090  0.9608  1.4546
   82CHL1    C7 8485   0.884   1.385   7.244  0.5150 -0.2359 -0.3162
   82CHL1   H7A 8486   0.814   1.471   7.234 -0.3445 -1.1394 -2.7897
   82CHL1   H7B 8487   0.851   1.301   7.308  1.4255 -1.7011 -1.6992
   82CHL1    C8 8488   1.017   1.426   7.313 -0.1263 -0.3426 -0.2487
   82CHL1    H8 8489   1.055   1.522   7.272  2.0044 -1.0794 -0.1189
   82CHL1   C14 8490   0.999   1.447   7.463  0.0321  0.4812 -0.4927
   82CHL1   H14 8491   0.946   1.359   7.505 -0.3478  0.9275 -0.0110
   82CHL1   C15 8492   0.902   1.563   7.498  0.7527  0.5246  0.2724
   82CHL1  H15A 8493   0.932   1.653   7.440  1.4158  2.1727  2.9838
   82CHL1  H15B 8494   0.793   1.542   7.496  0.9032 -0.1993 -1.6564
   82CHL1   C16 8495   0.939   1.589   7.643  0.3538  0.3132 -0.1647
   82CHL1  H16A 8496   0.962   1.694   7.672 -1.7411  1.4901 -2.4243
   82CHL1  H16B 8497   0.848   1.564   7.700  1.2169  2.3892  2.3452
   82CHL1   C17 8498   1.062   1.498   7.676 -0.3642 -0.6535 -0.0981
   82CHL1   H17 8499   1.021   1.400   7.710 -0.9300 -1.1272 -2.0372
   82CHL1   C13 8500   1.127   1.472   7.535 -0.0247 -0.2231  0.1034
   82CHL1   C18 8501   1.199   1.610   7.500 -0.8986 -0.1973 -0.5360
   82CHL1  H18A 8502   1.302   1.589   7.536 -0.7555 -1.5839 -1.6928
   82CHL1  H18B 8503   1.196   1.628   7.391  0.1743  4.2087 -0.0216
   82CHL1  H18C 8504   1.150   1.696   7.549 -0.6618 -0.2205 -0.2546
   82CHL1   C12 8505   1.220   1.347   7.519 -0.0263 -0.1851  0.0285
   82CHL1  H12A 8506   1.311   1.357   7.582 -0.5486  1.8862  0.5140
   82CHL1  H12B 8507   1.166   1.259   7.560 -0.1122 -0.2868 -0.3001
   82CHL1   C11 8508   1.255   1.323   7.376  0.3744  0.2569 -0.1099
   82CHL1  H11A 8509   1.312   1.407   7.333 -0.8473  1.0442 -0.2494
   82CHL1  H11B 8510   1.308   1.226   7.359  0.6774  0.6881 -1.8380
   82CHL1    C9 8511   1.123   1.318   7.293 -0.7474 -0.4110 -0.3742
   82CHL1    H9 8512   1.073   1.222   7.317 -0.8575 -0.2203  0.1834
   82CHL1   C10 8513   1.148   1.302   7.138  0.2591 -0.0190 -0.1685
   82CHL1   C19 8514   1.229   1.428   7.091  0.0073  0.1608  0.0192
   82CHL1  H19A 8515   1.327   1.435   7.143  0.2894 -0.6095 -0.3941
   82CHL1  H19B 8516   1.249   1.428   6.981 -2.2818 -1.4356 -0.4803
   82CHL1  H19C 8517   1.170   1.520   7.107 -0.4102 -0.0512 -0.2643
   82CHL1    C1 8518   1.217   1.165   7.097 -0.1727 -0.2354 -0.1828
   82CHL1   H1A 8519   1.321   1.163   7.137 -0.6518 -0.6832  1.1199
   82CHL1   H1B 8520   1.161   1.079   7.140  0.3848 -1.3363 -1.5917
   82CHL1    C2 8521   1.231   1.132   6.947  0.2590  0.0777  0.0300
   82CHL1   H2A 8522   1.289   1.038   6.934 -0.2353 -0.0080 -1.6862
   82CHL1   H2B 8523   1.291   1.215   6.904  1.0517  0.5364  1.9006
   82CHL1   C20 8524   1.148   1.555   7.787 -0.3063  0.1313  0.0277
   82CHL1   H20 8525   1.229   1.620   7.747  1.0307 -2.2854 -1.4359
   82CHL1   C21 8526   1.234   1.444   7.858 -0.2107  0.0094 -0.0097
   82CHL1  H21A 8527   1.308   1.493   7.924 -1.2963  0.5040  0.8757
   82CHL1  H21B 8528   1.299   1.400   7.779  0.8707  1.5564 -0.0108
   82CHL1  H21C 8529   1.163   1.373   7.907 -0.4501 -0.8947 -1.5854
   82CHL1   C22 8530   1.078   1.644   7.890 -0.9347  0.2692  0.5441
   82CHL1  H22A 8531   1.155   1.671   7.965  0.1722  0.8258 -0.7571
   82CHL1  H22B 8532   1.037   1.738   7.848  1.0716  0.6241 -0.7550
   82CHL1   C23 8533   0.953   1.578   7.962 -0.1537 -0.0402  0.4248
   82CHL1  H23A 8534   0.868   1.543   7.899 -0.2289 -0.7465  0.9028
   82CHL1  H23B 8535   0.985   1.483   8.010  1.3378 -0.1307 -0.6784
   82CHL1   C24 8536   0.895   1.669   8.074 -0.0155 -0.3043  0.1198
   82CHL1  H24A 8537   0.979   1.733   8.109  1.3110 -0.9440 -1.6993
   82CHL1  H24B 8538   0.814   1.738   8.043  1.0794  0.5955 -0.8308
   82CHL1   C25 8539   0.860   1.586   8.205  0.5303 -0.1494 -0.5949
   82CHL1   H25 8540   0.950   1.525   8.227  0.3210 -0.0900  0.4464
   82CHL1   C26 8541   0.825   1.673   8.319 -0.8934  0.1669  0.1674
   82CHL1  H26A 8542   0.898   1.752   8.347 -1.8206  1.0757  0.1232
   82CHL1  H26B 8543   0.726   1.721   8.304 -1.0270 -0.0780  0.2604
   82CHL1  H26C 8544   0.804   1.619   8.413 -3.8340  0.5926 -0.1523
   82CHL1   C27 8545   0.748   1.482   8.199 -0.2128  0.0836  0.0600
   82CHL1  H27A 8546   0.767   1.411   8.116 -1.3453  0.2495 -0.3613
   82CHL1  H27B 8547   0.742   1.426   8.295 -0.2658  2.3902  1.4851
   82CHL1  H27C 8548   0.647   1.526   8.185 -0.4726 -1.0661 -2.0943
   83CHL1    C3 8549   4.404   2.220   6.769  0.3017  0.5784  0.4561
   83CHL1    H3 8550   4.307   2.264   6.800  0.7745  2.3069 -0.3686
   83CHL1    O3 8551   4.409   2.197   6.631 -0.1667  0.3384  0.3888
   83CHL1   H3' 8552   4.409   2.282   6.587  1.6816  0.4643  0.5700
   83CHL1    C4 8553   4.514   2.329   6.800  0.2243  0.2002 -0.2205
   83CHL1   H4A 8554   4.612   2.305   6.752  0.9180 -2.7664  2.3393
   83CHL1   H4B 8555   4.480   2.428   6.765  0.7862  1.0978  1.6023
   83CHL1    C5 8556   4.537   2.361   6.949 -0.5528  0.0858  0.1649
   83CHL1    C6 8557   4.519   2.481   6.999 -0.2693 -0.4164 -0.4872
   83CHL1    H6 8558   4.481   2.559   6.931 -2.0441 -1.4931 -0.7915
   83CHL1    C7 8559   4.547   2.509   7.143 -0.1359 -0.4073  0.5685
   83CHL1   H7A 8560   4.609   2.601   7.147  0.9369 -1.0384 -0.5996
   83CHL1   H7B 8561   4.451   2.530   7.193  1.8487  2.2060  3.6358
   83CHL1    C8 8562   4.612   2.396   7.228 -0.1053 -0.1905  0.3982
   83CHL1    H8 8563   4.717   2.411   7.195 -0.7751  0.6279 -1.5387
   83CHL1   C14 8564   4.605   2.428   7.377 -0.0106  0.0482 -0.0555
   83CHL1   H14 8565   4.497   2.433   7.405  0.0436 -1.7993  0.6399
   83CHL1   C15 8566   4.665   2.562   7.436  0.0745 -0.9865  0.8099
   83CHL1  H15A 8567   4.749   2.598   7.373 -0.7671 -0.3290  0.0257
   83CHL1  H15B 8568   4.589   2.642   7.434  0.5699 -0.4676  1.8821
   83CHL1   C16 8569   4.696   2.535   7.582 -0.6283  0.6790  0.2972
   83CHL1  H16A 8570   4.803   2.559   7.600 -0.6765  1.5678 -0.5024
   83CHL1  H16B 8571   4.628   2.591   7.649 -2.1661 -0.7555  0.0115
   83CHL1   C17 8572   4.663   2.387   7.609  0.1680 -0.2608 -0.3654
   83CHL1   H17 8573   4.559   2.382   7.647  0.2057 -2.2701 -0.4053
   83CHL1   C13 8574   4.670   2.319   7.465  0.1012 -0.1657  0.2265
   83CHL1   C18 8575   4.816   2.309   7.421  0.1226 -0.1893 -0.6124
   83CHL1  H18A 8576   4.822   2.286   7.312 -3.0613  1.9848 -1.4041
   83CHL1  H18B 8577   4.865   2.408   7.439  2.5183 -1.4621  0.3899
   83CHL1  H18C 8578   4.864   2.222   7.470  0.6846 -0.4695 -1.6337
   83CHL1   C12 8579   4.591   2.188   7.442  0.2707  0.0691 -0.2669
   83CHL1  H12A 8580   4.636   2.105   7.500 -0.3843  0.0684  0.2471
   83CHL1  H12B 8581   4.487   2.210   7.476  1.0749 -0.5541  2.8167
   83CHL1   C11 8582   4.597   2.148   7.291  0.2096 -0.4612  0.0748
   83CHL1  H11A 8583   4.700   2.126   7.256  0.7863 -1.4037  2.2195
   83CHL1  H11B 8584   4.548   2.050   7.275  0.0218 -0.4517  0.5595
   83CHL1    C9 8585   4.547   2.260   7.193 -0.1068 -0.3070  0.4381
   83CHL1    H9 8586   4.438   2.279   7.209 -0.5382 -1.5006 -0.8807
   83CHL1   C10 8587   4.560   2.231   7.044  0.0173  0.2502  0.7421
   83CHL1   C19 8588   4.700   2.186   7.009  0.2298  1.1825  0.6503
   83CHL1  H19A 8589   4.780   2.261   7.026  2.5085  0.0560 -3.5785
   83CHL1  H19B 8590   4.732   2.089   7.052 -0.1571  0.0334 -1.5373
   83CHL1  H19C 8591   4.702   2.184   6.898  0.7975  2.4204  0.6162
   83CHL1    C1 8592   4.458   2.119   7.001  0.4718  0.4243  1.0495
   83CHL1   H1A 8593   4.481   2.029   7.062 -1.4813 -1.6513 -1.0723
   83CHL1   H1B 8594   4.354   2.137   7.037  0.4443 -0.4612  1.4187
   83CHL1    C2 8595   4.445   2.093   6.849  0.2679  0.0236 -0.3832
   83CHL1   H2A 8596   4.376   2.006   6.838  1.5249 -1.1769  0.8250
   83CHL1   H2B 8597   4.539   2.052   6.804  0.3067  0.7036 -0.9393
   83CHL1   C20 8598   4.743   2.322   7.725  0.2346  0.5064  0.1638
   83CHL1   H20 8599   4.848   2.317   7.691 -0.0472 -0.8037 -0.5675
   83CHL1   C21 8600   4.685   2.176   7.763 -0.6185 -0.2428  0.6823
   83CHL1  H21A 8601   4.710   2.108   7.679 -2.1010  1.8140 -1.5434
   83CHL1  H21B 8602   4.575   2.179   7.779 -0.8082  0.8477 -0.6757
   83CHL1  H21C 8603   4.731   2.147   7.860 -0.1571  0.9597  0.8312
   83CHL1   C22 8604   4.734   2.409   7.843 -0.4553 -1.0010 -0.8251
   83CHL1  H22A 8605   4.758   2.516   7.822 -0.5451 -1.1820 -1.8587
   83CHL1  H22B 8606   4.631   2.415   7.885  0.6165 -2.6008  2.3696
   83CHL1   C23 8607   4.821   2.371   7.969  0.8000  0.6094  0.3368
   83CHL1  H23A 8608   4.819   2.449   8.048 -2.6635 -0.5984  1.6300
   83CHL1  H23B 8609   4.775   2.282   8.018  0.2674  1.5251  1.5446
   83CHL1   C24 8610   4.972   2.335   7.948  0.7028  0.0897  0.0903
   83CHL1  H24A 8611   4.987   2.247   7.882  1.0781 -1.4142  2.1083
   83CHL1  H24B 8612   5.020   2.419   7.894  0.5376  0.4091  0.4370
   83CHL1   C25 8613   5.046   2.301   8.077  0.7904  0.3609  0.2572
   83CHL1   H25 8614   5.017   2.386   8.142 -1.2532 -0.2437  0.2196
   83CHL1   C26 8615   4.992   2.172   8.142 -0.4908  0.2831  0.1592
   83CHL1  H26A 8616   4.914   2.202   8.216 -0.5567 -0.0424  0.2228
   83CHL1  H26B 8617   4.945   2.100   8.071  0.0794  0.3336 -0.2790
   83CHL1  H26C 8618   5.066   2.102   8.184 -0.2012  1.0144  0.9022
   83CHL1   C27 8619   5.196   2.286   8.058  0.8338 -0.6315  0.0570
   83CHL1  H27A 8620   5.230   2.213   7.982  1.8027  0.1314 -0.2676
   83CHL1  H27B 8621   5.240   2.386   8.039  0.0179  0.0419  1.4682
   83CHL1  H27C 8622   5.237   2.257   8.157  1.7590  3.5427  1.1179
   84CHL1    C3 8623   1.248   1.712   6.809 -0.2692 -0.0815  0.6084
   84CHL1    H3 8624   1.256   1.613   6.859  1.3939 -0.4283 -0.2961
   84CHL1    O3 8625   1.277   1.697   6.677 -0.0651 -0.0302  0.2317
   84CHL1   H3' 8626   1.266   1.782   6.634  0.9494 -0.7113 -1.4906
   84CHL1    C4 8627   1.105   1.769   6.835 -1.0231 -0.4074 -0.1640
   84CHL1   H4A 8628   1.093   1.858   6.769  1.1657  0.9962  1.1720
   84CHL1   H4B 8629   1.030   1.694   6.802 -0.5970 -1.6618  1.5590
   84CHL1    C5 8630   1.075   1.821   6.979 -1.1667  1.1293  0.3972
   84CHL1    C6 8631   0.962   1.785   7.038 -0.1542  0.0832  0.2339
   84CHL1    H6 8632   0.893   1.716   6.988  2.7589 -2.5210 -0.4528
   84CHL1    C7 8633   0.922   1.830   7.178  0.0300 -0.5798  0.0883
   84CHL1   H7A 8634   0.814   1.855   7.182  0.3740  1.1339 -0.6622
   84CHL1   H7B 8635   0.926   1.742   7.246 -3.7671  0.7525  2.3086
   84CHL1    C8 8636   1.011   1.938   7.241 -0.1312 -0.0963 -0.1069
   84CHL1    H8 8637   0.975   2.034   7.199  2.4923  0.3561 -1.5727
   84CHL1   C14 8638   0.998   1.950   7.396  0.1357  0.1327  1.3915
   84CHL1   H14 8639   1.038   1.855   7.438  1.5293  0.3036  0.5042
   84CHL1   C15 8640   0.867   1.971   7.459 -0.2118 -0.4643  0.5979
   84CHL1  H15A 8641   0.805   2.048   7.408 -0.2249  0.0474  1.3755
   84CHL1  H15B 8642   0.810   1.876   7.463  1.5565 -1.5638  1.0083
   84CHL1   C16 8643   0.890   2.027   7.597 -0.7331 -0.6681 -0.3010
   84CHL1  H16A 8644   0.832   2.121   7.608 -0.0800 -0.2825 -0.1569
   84CHL1  H16B 8645   0.859   1.954   7.675 -0.5075 -0.7490 -0.2876
   84CHL1   C17 8646   1.039   2.055   7.603 -0.2557  0.3510  0.6894
   84CHL1   H17 8647   1.085   1.963   7.644 -1.7188 -1.6178 -1.7360
   84CHL1   C13 8648   1.088   2.057   7.458 -0.1086  0.5581 -0.1041
   84CHL1   C18 8649   1.055   2.195   7.393  0.2637 -0.1548 -0.0192
   84CHL1  H18A 8650   1.080   2.186   7.285  1.1394 -0.4650  0.2013
   84CHL1  H18B 8651   0.947   2.221   7.392  0.0788 -0.6057 -3.3543
   84CHL1  H18C 8652   1.108   2.273   7.451  0.8663 -1.0421  0.6722
   84CHL1   C12 8653   1.234   2.030   7.427  0.0426 -0.0420  0.2878
   84CHL1  H12A 8654   1.296   2.111   7.471 -0.7743  1.0165 -0.4370
   84CHL1  H12B 8655   1.250   1.930   7.473  0.7214 -0.5093 -0.9260
   84CHL1   C11 8656   1.265   2.009   7.277  0.1372 -0.2650  0.1986
   84CHL1  H11A 8657   1.279   2.108   7.228 -0.6266  1.4503  3.1532
   84CHL1  H11B 8658   1.361   1.955   7.279  0.9357  1.1138  2.1912
   84CHL1    C9 8659   1.161   1.912   7.202 -0.4166 -0.2450 -0.5740
   84CHL1    H9 8660   1.189   1.812   7.241  0.5413  0.0186 -0.5615
   84CHL1   C10 8661   1.188   1.893   7.051  0.1197  0.1053 -0.8542
   84CHL1   C19 8662   1.176   2.029   6.990 -0.1300  0.2180 -0.3798
   84CHL1  H19A 8663   1.088   2.090   7.020 -0.9675 -0.9812 -0.3129
   84CHL1  H19B 8664   1.260   2.098   7.015  2.0198 -2.2973 -0.1982
   84CHL1  H19C 8665   1.168   2.023   6.879  1.6217 -0.5118 -0.5042
   84CHL1    C1 8666   1.321   1.810   7.028  0.2548  0.5916  0.5884
   84CHL1   H1A 8667   1.408   1.861   7.073 -0.6505  1.1771  1.7211
   84CHL1   H1B 8668   1.313   1.706   7.067  1.1201 -0.4632 -1.8146
   84CHL1    C2 8669   1.355   1.802   6.878  0.5326  0.1224  0.2604
   84CHL1   H2A 8670   1.453   1.752   6.866  1.3114  1.1378  1.9138
   84CHL1   H2B 8671   1.351   1.895   6.818 -0.6435 -1.3650 -2.1031
   84CHL1   C20 8672   1.065   2.170   7.691  0.6487 -0.2793 -0.1590
   84CHL1   H20 8673   1.013   2.258   7.649 -1.3481 -1.3718 -0.1039
   84CHL1   C21 8674   1.215   2.185   7.713 -0.2541 -0.6818 -0.7249
   84CHL1  H21A 8675   1.249   2.249   7.798  0.8664 -0.8854 -1.0069
   84CHL1  H21B 8676   1.255   2.233   7.621  0.0056 -0.4081 -0.4735
   84CHL1  H21C 8677   1.266   2.088   7.728 -1.0208 -1.0575 -0.5115
   84CHL1   C22 8678   0.999   2.153   7.829 -0.4507 -0.0732  0.1987
   84CHL1  H22A 8679   1.020   2.250   7.879 -0.5709 -0.1000  0.3010
   84CHL1  H22B 8680   0.889   2.144   7.828 -0.3987 -0.7146 -0.2179
   84CHL1   C23 8681   1.053   2.043   7.919  0.6670 -0.5958 -0.0880
   84CHL1  H23A 8682   1.023   1.948   7.870 -0.2588 -0.0120 -0.6747
   84CHL1  H23B 8683   1.163   2.052   7.937  0.9436 -1.0046 -1.4061
   84CHL1   C24 8684   0.990   2.043   8.059  0.2391  0.2124  0.0995
   84CHL1  H24A 8685   0.883   2.011   8.055  0.8943 -2.7121  2.6836
   84CHL1  H24B 8686   1.025   1.956   8.118 -2.3706 -1.4430 -0.6041
   84CHL1   C25 8687   1.001   2.164   8.146  0.0718 -0.3756 -0.6526
   84CHL1   H25 8688   0.935   2.248   8.112 -0.5084 -0.6468 -0.2154
   84CHL1   C26 8689   0.927   2.125   8.287 -0.2726  0.7249 -0.2086
   84CHL1  H26A 8690   0.964   2.024   8.314  2.3742  2.0969  1.8108
   84CHL1  H26B 8691   0.973   2.193   8.362  0.6843  0.7015 -0.7564
   84CHL1  H26C 8692   0.816   2.119   8.278 -0.4191 -0.5889  1.7891
   84CHL1   C27 8693   1.139   2.209   8.163  0.0281  0.2119  0.2543
   84CHL1  H27A 8694   1.196   2.130   8.216  2.3971  0.4845 -1.7478
   84CHL1  H27B 8695   1.193   2.238   8.070 -1.6324  2.1766 -0.1774
   84CHL1  H27C 8696   1.140   2.303   8.224 -1.5896  0.8926 -0.7007
   85CHL1    C3 8697   6.568   2.619  10.085  0.7568 -0.7386  0.5646
   85CHL1    H3 8698   6.675   2.631  10.056  0.3084 -0.4479 -1.0667
   85CHL1    O3 8699   6.556   2.590  10.221  0.0118 -0.4497  0.0980
   85CHL1   H3' 8700   6.501   2.515  10.242 -1.1959  0.1404 -0.8224
   85CHL1    C4 8701   6.482   2.737  10.035 -0.8279  0.4489 -0.3567
   85CHL1   H4A 8702   6.379   2.716  10.073 -0.3360 -2.2609 -0.3157
   85CHL1   H4B 8703   6.530   2.821  10.090  2.7788 -0.9906 -1.0560
   85CHL1    C5 8704   6.481   2.759   9.888  0.3405 -0.1621  0.1964
   85CHL1    C6 8705   6.524   2.874   9.829  0.7301 -0.5175  0.1165
   85CHL1    H6 8706   6.563   2.954   9.893  0.0910  1.0901 -1.4107
   85CHL1    C7 8707   6.501   2.908   9.678  0.6785  0.7311 -0.4099
   85CHL1   H7A 8708   6.447   3.005   9.680 -1.0787 -0.2145  1.3119
   85CHL1   H7B 8709   6.596   2.921   9.621  0.2115 -1.0189 -1.6636
   85CHL1    C8 8710   6.412   2.804   9.608 -0.1146  0.4210  0.7703
   85CHL1    H8 8711   6.306   2.831   9.630  0.4696  2.9766  0.6968
   85CHL1   C14 8712   6.449   2.812   9.459  0.1644 -0.2114 -0.5503
   85CHL1   H14 8713   6.557   2.789   9.445  0.6871  1.3368  0.5882
   85CHL1   C15 8714   6.434   2.955   9.390  0.1017  0.6409  1.0323
   85CHL1  H15A 8715   6.362   3.022   9.442  0.4006  1.8881 -0.0925
   85CHL1  H15B 8716   6.534   3.004   9.380 -0.1040  0.8083 -0.3765
   85CHL1   C16 8717   6.399   2.919   9.250 -0.1689 -0.0290  0.5713
   85CHL1  H16A 8718   6.300   2.958   9.217 -0.7613 -2.3697 -0.7047
   85CHL1  H16B 8719   6.460   2.964   9.169  0.3882 -3.9142 -1.4393
   85CHL1   C17 8720   6.402   2.759   9.238  0.3308  0.0797 -0.1946
   85CHL1   H17 8721   6.507   2.727   9.221  0.6989  2.1078 -2.0948
   85CHL1   C13 8722   6.371   2.709   9.380  0.3573 -0.3820  0.3504
   85CHL1   C18 8723   6.217   2.716   9.413  0.2537 -0.0205 -0.2387
   85CHL1  H18A 8724   6.186   2.821   9.395 -0.4368 -0.1017  0.4323
   85CHL1  H18B 8725   6.165   2.651   9.340  1.9553  0.6826 -2.1858
   85CHL1  H18C 8726   6.194   2.690   9.519  0.4291 -1.2692 -0.4898
   85CHL1   C12 8727   6.428   2.574   9.418 -0.1408  0.4947  0.8289
   85CHL1  H12A 8728   6.377   2.492   9.363  0.1943  0.4181  0.6323
   85CHL1  H12B 8729   6.535   2.556   9.394 -0.9286 -2.0117 -1.3377
   85CHL1   C11 8730   6.408   2.543   9.565  0.9058  0.3928  0.0597
   85CHL1  H11A 8731   6.302   2.519   9.587  1.2571  0.6214  2.2242
   85CHL1  H11B 8732   6.473   2.457   9.594 -0.2541 -0.1749  1.0497
   85CHL1    C9 8733   6.455   2.663   9.654 -0.0650  0.2082  0.5752
   85CHL1    H9 8734   6.565   2.666   9.642  0.0703  1.9676  1.8426
   85CHL1   C10 8735   6.434   2.639   9.805 -0.4088  0.0516  0.0783
   85CHL1   C19 8736   6.281   2.629   9.832 -0.4892 -1.1821 -0.0996
   85CHL1  H19A 8737   6.223   2.549   9.783 -1.9124 -0.6914  0.7084
   85CHL1  H19B 8738   6.257   2.631   9.941 -1.2202 -0.4820 -0.2629
   85CHL1  H19C 8739   6.236   2.722   9.791  1.8527 -0.0728 -0.3217
   85CHL1    C1 8740   6.526   2.517   9.855 -0.1618  0.3090  0.4388
   85CHL1   H1A 8741   6.480   2.427   9.808 -0.8047  0.8692 -0.0147
   85CHL1   H1B 8742   6.630   2.538   9.821 -0.6362  1.9896 -0.0584
   85CHL1    C2 8743   6.518   2.497  10.009  0.5055 -0.3363 -0.2390
   85CHL1   H2A 8744   6.589   2.416  10.036  0.9593  0.3374  0.6447
   85CHL1   H2B 8745   6.412   2.470  10.029  0.5891  0.5368  1.6514
   85CHL1   C20 8746   6.314   2.715   9.119 -0.0558 -0.6905 -0.0404
   85CHL1   H20 8747   6.211   2.695   9.155  0.2007  0.3430  1.3321
   85CHL1   C21 8748   6.368   2.582   9.078 -0.1235  0.0640 -0.2564
   85CHL1  H21A 8749   6.400   2.510   9.156  1.1205 -0.0214 -0.8124
   85CHL1  H21B 8750   6.457   2.587   9.011  0.6585 -0.5266  0.7080
   85CHL1  H21C 8751   6.305   2.528   9.004  0.7987 -2.1105  0.4624
   85CHL1   C22 8752   6.309   2.806   8.998  0.5008  0.3417 -0.3358
   85CHL1  H22A 8753   6.248   2.896   9.021 -1.8100 -0.2279 -3.5793
   85CHL1  H22B 8754   6.412   2.833   8.968  0.9286 -0.2324  0.5816
   85CHL1   C23 8755   6.245   2.755   8.866  0.3846  0.2552  0.7396
   85CHL1  H23A 8756   6.322   2.694   8.814 -1.4212 -0.0643 -1.7982
   85CHL1  H23B 8757   6.155   2.692   8.883 -2.5559  3.3256 -1.9683
   85CHL1   C24 8758   6.210   2.877   8.772 -0.6253  0.6578 -1.0128
   85CHL1  H24A 8759   6.111   2.918   8.802 -0.5384  0.7765 -0.8866
   85CHL1  H24B 8760   6.295   2.949   8.774  1.6927 -1.9237  0.3983
   85CHL1   C25 8761   6.203   2.829   8.627 -0.7078  0.6473  0.7030
   85CHL1   H25 8762   6.171   2.723   8.634 -0.4903  0.5842  0.7587
   85CHL1   C26 8763   6.100   2.907   8.547 -0.0379 -0.3098  0.2249
   85CHL1  H26A 8764   6.127   3.015   8.545 -2.3854  0.3135 -1.5830
   85CHL1  H26B 8765   6.084   2.879   8.441 -1.0425  2.5019 -0.4594
   85CHL1  H26C 8766   6.002   2.899   8.598 -0.1569 -2.5849 -0.2761
   85CHL1   C27 8767   6.345   2.824   8.552 -0.0351 -0.3813 -0.0696
   85CHL1  H27A 8768   6.340   2.805   8.442  0.3348  2.3633 -0.6352
   85CHL1  H27B 8769   6.393   2.924   8.557  1.0829 -0.8798 -0.4689
   85CHL1  H27C 8770   6.416   2.762   8.611  0.2860  0.5727  0.5539
   86CHL1    C3 8771   6.816   6.702   7.162  0.1042  0.6463 -0.2470
   86CHL1    H3 8772   6.851   6.599   7.183 -1.0748 -0.2160 -2.2311
   86CHL1    O3 8773   6.763   6.705   7.030  0.3047 -0.3893  1.1440
   86CHL1   H3' 8774   6.763   6.792   6.991  0.5453 -1.7268 -2.1779
   86CHL1    C4 8775   6.703   6.727   7.268  0.6124 -0.0755  0.4468
   86CHL1   H4A 8776   6.635   6.800   7.219 -1.8873 -4.1653 -2.9381
   86CHL1   H4B 8777   6.642   6.634   7.268  1.3349 -0.5707 -0.4296
   86CHL1    C5 8778   6.741   6.765   7.407 -0.3256  0.2612  0.1744
   86CHL1    C6 8779   6.684   6.715   7.514  0.4837  0.3904 -0.2391
   86CHL1    H6 8780   6.603   6.641   7.504 -0.1115  0.9332  0.4340
   86CHL1    C7 8781   6.705   6.743   7.658  0.2465 -0.5332  0.2372
   86CHL1   H7A 8782   6.616   6.749   7.724 -1.2278 -0.8149 -1.6363
   86CHL1   H7B 8783   6.753   6.649   7.691 -1.0618 -0.5989  2.0590
   86CHL1    C8 8784   6.808   6.861   7.676  0.7576 -0.9637  0.0179
   86CHL1    H8 8785   6.743   6.950   7.661 -0.8679 -1.5548  2.7507
   86CHL1   C14 8786   6.873   6.865   7.815 -0.3400 -0.0986  0.3764
   86CHL1   H14 8787   6.944   6.779   7.818 -2.8084 -2.3993 -1.8631
   86CHL1   C15 8788   6.786   6.854   7.945  0.1261  0.8105  0.8504
   86CHL1  H15A 8789   6.689   6.904   7.925  0.5699  0.7179 -1.8760
   86CHL1  H15B 8790   6.764   6.746   7.955  1.8851  0.3244 -0.1116
   86CHL1   C16 8791   6.879   6.904   8.052 -0.9050 -0.2771 -0.6216
   86CHL1  H16A 8792   6.821   6.977   8.112  1.5961  0.0147  1.6235
   86CHL1  H16B 8793   6.915   6.836   8.132  0.1464  1.6638  0.6278
   86CHL1   C17 8794   7.006   6.971   7.989 -0.0552  1.0216  0.1982
   86CHL1   H17 8795   7.079   6.888   7.986 -0.1946  0.8649  0.8932
   86CHL1   C13 8796   6.964   6.993   7.836  1.2590  0.0615 -1.0073
   86CHL1   C18 8797   6.892   7.121   7.815 -0.6551 -0.6617 -0.6200
   86CHL1  H18A 8798   6.806   7.139   7.883 -0.7618  2.6619 -1.4308
   86CHL1  H18B 8799   6.963   7.203   7.836  0.7241 -2.4611  2.3200
   86CHL1  H18C 8800   6.855   7.139   7.711 -1.5569  0.4494 -0.1363
   86CHL1   C12 8801   7.082   6.983   7.737 -0.3468  0.2274  0.7836
   86CHL1  H12A 8802   7.157   7.064   7.749  1.2427 -0.4064 -3.2527
   86CHL1  H12B 8803   7.131   6.887   7.761 -0.7020 -0.0151  0.5435
   86CHL1   C11 8804   7.027   6.967   7.588  0.0234  0.2941 -0.7136
   86CHL1  H11A 8805   6.989   7.064   7.549  0.5094  0.4368 -0.8313
   86CHL1  H11B 8806   7.110   6.947   7.517 -0.8292 -0.4230 -1.5197
   86CHL1    C9 8807   6.919   6.865   7.568  0.3704  0.0411  0.5954
   86CHL1    H9 8808   6.974   6.769   7.577 -0.5971 -0.7043 -1.0154
   86CHL1   C10 8809   6.868   6.860   7.419  0.4958  0.1529  0.1538
   86CHL1   C19 8810   6.818   7.000   7.382 -0.3766 -0.3436 -0.0508
   86CHL1  H19A 8811   6.739   7.049   7.444  0.5406  1.8171 -0.5083
   86CHL1  H19B 8812   6.906   7.063   7.355  0.0481 -0.6040  0.7041
   86CHL1  H19C 8813   6.769   6.992   7.282 -0.0151  0.5291 -0.3091
   86CHL1    C1 8814   6.975   6.822   7.315 -0.1798  0.1621 -0.1187
   86CHL1   H1A 8815   7.059   6.893   7.301  1.3264 -1.1652  1.7397
   86CHL1   H1B 8816   7.028   6.731   7.350 -0.1198 -0.0481 -0.7363
   86CHL1    C2 8817   6.924   6.809   7.172  0.1348 -0.0783  0.2528
   86CHL1   H2A 8818   7.009   6.787   7.103 -0.9659  0.8010 -1.4476
   86CHL1   H2B 8819   6.887   6.908   7.139 -0.3372  0.1088  1.3217
   86CHL1   C20 8820   7.068   7.087   8.073 -0.5929  0.6341  0.4136
   86CHL1   H20 8821   7.008   7.179   8.058  1.0797  1.6469 -0.3865
   86CHL1   C21 8822   7.200   7.135   8.011 -0.1044 -0.0960 -0.2519
   86CHL1  H21A 8823   7.275   7.053   8.010 -0.4892 -0.5198 -3.1256
   86CHL1  H21B 8824   7.230   7.230   8.061  0.4216  0.0858 -0.8843
   86CHL1  H21C 8825   7.187   7.169   7.905  3.1656 -0.2157 -0.8082
   86CHL1   C22 8826   7.098   7.045   8.220 -0.4828 -0.2173 -0.1687
   86CHL1  H22A 8827   7.007   6.993   8.257 -0.9221  0.4696 -0.2787
   86CHL1  H22B 8828   7.177   6.967   8.230  0.2802  0.7010  1.3048
   86CHL1   C23 8829   7.136   7.166   8.304 -0.2168 -0.6744 -0.2806
   86CHL1  H23A 8830   7.240   7.199   8.286  0.0563 -1.3055  0.0973
   86CHL1  H23B 8831   7.069   7.250   8.276  0.8690  0.2722 -0.1119
   86CHL1   C24 8832   7.131   7.150   8.457  0.4101 -0.4251 -0.0344
   86CHL1  H24A 8833   7.151   7.246   8.509  0.0767  0.0115 -0.6901
   86CHL1  H24B 8834   7.031   7.120   8.496 -0.7697  2.9992 -0.1239
   86CHL1   C25 8835   7.231   7.040   8.511  0.9445 -0.7466  0.0119
   86CHL1   H25 8836   7.210   6.942   8.464 -0.1680 -1.0086  0.9896
   86CHL1   C26 8837   7.369   7.072   8.480  0.5622 -0.2611  0.3162
   86CHL1  H26A 8838   7.441   6.999   8.523 -0.5621 -1.3814  0.3367
   86CHL1  H26B 8839   7.379   7.081   8.369 -0.9799 -0.5025  0.1339
   86CHL1  H26C 8840   7.390   7.170   8.528 -1.7400  0.6804 -0.4831
   86CHL1   C27 8841   7.212   7.014   8.658 -0.5329 -0.4561  0.1594
   86CHL1  H27A 8842   7.238   7.097   8.727 -1.5332  0.9973 -1.1492
   86CHL1  H27B 8843   7.111   6.983   8.692 -0.5937  0.1858  0.5735
   86CHL1  H27C 8844   7.280   6.930   8.686 -1.6922 -1.0612  1.2913
   87CHL1    C3 8845   0.862   5.839   6.811  0.1232 -0.1210 -0.0558
   87CHL1    H3 8846   0.940   5.918   6.822 -0.3888  0.5718 -1.2389
   87CHL1    O3 8847   0.834   5.844   6.678  0.1241 -0.0834  0.2110
   87CHL1   H3' 8848   0.884   5.773   6.637 -1.7244 -2.2763  1.4944
   87CHL1    C4 8849   0.907   5.691   6.849 -0.5356 -1.2151  0.1784
   87CHL1   H4A 8850   0.821   5.632   6.812  1.6548 -1.9546 -4.4133
   87CHL1   H4B 8851   0.993   5.658   6.787  0.8576 -0.4717  1.6407
   87CHL1    C5 8852   0.928   5.695   7.001  0.2979  0.3557  0.4175
   87CHL1    C6 8853   1.049   5.646   7.040  0.5552  0.4906  0.0663
   87CHL1    H6 8854   1.118   5.608   6.963  0.0004  0.6915 -0.5408
   87CHL1    C7 8855   1.096   5.650   7.184  1.1829 -0.5339 -0.5713
   87CHL1   H7A 8856   1.151   5.558   7.209  0.1208 -0.8441  0.7666
   87CHL1   H7B 8857   1.172   5.731   7.192  1.6869 -0.7961 -2.2721
   87CHL1    C8 8858   0.973   5.683   7.281  0.9632 -0.4927 -0.5499
   87CHL1    H8 8859   0.906   5.597   7.303 -2.1332  2.1506  1.2212
   87CHL1   C14 8860   1.036   5.727   7.411  0.5623  0.1150 -0.3623
   87CHL1   H14 8861   1.093   5.822   7.399  1.2999 -0.2958 -0.2035
   87CHL1   C15 8862   1.138   5.629   7.484  0.2852 -0.2439 -0.9789
   87CHL1  H15A 8863   1.107   5.522   7.475  0.2122 -0.2802 -0.3256
   87CHL1  H15B 8864   1.246   5.637   7.459  0.2968  1.0390 -0.5852
   87CHL1   C16 8865   1.124   5.668   7.630  0.3345 -0.6526 -1.0348
   87CHL1  H16A 8866   1.086   5.578   7.683  1.7746 -1.0644 -0.6611
   87CHL1  H16B 8867   1.217   5.713   7.669 -0.0674  0.3617 -1.2341
   87CHL1   C17 8868   1.014   5.783   7.645  0.4300  0.2819  0.4302
   87CHL1   H17 8869   1.069   5.878   7.629 -0.4812  0.8529  0.6631
   87CHL1   C13 8870   0.930   5.773   7.515  0.6525 -0.5237  0.4000
   87CHL1   C18 8871   0.818   5.665   7.539  0.7220  0.2713 -0.0074
   87CHL1  H18A 8872   0.752   5.639   7.454  0.9683  2.8493 -1.0875
   87CHL1  H18B 8873   0.869   5.573   7.573 -3.4785 -1.7969  1.4250
   87CHL1  H18C 8874   0.744   5.696   7.616 -0.0966  2.1128 -1.4684
   87CHL1   C12 8875   0.863   5.906   7.462 -0.5732  0.0155 -0.6575
   87CHL1  H12A 8876   0.788   5.945   7.535  1.8505  3.0446  0.4551
   87CHL1  H12B 8877   0.948   5.976   7.449 -1.3046  0.6253 -2.4547
   87CHL1   C11 8878   0.796   5.874   7.335  0.1669 -0.1033  0.8098
   87CHL1  H11A 8879   0.710   5.805   7.347  0.2013 -0.3631 -0.3266
   87CHL1  H11B 8880   0.751   5.967   7.294  0.7511 -0.0716  0.2160
   87CHL1    C9 8881   0.890   5.802   7.225 -0.6042 -0.0489  0.4767
   87CHL1    H9 8882   0.962   5.885   7.208  0.7728 -1.4747 -0.9764
   87CHL1   C10 8883   0.822   5.769   7.090  0.3201 -0.4209 -0.6257
   87CHL1   C19 8884   0.711   5.659   7.113  0.0570 -0.2954  0.5853
   87CHL1  H19A 8885   0.750   5.570   7.167 -0.9330 -2.1720 -1.6130
   87CHL1  H19B 8886   0.615   5.697   7.152 -0.3423 -1.2984  0.6063
   87CHL1  H19C 8887   0.679   5.631   7.010 -0.1872 -0.8413  0.8086
   87CHL1    C1 8888   0.752   5.896   7.036 -0.8172  0.4383  0.2945
   87CHL1   H1A 8889   0.662   5.925   7.094 -0.1363 -1.2172  2.2771
   87CHL1   H1B 8890   0.828   5.977   7.044 -0.8756  0.7152 -1.5422
   87CHL1    C2 8891   0.726   5.886   6.886 -0.1556 -0.4032  0.1764
   87CHL1   H2A 8892   0.697   5.987   6.849  0.9981 -0.7474 -1.7862
   87CHL1   H2B 8893   0.647   5.810   6.872 -1.3689  0.7332  0.6411
   87CHL1   C20 8894   0.936   5.783   7.776 -0.1469  0.3104 -0.2149
   87CHL1   H20 8895   0.875   5.691   7.784 -0.7068  0.6659 -0.3422
   87CHL1   C21 8896   0.840   5.905   7.801 -0.7522 -0.3526  0.0412
   87CHL1  H21A 8897   0.784   5.896   7.896 -0.2833 -1.1900  0.2473
   87CHL1  H21B 8898   0.752   5.907   7.732  1.2669  0.7631 -2.6772
   87CHL1  H21C 8899   0.890   6.004   7.806  0.1205 -0.7029 -1.3135
   87CHL1   C22 8900   1.040   5.781   7.898  0.3355 -0.2340  0.0330
   87CHL1  H22A 8901   1.127   5.848   7.881 -1.4158  2.0693 -0.3330
   87CHL1  H22B 8902   0.998   5.830   7.988  0.2693  1.2891 -0.7975
   87CHL1   C23 8903   1.089   5.640   7.945  0.6151  0.7839  0.0268
   87CHL1  H23A 8904   0.999   5.575   7.952  0.0795  1.5834  0.8629
   87CHL1  H23B 8905   1.146   5.581   7.871 -0.1005 -0.3974  0.3839
   87CHL1   C24 8906   1.171   5.640   8.074  0.1607  0.5937  0.4334
   87CHL1  H24A 8907   1.209   5.537   8.091 -1.9332 -0.4727 -0.8751
   87CHL1  H24B 8908   1.256   5.709   8.057 -0.1717  0.7144 -0.8842
   87CHL1   C25 8909   1.092   5.683   8.195  0.1371 -0.6262  0.7785
   87CHL1   H25 8910   1.068   5.791   8.184  0.2001 -0.3074  3.2628
   87CHL1   C26 8911   0.961   5.609   8.220 -0.5297  0.3204  0.0268
   87CHL1  H26A 8912   0.911   5.637   8.315  0.1601  0.9391  0.2189
   87CHL1  H26B 8913   0.898   5.622   8.129 -2.2808  0.7513  1.2495
   87CHL1  H26C 8914   0.978   5.500   8.223  1.1134  0.5562  0.5240
   87CHL1   C27 8915   1.186   5.667   8.314 -0.0782  0.5324 -0.4928
   87CHL1  H27A 8916   1.280   5.726   8.302  0.4009 -0.0982  0.0591
   87CHL1  H27B 8917   1.139   5.707   8.407  0.3772 -1.5933  0.7081
   87CHL1  H27C 8918   1.203   5.562   8.347  2.0585  1.4475  1.6687
   88CHL1    C3 8919   0.225   3.477   6.418 -0.0157  0.1032 -0.0179
   88CHL1    H3 8920   0.332   3.504   6.434  0.9318 -2.9581 -0.4713
   88CHL1    O3 8921   0.195   3.509   6.286  0.3072 -0.1964  0.8984
   88CHL1   H3' 8922   0.216   3.602   6.281  0.0518 -0.2292 -1.7894
   88CHL1    C4 8923   0.211   3.324   6.437  0.0299 -0.1828  0.1668
   88CHL1   H4A 8924   0.107   3.300   6.405 -0.3775  0.7746  0.7059
   88CHL1   H4B 8925   0.284   3.273   6.371  0.6874  1.2586 -0.2569
   88CHL1    C5 8926   0.231   3.271   6.579 -0.4800  0.1610 -0.7832
   88CHL1    C6 8927   0.312   3.171   6.613 -0.0752 -0.1379  0.3136
   88CHL1    H6 8928   0.367   3.116   6.535 -1.3961 -1.5462  0.3099
   88CHL1    C7 8929   0.326   3.105   6.747  0.5194  0.5004 -0.2928
   88CHL1   H7A 8930   0.325   2.994   6.745 -0.4147  0.4269  1.6211
   88CHL1   H7B 8931   0.424   3.124   6.797  1.7143  1.1984 -2.7498
   88CHL1    C8 8932   0.218   3.153   6.844  0.3689 -0.1689 -0.4608
   88CHL1    H8 8933   0.126   3.095   6.822  0.8059 -0.5276 -1.4414
   88CHL1   C14 8934   0.259   3.130   6.990 -0.2976 -0.3849  0.3178
   88CHL1   H14 8935   0.338   3.207   7.002 -1.3333  1.4473 -3.2624
   88CHL1   C15 8936   0.326   3.000   7.033 -0.2425 -0.1218 -0.3919
   88CHL1  H15A 8937   0.266   2.910   7.005 -1.4996 -0.6826  3.4656
   88CHL1  H15B 8938   0.435   2.991   7.010  0.5947  1.7415  2.3636
   88CHL1   C16 8939   0.329   3.010   7.190  0.2489  0.4190  0.5426
   88CHL1  H16A 8940   0.287   2.922   7.243 -0.8600  0.8484  0.4145
   88CHL1  H16B 8941   0.424   3.039   7.239  0.5787 -0.0808  0.1972
   88CHL1   C17 8942   0.219   3.114   7.226  0.3303 -1.3600  0.0161
   88CHL1   H17 8943   0.271   3.206   7.258 -1.2770 -1.1192  2.2038
   88CHL1   C13 8944   0.149   3.160   7.091 -0.7052  0.2518 -0.3639
   88CHL1   C18 8945   0.022   3.070   7.063 -0.2047 -0.2436 -0.2971
   88CHL1  H18A 8946  -0.061   3.086   7.135  0.4502 -1.8798  0.8839
   88CHL1  H18B 8947  -0.013   3.097   6.961  1.3305 -1.5285 -1.2104
   88CHL1  H18C 8948   0.054   2.964   7.063 -0.6809 -0.4389  1.9421
   88CHL1   C12 8949   0.124   3.305   7.093 -0.2075 -1.0856 -0.0252
   88CHL1  H12A 8950   0.022   3.323   7.134 -0.1905  0.4868 -0.6073
   88CHL1  H12B 8951   0.189   3.379   7.145 -2.6475  0.4334  1.0823
   88CHL1   C11 8952   0.096   3.356   6.943  0.3390 -0.4321 -0.1870
   88CHL1  H11A 8953  -0.008   3.320   6.924  0.1552 -1.4471  2.3737
   88CHL1  H11B 8954   0.087   3.466   6.957  1.4879 -0.4593  0.8397
   88CHL1    C9 8955   0.191   3.306   6.831  0.0885 -0.1670 -0.5378
   88CHL1    H9 8956   0.290   3.356   6.843 -0.1835  0.5571 -1.2333
   88CHL1   C10 8957   0.155   3.348   6.684  0.4531 -0.5370  0.2339
   88CHL1   C19 8958   0.010   3.318   6.662 -0.0008  0.1430 -0.2541
   88CHL1  H19A 8959  -0.032   3.334   6.561 -1.4243 -2.2359 -0.1132
   88CHL1  H19B 8960  -0.002   3.214   6.700  0.6262 -0.5510 -1.8872
   88CHL1  H19C 8961  -0.056   3.376   6.729  0.0175 -0.4738  0.3121
   88CHL1    C1 8962   0.180   3.501   6.661  0.4661 -0.0884 -0.2370
   88CHL1   H1A 8963   0.151   3.572   6.742  1.1804 -1.1850  1.0190
   88CHL1   H1B 8964   0.290   3.505   6.673  0.4352  1.3461 -0.1693
   88CHL1    C2 8965   0.147   3.550   6.517  0.4621 -0.2564 -0.2413
   88CHL1   H2A 8966   0.165   3.660   6.508  2.8276 -0.4851  1.0596
   88CHL1   H2B 8967   0.039   3.532   6.498  0.7652 -1.9832 -0.4558
   88CHL1   C20 8968   0.129   3.081   7.348  0.5008  0.0637 -0.2591
   88CHL1   H20 8969   0.070   2.988   7.332 -1.4874  0.6083  2.9432
   88CHL1   C21 8970   0.030   3.195   7.386 -0.1020  0.4931 -0.3127
   88CHL1  H21A 8971  -0.051   3.214   7.312  0.7023  2.6135 -0.7132
   88CHL1  H21B 8972   0.105   3.276   7.398  0.3780  0.3798 -2.1502
   88CHL1  H21C 8973  -0.013   3.193   7.488  0.2343 -1.1390 -0.1691
   88CHL1   C22 8974   0.212   3.049   7.475 -0.2093  0.0830 -0.1190
   88CHL1  H22A 8975   0.284   2.968   7.449  0.6561  0.7660  0.1023
   88CHL1  H22B 8976   0.273   3.139   7.499 -1.6863  0.3147  3.2747
   88CHL1   C23 8977   0.151   3.025   7.609 -0.2104  0.3717  0.3581
   88CHL1  H23A 8978   0.106   3.120   7.643  1.5923  2.0093 -1.5275
   88CHL1  H23B 8979   0.071   2.948   7.612  0.1134 -0.0611 -1.2304
   88CHL1   C24 8980   0.248   2.982   7.722 -0.2214  0.2890  0.1021
   88CHL1  H24A 8981   0.308   2.897   7.682 -0.5974  0.3822 -0.6945
   88CHL1  H24B 8982   0.317   3.068   7.736 -3.3630  2.5919  2.9189
   88CHL1   C25 8983   0.181   2.941   7.849  0.3402  0.2298  0.0146
   88CHL1   H25 8984   0.128   2.847   7.822 -0.9544  1.5216 -2.2190
   88CHL1   C26 8985   0.280   2.904   7.960  0.5400  0.0197  0.5046
   88CHL1  H26A 8986   0.346   2.991   7.978  0.7118  0.2684 -1.1427
   88CHL1  H26B 8987   0.226   2.876   8.053 -1.7850  2.3368 -0.0300
   88CHL1  H26C 8988   0.352   2.823   7.936  0.8584  1.0042 -2.1779
   88CHL1   C27 8989   0.083   3.052   7.899 -0.3274 -0.0517 -0.5953
   88CHL1  H27A 8990   0.151   3.140   7.902 -0.9752  0.4597 -0.8679
   88CHL1  H27B 8991  -0.003   3.074   7.832 -1.1706 -1.0910  0.1176
   88CHL1  H27C 8992   0.050   3.013   7.998  4.1689  0.2556  1.2534
   89CHL1    C3 8993   2.295   1.048   6.700 -0.5481 -0.0853  0.5063
   89CHL1    H3 8994   2.283   0.938   6.716  1.5907 -0.3869  0.2382
   89CHL1    O3 8995   2.315   1.066   6.556  0.4355 -0.3974  0.0675
   89CHL1   H3' 8996   2.291   0.980   6.521  4.0120 -1.8094  0.6526
   89CHL1    C4 8997   2.186   1.137   6.750  0.5304 -0.0436  0.1530
   89CHL1   H4A 8998   2.212   1.243   6.734 -1.0903  0.7060  2.0241
   89CHL1   H4B 8999   2.098   1.115   6.686  1.4354 -0.1213 -1.0982
   89CHL1    C5 9000   2.165   1.102   6.897 -0.8414 -0.3521  0.1379
   89CHL1    C6 9001   2.051   1.061   6.945 -0.2690  0.3175  0.0796
   89CHL1    H6 9002   1.965   1.057   6.876  0.6376  1.5795 -1.1883
   89CHL1    C7 9003   2.022   1.055   7.092  0.3446  1.0428  0.9579
   89CHL1   H7A 9004   1.913   1.069   7.106 -0.3176 -1.8503 -0.5329
   89CHL1   H7B 9005   2.017   0.948   7.121  0.3370  0.3054 -1.5217
   89CHL1    C8 9006   2.118   1.131   7.182 -0.2383 -0.3738  1.3946
   89CHL1    H8 9007   2.104   1.240   7.173 -3.4772 -0.5872  2.5780
   89CHL1   C14 9008   2.095   1.100   7.325 -0.9390  0.1922  0.7711
   89CHL1   H14 9009   2.115   0.992   7.343 -0.6065 -0.1553 -1.4377
   89CHL1   C15 9010   1.958   1.124   7.384  0.2095 -0.2526 -0.6980
   89CHL1  H15A 9011   1.908   1.216   7.348 -1.6491 -0.7260  0.5576
   89CHL1  H15B 9012   1.894   1.038   7.356  2.1033 -1.9196 -0.1622
   89CHL1   C16 9013   1.975   1.121   7.532  0.6979 -0.5955  0.0849
   89CHL1  H16A 9014   1.921   1.200   7.588 -0.3649 -1.7396  0.7366
   89CHL1  H16B 9015   1.934   1.025   7.572  0.2795 -0.2890  0.4000
   89CHL1   C17 9016   2.128   1.115   7.558 -0.1781  0.2547 -0.0812
   89CHL1   H17 9017   2.159   1.009   7.569  1.2269  0.7614  1.2158
   89CHL1   C13 9018   2.188   1.164   7.421 -0.2109  0.5272  0.2527
   89CHL1   C18 9019   2.178   1.317   7.414  0.1923 -0.0377  0.3658
   89CHL1  H18A 9020   2.214   1.367   7.321  1.3754 -2.4431 -0.5356
   89CHL1  H18B 9021   2.070   1.344   7.417  0.3179  0.8202 -1.4140
   89CHL1  H18C 9022   2.233   1.357   7.501  0.1527  1.3701 -0.2200
   89CHL1   C12 9023   2.326   1.112   7.384  0.0006  0.5398  0.3090
   89CHL1  H12A 9024   2.403   1.162   7.447 -0.9839  0.3830  1.6919
   89CHL1  H12B 9025   2.338   1.005   7.410  0.4259  1.0202  2.3181
   89CHL1   C11 9026   2.359   1.138   7.235 -0.3431  0.5873 -0.2055
   89CHL1  H11A 9027   2.377   1.248   7.234  0.7436  0.4211 -0.2637
   89CHL1  H11B 9028   2.460   1.096   7.216 -0.7471 -0.6786  0.3989
   89CHL1    C9 9029   2.256   1.090   7.134  0.2487  0.2602 -0.1318
   89CHL1    H9 9030   2.255   0.979   7.134 -4.2371  0.1318  0.3164
   89CHL1   C10 9031   2.281   1.137   6.985  0.1613 -0.0945  0.8310
   89CHL1   C19 9032   2.308   1.291   6.981  0.4542  0.8000 -0.0317
   89CHL1  H19A 9033   2.408   1.305   7.027  0.9866  2.1094 -1.5118
   89CHL1  H19B 9034   2.315   1.335   6.880 -1.3411 -1.7920 -1.3993
   89CHL1  H19C 9035   2.223   1.340   7.034 -0.7268 -0.7983 -0.3730
   89CHL1    C1 9036   2.403   1.060   6.925 -1.0231  0.6176  0.3685
   89CHL1   H1A 9037   2.493   1.083   6.987 -2.4254  2.8668  1.6974
   89CHL1   H1B 9038   2.397   0.951   6.950 -1.4696  0.9020  1.5735
   89CHL1    C2 9039   2.427   1.080   6.777 -0.5926 -0.1712 -0.3912
   89CHL1   H2A 9040   2.500   1.009   6.733 -0.5169 -0.7392  0.6156
   89CHL1   H2B 9041   2.459   1.183   6.749 -1.4762  0.2143 -0.0160
   89CHL1   C20 9042   2.173   1.177   7.693  1.0424  0.0052 -0.9823
   89CHL1   H20 9043   2.145   1.285   7.699 -1.6032 -0.6523 -0.2319
   89CHL1   C21 9044   2.330   1.162   7.708  0.0462 -0.1072 -0.2048
   89CHL1  H21A 9045   2.373   1.217   7.622 -2.1172 -0.1691 -1.3816
   89CHL1  H21B 9046   2.363   1.056   7.710 -0.3027 -0.2468  2.5602
   89CHL1  H21C 9047   2.357   1.200   7.809 -0.2244 -1.3763  0.3659
   89CHL1   C22 9048   2.088   1.114   7.813 -0.2107  0.0348  0.3432
   89CHL1  H22A 9049   1.981   1.124   7.786 -0.3083  0.4479  0.8592
   89CHL1  H22B 9050   2.116   1.008   7.830  0.4103  0.3346  1.2523
   89CHL1   C23 9051   2.107   1.193   7.939  0.3038  0.0575 -0.0009
   89CHL1  H23A 9052   2.214   1.200   7.968  0.3481 -1.2214  0.2209
   89CHL1  H23B 9053   2.060   1.290   7.912 -0.1944 -0.4234 -0.9300
   89CHL1   C24 9054   2.034   1.135   8.064 -0.4061  0.4648  0.1086
   89CHL1  H24A 9055   2.067   1.031   8.084  0.3309  0.8749  1.1129
   89CHL1  H24B 9056   2.072   1.190   8.153  2.8721 -0.5063 -0.5675
   89CHL1   C25 9057   1.878   1.148   8.054  0.1075  1.1853 -0.2758
   89CHL1   H25 9058   1.852   1.100   7.958  1.6348 -1.6141  0.5953
   89CHL1   C26 9059   1.808   1.066   8.169  0.5117 -0.2919 -0.7652
   89CHL1  H26A 9060   1.699   1.078   8.184  0.8225 -0.3223  1.9790
   89CHL1  H26B 9061   1.831   0.958   8.179 -1.1548 -0.5385  1.0376
   89CHL1  H26C 9062   1.851   1.100   8.266 -1.7729 -0.7539  0.4744
   89CHL1   C27 9063   1.828   1.288   8.073 -0.3834 -0.5028 -0.1789
   89CHL1  H27A 9064   1.831   1.355   7.985 -1.2168  0.9234  0.8317
   89CHL1  H27B 9065   1.718   1.285   8.089 -0.1065 -2.4137  1.8433
   89CHL1  H27C 9066   1.869   1.333   8.166  2.5090 -0.2041 -1.5180
   90CHL1    C3 9067   6.381   0.967   7.088 -0.7230  0.0291 -0.3757
   90CHL1    H3 9068   6.335   1.067   7.077 -2.1019 -0.5836 -0.3863
   90CHL1    O3 9069   6.333   0.878   6.992 -0.3790 -0.6426  0.4923
   90CHL1   H3' 9070   6.239   0.871   7.006 -0.4598 -1.8836 -0.4928
   90CHL1    C4 9071   6.540   0.977   7.081 -0.0795  0.2810  0.7051
   90CHL1   H4A 9072   6.588   0.877   7.076  2.4527  1.4887 -2.5885
   90CHL1   H4B 9073   6.555   1.026   6.982  1.1718 -0.0437  0.7189
   90CHL1    C5 9074   6.604   1.073   7.177 -0.4175  0.0470  0.4129
   90CHL1    C6 9075   6.679   1.176   7.149  0.1794  0.8165  0.8587
   90CHL1    H6 9076   6.695   1.191   7.041 -0.8614  0.5072  0.6464
   90CHL1    C7 9077   6.759   1.263   7.244 -0.1700  0.7702  0.3251
   90CHL1   H7A 9078   6.860   1.288   7.206 -0.3591  0.2830 -0.5081
   90CHL1   H7B 9079   6.694   1.353   7.253  0.3651  1.0926  1.1194
   90CHL1    C8 9080   6.768   1.201   7.384 -0.4112 -0.0248 -0.4533
   90CHL1    H8 9081   6.836   1.113   7.391 -1.3171 -0.7265 -0.2707
   90CHL1   C14 9082   6.817   1.309   7.486  0.2530  0.9267 -0.0023
   90CHL1   H14 9083   6.742   1.391   7.485  1.3926  2.0038  0.2436
   90CHL1   C15 9084   6.961   1.363   7.471  0.2979 -0.4427 -0.0163
   90CHL1  H15A 9085   7.031   1.287   7.432  1.5455  2.9446 -5.4742
   90CHL1  H15B 9086   6.958   1.435   7.386 -0.0333  0.4225  0.7060
   90CHL1   C16 9087   6.984   1.427   7.605  0.5251 -0.4094 -0.2250
   90CHL1  H16A 9088   7.086   1.409   7.643  0.4390 -1.4337 -0.4444
   90CHL1  H16B 9089   6.959   1.533   7.582  0.6137 -1.1585 -4.7079
   90CHL1   C17 9090   6.872   1.380   7.698 -0.5843  0.0526  0.2889
   90CHL1   H17 9091   6.783   1.447   7.700 -2.0218 -1.7684  2.3553
   90CHL1   C13 9092   6.814   1.258   7.632 -1.1276 -0.0073 -0.0936
   90CHL1   C18 9093   6.909   1.135   7.647 -0.8029 -0.6754  0.2650
   90CHL1  H18A 9094   7.014   1.166   7.625 -0.8738 -0.1094  0.7069
   90CHL1  H18B 9095   6.916   1.103   7.753  1.1412  0.7231  0.6159
   90CHL1  H18C 9096   6.886   1.050   7.580 -1.3213  0.6077 -1.2360
   90CHL1   C12 9097   6.669   1.221   7.668 -0.6853 -0.5309 -0.2632
   90CHL1  H12A 9098   6.682   1.154   7.756 -0.6150 -1.6697 -1.1126
   90CHL1  H12B 9099   6.603   1.309   7.686 -0.1626 -0.3216  0.6832
   90CHL1   C11 9100   6.612   1.115   7.568 -0.2432  0.0231 -1.1465
   90CHL1  H11A 9101   6.668   1.021   7.583 -0.2241  0.1837 -0.1828
   90CHL1  H11B 9102   6.512   1.088   7.608  0.4664  2.3885  2.7969
   90CHL1    C9 9103   6.623   1.157   7.422 -0.8659  0.5172  0.0432
   90CHL1    H9 9104   6.560   1.247   7.404 -0.6584  0.6607  0.0175
   90CHL1   C10 9105   6.576   1.044   7.321 -0.7905  0.4791 -0.0273
   90CHL1   C19 9106   6.655   0.914   7.354  0.2640  0.2298  0.7457
   90CHL1  H19A 9107   6.765   0.929   7.362  0.1407  0.3942  2.5521
   90CHL1  H19B 9108   6.609   0.890   7.452 -1.8436 -1.3860 -0.5606
   90CHL1  H19C 9109   6.634   0.833   7.281  0.4196  0.8058  0.0478
   90CHL1    C1 9110   6.419   1.011   7.341 -0.2714  0.2562 -0.0794
   90CHL1   H1A 9111   6.394   0.978   7.444  0.1089 -0.0785 -0.0915
   90CHL1   H1B 9112   6.380   1.112   7.317  4.4494  2.4228  0.3087
   90CHL1    C2 9113   6.354   0.917   7.241  0.1884 -1.0427  0.0321
   90CHL1   H2A 9114   6.245   0.914   7.260  0.3162  0.0971  1.0678
   90CHL1   H2B 9115   6.398   0.816   7.260 -0.7306 -1.8374 -1.8251
   90CHL1   C20 9116   6.917   1.372   7.847  0.3491  0.7058 -0.2069
   90CHL1   H20 9117   6.998   1.296   7.855  0.0633  0.3489 -0.6395
   90CHL1   C21 9118   6.785   1.347   7.933 -0.0366  0.0533  0.1164
   90CHL1  H21A 9119   6.706   1.408   7.884 -0.7857 -1.0041 -0.0286
   90CHL1  H21B 9120   6.804   1.386   8.035 -0.0719 -1.0895  0.5757
   90CHL1  H21C 9121   6.765   1.238   7.939  1.5404 -0.2448  0.4276
   90CHL1   C22 9122   6.984   1.508   7.896 -0.0318  1.0364  0.2772
   90CHL1  H22A 9123   7.012   1.499   8.003  1.2374 -1.0935 -0.1789
   90CHL1  H22B 9124   7.081   1.509   7.842 -0.7840 -0.2339 -1.1604
   90CHL1   C23 9125   6.907   1.637   7.879 -0.2893 -0.4860  1.1590
   90CHL1  H23A 9126   6.866   1.635   7.775 -0.0072 -0.6517  1.0507
   90CHL1  H23B 9127   6.819   1.635   7.946  0.2555 -1.9269  1.8684
   90CHL1   C24 9128   6.984   1.766   7.887 -0.6626  0.6482 -0.7934
   90CHL1  H24A 9129   7.020   1.772   7.992 -2.3832 -1.3784 -0.0171
   90CHL1  H24B 9130   7.076   1.755   7.826 -0.4616  1.5562 -0.6572
   90CHL1   C25 9131   6.912   1.889   7.846 -0.3119 -0.2128 -0.2625
   90CHL1   H25 9132   6.808   1.865   7.879 -1.0326 -0.0575 -2.2671
   90CHL1   C26 9133   6.964   2.014   7.918 -0.0795 -0.0867  0.1106
   90CHL1  H26A 9134   6.893   2.097   7.898 -0.5961 -0.8719 -1.4709
   90CHL1  H26B 9135   6.996   1.988   8.022  1.0816 -1.3688 -0.5320
   90CHL1  H26C 9136   7.060   2.038   7.869 -0.1513 -0.1120 -0.0442
   90CHL1   C27 9137   6.907   1.896   7.697  0.3289 -0.1415 -0.1113
   90CHL1  H27A 9138   6.841   1.814   7.662 -3.3384  2.0158  1.1739
   90CHL1  H27B 9139   6.858   1.985   7.652  2.6081  0.5206 -1.4081
   90CHL1  H27C 9140   7.010   1.905   7.659 -0.1413 -0.2744 -1.4536
   91CHL1    C3 9141   3.449   4.173   6.631 -1.2484  0.0545 -0.9611
   91CHL1    H3 9142   3.339   4.159   6.638 -1.2049  0.0949  5.1113
   91CHL1    O3 9143   3.486   4.158   6.498  0.1841 -0.0492  0.1411
   91CHL1   H3' 9144   3.571   4.112   6.502  0.3650  0.3970  1.8070
   91CHL1    C4 9145   3.470   4.318   6.668 -0.7298 -0.6957  0.2663
   91CHL1   H4A 9146   3.572   4.344   6.634 -1.5001  0.2902 -1.4022
   91CHL1   H4B 9147   3.404   4.374   6.599  1.4586  0.9720 -0.5791
   91CHL1    C5 9148   3.434   4.351   6.813  0.4099  0.2105 -0.1794
   91CHL1    C6 9149   3.344   4.448   6.845 -0.2703 -0.1948 -0.0795
   91CHL1    H6 9150   3.296   4.515   6.772  2.4399  0.4833 -1.3575
   91CHL1    C7 9151   3.310   4.471   6.989 -0.1462  0.0375  0.1905
   91CHL1   H7A 9152   3.312   4.579   7.016 -0.9198  0.0314  0.2941
   91CHL1   H7B 9153   3.206   4.435   7.001 -0.6952  1.4859 -0.0399
   91CHL1    C8 9154   3.395   4.404   7.101  0.5315  0.6895  0.0284
   91CHL1    H8 9155   3.482   4.471   7.119 -1.2094  2.8379  0.9833
   91CHL1   C14 9156   3.326   4.404   7.235 -0.0091  0.3383  0.1440
   91CHL1   H14 9157   3.238   4.337   7.221  1.7880 -1.4778 -4.2311
   91CHL1   C15 9158   3.257   4.536   7.281  0.1527 -0.9802  0.1068
   91CHL1  H15A 9159   3.327   4.619   7.260 -1.3863  0.5280  0.6780
   91CHL1  H15B 9160   3.164   4.566   7.227  1.5340  0.0182 -1.8261
   91CHL1   C16 9161   3.259   4.521   7.436 -0.1547  0.4215 -0.4877
   91CHL1  H16A 9162   3.329   4.590   7.488 -0.5799 -0.0886  0.7928
   91CHL1  H16B 9163   3.157   4.543   7.472 -0.2852 -1.0225  0.0723
   91CHL1   C17 9164   3.311   4.375   7.469 -0.2272  0.4469 -0.0891
   91CHL1   H17 9165   3.229   4.303   7.447 -1.0346  0.8161  1.5794
   91CHL1   C13 9166   3.407   4.346   7.351  0.3853 -0.1144  0.0336
   91CHL1   C18 9167   3.541   4.424   7.365  0.3906  0.2965  0.2256
   91CHL1  H18A 9168   3.514   4.529   7.388 -0.8522  0.0665 -0.0802
   91CHL1  H18B 9169   3.601   4.374   7.444 -0.7446 -1.0530  0.2754
   91CHL1  H18C 9170   3.600   4.424   7.271 -0.7748  1.3249 -0.5443
   91CHL1   C12 9171   3.430   4.197   7.311 -0.7639  0.4559 -0.3829
   91CHL1  H12A 9172   3.502   4.157   7.385  0.9203  2.3877 -0.8804
   91CHL1  H12B 9173   3.336   4.137   7.305 -0.9999  0.8278 -0.4400
   91CHL1   C11 9174   3.496   4.183   7.169 -0.4399 -0.5163 -0.3954
   91CHL1  H11A 9175   3.600   4.223   7.175 -0.7098  0.2659 -0.7450
   91CHL1  H11B 9176   3.496   4.075   7.144  0.3297 -0.1546 -2.1725
   91CHL1    C9 9177   3.425   4.259   7.058  0.2470 -0.0559 -0.2381
   91CHL1    H9 9178   3.323   4.218   7.046 -0.3214 -0.0520  3.3984
   91CHL1   C10 9179   3.496   4.255   6.918  0.2993 -0.0568  0.2785
   91CHL1   C19 9180   3.648   4.286   6.940  0.0254  0.1103  0.8650
   91CHL1  H19A 9181   3.695   4.315   6.844 -1.4520  0.8530  0.3353
   91CHL1  H19B 9182   3.648   4.369   7.014 -0.8061 -0.0480  1.0550
   91CHL1  H19C 9183   3.693   4.193   6.981 -0.8024 -0.9942 -0.6059
   91CHL1    C1 9184   3.479   4.107   6.869 -0.1297 -0.8790  0.0811
   91CHL1   H1A 9185   3.531   4.031   6.932  0.3295 -0.2660  0.4539
   91CHL1   H1B 9186   3.373   4.083   6.893 -0.4323  1.8409  1.9301
   91CHL1    C2 9187   3.519   4.082   6.726  0.4750 -0.6209  0.4995
   91CHL1   H2A 9188   3.479   3.979   6.709  1.4423 -1.2970  2.1239
   91CHL1   H2B 9189   3.628   4.094   6.711  0.0497  1.9561 -1.3002
   91CHL1   C20 9190   3.361   4.363   7.612 -0.4058  0.9038 -0.5778
   91CHL1   H20 9191   3.444   4.434   7.635 -0.3167  0.6393 -0.0864
   91CHL1   C21 9192   3.413   4.223   7.643  0.4169 -0.1955  0.2551
   91CHL1  H21A 9193   3.506   4.190   7.592  1.0458 -0.4000  1.5022
   91CHL1  H21B 9194   3.340   4.143   7.618 -0.6385  0.0834  2.2544
   91CHL1  H21C 9195   3.428   4.206   7.752 -1.6003  0.8333  0.7331
   91CHL1   C22 9196   3.247   4.402   7.705 -0.0203  0.2662  0.9059
   91CHL1  H22A 9197   3.219   4.507   7.679 -1.9548 -0.7254 -1.3901
   91CHL1  H22B 9198   3.156   4.343   7.684 -1.0038  1.8707  0.4672
   91CHL1   C23 9199   3.283   4.407   7.855 -0.8406 -0.4036 -0.0737
   91CHL1  H23A 9200   3.272   4.305   7.898  0.5833 -0.7634 -0.5147
   91CHL1  H23B 9201   3.392   4.429   7.857 -1.0678  0.7800 -0.0029
   91CHL1   C24 9202   3.197   4.502   7.943 -0.2573 -0.8324 -0.0018
   91CHL1  H24A 9203   3.236   4.508   8.047 -1.2183 -0.3267  0.3373
   91CHL1  H24B 9204   3.205   4.602   7.895  0.1976 -0.4004  0.9615
   91CHL1   C25 9205   3.048   4.466   7.944 -1.2343  0.3376  0.3588
   91CHL1   H25 9206   3.026   4.444   7.837 -1.9558 -1.5390  0.8500
   91CHL1   C26 9207   3.014   4.337   8.016  0.7485  0.3911  0.3504
   91CHL1  H26A 9208   2.906   4.311   8.003  0.3339  3.0253 -3.1230
   91CHL1  H26B 9209   3.089   4.262   7.986  1.1415  0.2159  1.6926
   91CHL1  H26C 9210   3.017   4.357   8.125 -2.8878  0.3841  0.5809
   91CHL1   C27 9211   2.964   4.579   7.992 -0.1060  0.0514 -0.2491
   91CHL1  H27A 9212   2.859   4.544   7.991 -0.4825  1.0005  1.2826
   91CHL1  H27B 9213   2.989   4.605   8.097  1.5168  0.1877 -0.6483
   91CHL1  H27C 9214   2.974   4.670   7.929  1.4751  0.6710  0.8109
   92CHL1    C3 9215   6.540   4.565   6.360  0.2585  0.1199  0.4356
   92CHL1    H3 9216   6.579   4.464   6.333 -0.0060  0.5878 -1.8416
   92CHL1    O3 9217   6.498   4.627   6.241 -0.6898  0.3665 -0.2982
   92CHL1   H3' 9218   6.446   4.705   6.265 -2.4444 -0.6343 -0.6818
   92CHL1    C4 9219   6.426   4.553   6.455 -0.4069  0.0295 -0.6556
   92CHL1   H4A 9220   6.389   4.657   6.469  1.9987  0.8537  0.1662
   92CHL1   H4B 9221   6.335   4.500   6.420 -1.9161  0.9861  1.6099
   92CHL1    C5 9222   6.477   4.492   6.587 -0.0954  0.5013  0.2854
   92CHL1    C6 9223   6.417   4.387   6.650 -0.0966 -0.7045 -0.1454
   92CHL1    H6 9224   6.326   4.344   6.605 -0.0269  0.1548 -1.1581
   92CHL1    C7 9225   6.464   4.323   6.779  0.1622 -0.0264  0.2610
   92CHL1   H7A 9226   6.375   4.318   6.846  0.5858  2.8385  1.1506
   92CHL1   H7B 9227   6.507   4.222   6.762  1.3740  0.4403  0.4797
   92CHL1    C8 9228   6.565   4.410   6.861  0.1709 -0.0420 -0.5287
   92CHL1    H8 9229   6.485   4.472   6.906 -2.2506 -1.2125 -2.9313
   92CHL1   C14 9230   6.624   4.332   6.976  0.7028  0.4408  0.2073
   92CHL1   H14 9231   6.676   4.246   6.930 -1.8487 -0.5658 -0.9605
   92CHL1   C15 9232   6.526   4.254   7.069 -0.2087 -0.5813  0.1892
   92CHL1  H15A 9233   6.439   4.320   7.088  0.1752 -0.3448  1.1799
   92CHL1  H15B 9234   6.480   4.172   7.009 -3.3884  1.8693 -1.0417
   92CHL1   C16 9235   6.617   4.216   7.189 -0.4680  0.4502  0.7093
   92CHL1  H16A 9236   6.576   4.253   7.285  2.5821  1.1814  1.8711
   92CHL1  H16B 9237   6.620   4.105   7.196 -1.5846  0.4270  0.9473
   92CHL1   C17 9238   6.757   4.281   7.166 -0.4668  0.2411  0.5708
   92CHL1   H17 9239   6.824   4.209   7.113 -0.1425  1.2392 -0.4096
   92CHL1   C13 9240   6.729   4.403   7.065  0.6095  0.2064 -0.5686
   92CHL1   C18 9241   6.657   4.512   7.139 -0.3440  0.0549  0.6038
   92CHL1  H18A 9242   6.738   4.561   7.197  0.0802 -0.3425  0.3538
   92CHL1  H18B 9243   6.605   4.598   7.092 -0.9091  1.6521  3.8989
   92CHL1  H18C 9244   6.578   4.476   7.209 -2.9983  2.6732 -0.8178
   92CHL1   C12 9245   6.841   4.462   6.970  1.0362 -0.2660 -0.5217
   92CHL1  H12A 9246   6.915   4.514   7.033  0.1493 -0.2693  0.5444
   92CHL1  H12B 9247   6.884   4.374   6.917  0.8724 -1.3929  1.1391
   92CHL1   C11 9248   6.778   4.544   6.856 -0.2528  0.0752  0.1954
   92CHL1  H11A 9249   6.737   4.634   6.906  0.7099  0.8054 -0.3033
   92CHL1  H11B 9250   6.857   4.580   6.788  0.0097  2.0352  1.4500
   92CHL1    C9 9251   6.667   4.472   6.772  0.0391  0.0504  0.0479
   92CHL1    H9 9252   6.717   4.382   6.731 -0.0619 -0.5930  1.2764
   92CHL1   C10 9253   6.608   4.550   6.652  0.3124  1.1654  0.1984
   92CHL1   C19 9254   6.575   4.691   6.704  0.3414 -0.5825  0.4077
   92CHL1  H19A 9255   6.524   4.758   6.632  2.3403  0.8129  0.2040
   92CHL1  H19B 9256   6.509   4.684   6.793  0.4583  1.7725  0.7448
   92CHL1  H19C 9257   6.673   4.736   6.731  1.5218 -3.1096  0.6126
   92CHL1    C1 9258   6.710   4.579   6.532  0.4043 -0.3371  0.3019
   92CHL1   H1A 9259   6.795   4.638   6.572 -2.0091  3.1866  0.7005
   92CHL1   H1B 9260   6.757   4.482   6.504  0.8067  0.0419 -0.3533
   92CHL1    C2 9261   6.653   4.651   6.410  0.1163  0.2831 -0.6126
   92CHL1   H2A 9262   6.731   4.672   6.334  2.0377  1.9717  1.6678
   92CHL1   H2B 9263   6.611   4.749   6.440 -1.6118 -0.6707  0.2205
   92CHL1   C20 9264   6.839   4.308   7.296  0.0183  0.2495  0.1660
   92CHL1   H20 9265   6.908   4.393   7.279 -0.7049  1.5843  3.3450
   92CHL1   C21 9266   6.936   4.191   7.323 -0.0841  0.3349 -0.5746
   92CHL1  H21A 9267   6.867   4.105   7.341 -0.0863  0.8303  2.2238
   92CHL1  H21B 9268   6.993   4.221   7.413 -2.4674 -0.0326  1.1610
   92CHL1  H21C 9269   7.005   4.179   7.236  1.8277  1.2062  0.7645
   92CHL1   C22 9270   6.753   4.341   7.417 -0.1941 -0.3737 -0.4591
   92CHL1  H22A 9271   6.663   4.396   7.382 -2.0964 -1.6710  2.0507
   92CHL1  H22B 9272   6.707   4.244   7.447  0.3677 -1.4493 -2.8501
   92CHL1   C23 9273   6.835   4.393   7.532  0.5458  0.1617  0.2835
   92CHL1  H23A 9274   6.913   4.320   7.563  1.5316  1.5206  1.1797
   92CHL1  H23B 9275   6.888   4.487   7.504  0.1299  0.0545 -0.8756
   92CHL1   C24 9276   6.756   4.431   7.655  0.5875 -0.0493 -0.3870
   92CHL1  H24A 9277   6.673   4.493   7.614 -1.7311 -0.1118  3.5916
   92CHL1  H24B 9278   6.730   4.339   7.712  0.1152  1.2097  1.5563
   92CHL1   C25 9279   6.832   4.519   7.763 -0.1140 -0.2273  0.0313
   92CHL1   H25 9280   6.849   4.615   7.710  0.1408 -0.4102 -0.2205
   92CHL1   C26 9281   6.735   4.546   7.878  0.4009  0.0514 -0.6749
   92CHL1  H26A 9282   6.631   4.543   7.841  0.1844  0.6826 -0.1322
   92CHL1  H26B 9283   6.743   4.470   7.959 -0.2488  1.4390  0.7301
   92CHL1  H26C 9284   6.757   4.645   7.923  0.1839 -0.0566 -0.3284
   92CHL1   C27 9285   6.954   4.451   7.829 -0.1675 -0.2011  0.2169
   92CHL1  H27A 9286   6.999   4.518   7.905  3.2586 -1.2581 -0.6939
   92CHL1  H27B 9287   6.919   4.357   7.877  0.2666 -1.0725 -1.1008
   92CHL1  H27C 9288   7.025   4.417   7.750  0.4524  0.3413  0.5311
   93CHL1    C3 9289   4.700   5.644   6.984 -0.7980 -0.0734 -0.1425
   93CHL1    H3 9290   4.592   5.662   7.001 -0.7332 -1.1316  1.5887
   93CHL1    O3 9291   4.720   5.587   6.857 -0.3397 -1.2352 -0.0416
   93CHL1   H3' 9292   4.797   5.530   6.863 -0.7610 -1.7930  0.1210
   93CHL1    C4 9293   4.785   5.772   6.994  0.0997  0.2692 -0.2322
   93CHL1   H4A 9294   4.894   5.751   6.986 -0.2632 -2.0230 -0.0139
   93CHL1   H4B 9295   4.778   5.842   6.909  0.0372  0.4610 -0.0689
   93CHL1    C5 9296   4.767   5.841   7.124  0.3510  0.1851  0.2901
   93CHL1    C6 9297   4.723   5.968   7.126 -0.3804 -0.1535  0.8910
   93CHL1    H6 9298   4.701   6.021   7.033  0.7895  0.0062  0.6968
   93CHL1    C7 9299   4.694   6.042   7.254  0.0181 -0.0041 -0.0068
   93CHL1   H7A 9300   4.729   6.147   7.255 -0.5438  0.2020  1.9834
   93CHL1   H7B 9301   4.584   6.060   7.258  0.3243  2.0269  0.3351
   93CHL1    C8 9302   4.723   5.979   7.395  0.4709  0.1270  0.1862
   93CHL1    H8 9303   4.830   6.003   7.413  0.4699  1.4149 -1.3451
   93CHL1   C14 9304   4.645   6.045   7.505 -0.0404 -0.6337  0.4001
   93CHL1   H14 9305   4.538   6.032   7.480 -0.1816 -0.6391  0.9805
   93CHL1   C15 9306   4.659   6.195   7.529 -0.0965  0.1400  0.2497
   93CHL1  H15A 9307   4.761   6.236   7.543 -0.6774  0.7829  3.1997
   93CHL1  H15B 9308   4.595   6.245   7.453 -0.1279 -2.6796 -1.7554
   93CHL1   C16 9309   4.604   6.213   7.674 -0.4724 -0.0838  0.5179
   93CHL1  H16A 9310   4.681   6.268   7.733 -0.8210  0.6619  0.2838
   93CHL1  H16B 9311   4.507   6.266   7.680 -0.1256  0.7018 -0.5992
   93CHL1   C17 9312   4.584   6.071   7.734  0.1802  0.5334 -0.3082
   93CHL1   H17 9313   4.478   6.044   7.716  0.5203 -0.4076 -0.9875
   93CHL1   C13 9314   4.674   5.987   7.645 -0.6469  0.3463  0.2247
   93CHL1   C18 9315   4.819   5.999   7.691 -0.2332 -0.1623  0.1444
   93CHL1  H18A 9316   4.861   6.099   7.714  0.9517 -0.4038 -0.8528
   93CHL1  H18B 9317   4.846   5.937   7.780  2.0105 -0.0611 -0.4108
   93CHL1  H18C 9318   4.889   5.971   7.610  0.2841  2.8831 -0.5480
   93CHL1   C12 9319   4.630   5.834   7.623  0.2603  0.7506  0.2082
   93CHL1  H12A 9320   4.640   5.785   7.722 -1.0982  1.1678  0.5798
   93CHL1  H12B 9321   4.531   5.834   7.572  0.7688 -2.2622 -1.0110
   93CHL1   C11 9322   4.725   5.761   7.527  0.0156 -0.4245  0.0140
   93CHL1  H11A 9323   4.830   5.750   7.562 -0.2746 -2.3788  0.3931
   93CHL1  H11B 9324   4.691   5.655   7.526  1.8859 -1.0973  1.3034
   93CHL1    C9 9325   4.710   5.824   7.385  0.1111  0.1382  0.6627
   93CHL1    H9 9326   4.601   5.808   7.367 -0.5017  2.1849  2.1949
   93CHL1   C10 9327   4.784   5.752   7.258 -0.5319 -0.2153 -0.1611
   93CHL1   C19 9328   4.932   5.726   7.301 -0.1520 -0.0263 -0.6804
   93CHL1  H19A 9329   4.990   5.695   7.211 -0.9799 -0.2274 -1.1527
   93CHL1  H19B 9330   4.973   5.825   7.331 -2.0415  1.3249 -2.3271
   93CHL1  H19C 9331   4.943   5.654   7.385  0.4177  1.1776  0.3230
   93CHL1    C1 9332   4.711   5.615   7.234  0.2194 -0.6693 -0.0730
   93CHL1   H1A 9333   4.744   5.554   7.320  2.8149 -0.4116 -0.7660
   93CHL1   H1B 9334   4.602   5.624   7.247  0.5867  1.0480  2.7052
   93CHL1    C2 9335   4.746   5.557   7.100 -0.1080  0.7152  0.5790
   93CHL1   H2A 9336   4.709   5.453   7.092  1.7493  0.1209 -0.7762
   93CHL1   H2B 9337   4.855   5.551   7.083 -0.0938 -0.8186  1.1159
   93CHL1   C20 9338   4.602   6.072   7.887  0.3576  0.3466  0.3454
   93CHL1   H20 9339   4.706   6.089   7.921  0.2957  1.3047  0.0565
   93CHL1   C21 9340   4.575   5.933   7.943  0.0330 -0.2744  0.3794
   93CHL1  H21A 9341   4.491   5.880   7.892  0.3884 -0.1675 -0.3211
   93CHL1  H21B 9342   4.536   5.942   8.047 -3.4990 -0.5470 -0.7765
   93CHL1  H21C 9343   4.674   5.884   7.931  1.2622  1.8911  1.0928
   93CHL1   C22 9344   4.511   6.175   7.956  0.5577  0.2343  0.7860
   93CHL1  H22A 9345   4.514   6.272   7.903 -2.5873  0.9201  1.6308
   93CHL1  H22B 9346   4.405   6.141   7.951  0.1037  1.7283 -3.0474
   93CHL1   C23 9347   4.548   6.234   8.094 -0.1350  0.0289 -0.1034
   93CHL1  H23A 9348   4.467   6.305   8.120 -1.6695 -0.5445 -2.9218
   93CHL1  H23B 9349   4.543   6.153   8.170 -1.0688  0.3728  0.2122
   93CHL1   C24 9350   4.686   6.309   8.095  0.9716  0.3181  0.5579
   93CHL1  H24A 9351   4.771   6.254   8.050 -0.3261 -1.0837 -0.2670
   93CHL1  H24B 9352   4.662   6.397   8.032  1.6837  0.2580  0.2030
   93CHL1   C25 9353   4.727   6.367   8.236 -0.5287 -0.3030 -0.0403
   93CHL1   H25 9354   4.641   6.431   8.263 -1.5424 -1.4820 -0.3952
   93CHL1   C26 9355   4.744   6.256   8.343 -0.2380 -0.2034 -0.5676
   93CHL1  H26A 9356   4.798   6.168   8.301  0.1730 -0.1671 -0.1201
   93CHL1  H26B 9357   4.794   6.307   8.428 -0.0545 -0.9212 -0.2338
   93CHL1  H26C 9358   4.645   6.226   8.383 -0.1193  0.6389  0.3844
   93CHL1   C27 9359   4.849   6.453   8.214 -0.2198 -0.0483 -0.6532
   93CHL1  H27A 9360   4.846   6.482   8.107  1.5939 -2.5965 -1.4842
   93CHL1  H27B 9361   4.851   6.538   8.286  1.4455 -0.7092  0.1395
   93CHL1  H27C 9362   4.947   6.401   8.225 -1.2261 -1.7760  0.6573
   94CHL1    C3 9363   1.270   5.110   6.333 -0.1480  0.2887 -0.6288
   94CHL1    H3 9364   1.306   5.009   6.361  1.3121  1.7897  3.7598
   94CHL1    O3 9365   1.225   5.118   6.201  0.3700 -0.5583  0.2990
   94CHL1   H3' 9366   1.234   5.209   6.171  0.8710 -1.6834 -3.5643
   94CHL1    C4 9367   1.161   5.151   6.431  0.4298  0.5422  0.4652
   94CHL1   H4A 9368   1.131   5.247   6.385 -1.0821  0.8132  1.9327
   94CHL1   H4B 9369   1.074   5.086   6.406 -0.7491  3.1222 -2.9122
   94CHL1    C5 9370   1.209   5.150   6.578 -0.5034  0.6625  0.6793
   94CHL1    C6 9371   1.149   5.081   6.675  0.6004  0.3222 -0.5173
   94CHL1    H6 9372   1.061   5.019   6.652  0.6244  0.4869 -1.0687
   94CHL1    C7 9373   1.188   5.103   6.824  0.9274  0.1022 -0.6070
   94CHL1   H7A 9374   1.100   5.123   6.889  3.1669 -1.1402  3.0453
   94CHL1   H7B 9375   1.236   5.012   6.866  1.1296  0.8565  0.8722
   94CHL1    C8 9376   1.279   5.221   6.850  0.1556 -0.2094  0.1280
   94CHL1    H8 9377   1.219   5.315   6.853 -0.2324 -0.4487 -0.0069
   94CHL1   C14 9378   1.347   5.193   6.989 -0.7700 -0.2271  1.0608
   94CHL1   H14 9379   1.404   5.100   6.973 -2.0522 -0.9984  0.8582
   94CHL1   C15 9380   1.251   5.176   7.106  0.3182 -0.7878 -0.4992
   94CHL1  H15A 9381   1.176   5.257   7.102  1.8000  0.6358 -0.9014
   94CHL1  H15B 9382   1.207   5.074   7.110 -1.7515  0.1217  1.5698
   94CHL1   C16 9383   1.340   5.196   7.226  0.4453  0.2563 -0.1267
   94CHL1  H16A 9384   1.301   5.265   7.303 -0.1088 -1.5782  1.3207
   94CHL1  H16B 9385   1.374   5.112   7.291  1.2703 -0.8717 -1.9349
   94CHL1   C17 9386   1.480   5.238   7.168  0.2942 -0.3832  0.0031
   94CHL1   H17 9387   1.536   5.146   7.142 -0.8518 -1.3559  0.8521
   94CHL1   C13 9388   1.454   5.298   7.022  0.9043 -0.5783 -0.2633
   94CHL1   C18 9389   1.388   5.441   7.047  0.1804 -0.3056  0.0692
   94CHL1  H18A 9390   1.324   5.445   7.138 -0.7369 -0.9240 -0.5161
   94CHL1  H18B 9391   1.466   5.518   7.061 -2.0287  1.9239  0.8428
   94CHL1  H18C 9392   1.323   5.466   6.960 -1.1301  1.2277  1.4158
   94CHL1   C12 9393   1.567   5.301   6.922  0.3477  0.4975 -0.3778
   94CHL1  H12A 9394   1.652   5.368   6.944  1.4129 -1.1274  0.6628
   94CHL1  H12B 9395   1.615   5.201   6.922 -0.5042  0.0759  0.2193
   94CHL1   C11 9396   1.502   5.336   6.781  0.4029  0.6744 -0.4084
   94CHL1  H11A 9397   1.464   5.439   6.795 -1.0095  0.0748  0.4052
   94CHL1  H11B 9398   1.576   5.334   6.698  1.4253 -0.3138  0.4899
   94CHL1    C9 9399   1.389   5.235   6.741 -0.3657  0.2837  0.5850
   94CHL1    H9 9400   1.446   5.139   6.745  0.5670  0.8274  0.6762
   94CHL1   C10 9401   1.329   5.245   6.596 -0.0195  0.8074 -0.2311
   94CHL1   C19 9402   1.298   5.396   6.574 -0.9959  0.2269  0.6452
   94CHL1  H19A 9403   1.391   5.456   6.573 -0.4586 -0.5618  1.4088
   94CHL1  H19B 9404   1.232   5.403   6.485 -1.1261 -0.7734  0.6491
   94CHL1  H19C 9405   1.239   5.426   6.663 -0.4325  1.2844  0.6725
   94CHL1    C1 9406   1.436   5.209   6.492 -0.0824 -0.5999  0.2936
   94CHL1   H1A 9407   1.519   5.283   6.498 -0.6876  0.1627 -0.3627
   94CHL1   H1B 9408   1.473   5.105   6.506 -1.2804 -1.3554 -1.6607
   94CHL1    C2 9409   1.393   5.199   6.344  0.8950  0.4457  0.3485
   94CHL1   H2A 9410   1.475   5.159   6.280  1.8184  1.7808  0.6598
   94CHL1   H2B 9411   1.371   5.299   6.302 -3.2582  0.2305  1.5947
   94CHL1   C20 9412   1.558   5.324   7.270 -0.5152  0.0545  0.5066
   94CHL1   H20 9413   1.495   5.414   7.291 -2.1815 -0.8525 -0.4038
   94CHL1   C21 9414   1.690   5.379   7.202  0.5321 -0.3058 -1.4115
   94CHL1  H21A 9415   1.753   5.293   7.172  1.0251 -0.2903 -0.4601
   94CHL1  H21B 9416   1.744   5.426   7.287 -0.1666 -3.1141  0.7185
   94CHL1  H21C 9417   1.663   5.448   7.120 -0.7211  0.5703 -0.3222
   94CHL1   C22 9418   1.592   5.246   7.403  0.2954  0.3967 -0.4307
   94CHL1  H22A 9419   1.638   5.321   7.471 -2.2814  2.0133 -0.3379
   94CHL1  H22B 9420   1.495   5.220   7.449  0.7596  1.2988  1.1353
   94CHL1   C23 9421   1.676   5.117   7.389  0.3923 -0.8199 -0.4844
   94CHL1  H23A 9422   1.621   5.063   7.309  0.5032 -0.2337 -0.9591
   94CHL1  H23B 9423   1.765   5.158   7.337 -0.6360 -1.2391 -2.6968
   94CHL1   C24 9424   1.689   5.038   7.523 -0.1658  0.4327  0.2195
   94CHL1  H24A 9425   1.682   5.096   7.618 -1.6370  1.2397 -0.3503
   94CHL1  H24B 9426   1.595   4.978   7.521  0.4810 -0.5719 -0.8076
   94CHL1   C25 9427   1.809   4.936   7.525  0.9525  0.0220  1.0332
   94CHL1   H25 9428   1.900   4.999   7.515  0.1670  1.1695  0.9535
   94CHL1   C26 9429   1.817   4.872   7.662  0.0129 -0.4762  0.0130
   94CHL1  H26A 9430   1.807   4.949   7.740 -1.0684 -0.7094  0.1099
   94CHL1  H26B 9431   1.728   4.808   7.676 -0.5811 -0.3558 -2.6843
   94CHL1  H26C 9432   1.904   4.805   7.683 -0.5291 -1.1282  0.2170
   94CHL1   C27 9433   1.808   4.828   7.418  0.0200  0.3650  0.3221
   94CHL1  H27A 9434   1.801   4.872   7.316 -1.2476  1.9072  1.0288
   94CHL1  H27B 9435   1.901   4.768   7.427 -1.3165 -2.0222 -1.0252
   94CHL1  H27C 9436   1.727   4.757   7.445 -1.4992  1.5003 -1.1097
   95CHL1    C3 9437   6.617   5.573   6.845 -0.0344  0.5070  0.6822
   95CHL1    H3 9438   6.693   5.492   6.848 -1.4246 -0.8610 -0.0803
   95CHL1    O3 9439   6.564   5.565   6.715  0.1139  0.1289 -0.2790
   95CHL1   H3' 9440   6.638   5.552   6.655 -0.6313  1.6884 -1.6002
   95CHL1    C4 9441   6.498   5.556   6.940 -0.1209 -0.3278  0.0455
   95CHL1   H4A 9442   6.418   5.622   6.900  0.5439  0.1329 -0.5486
   95CHL1   H4B 9443   6.453   5.456   6.927 -1.5559  0.4863 -1.5847
   95CHL1    C5 9444   6.500   5.592   7.085  0.5196  0.1497 -0.0236
   95CHL1    C6 9445   6.450   5.509   7.178  0.6246  0.8520  0.0353
   95CHL1    H6 9446   6.393   5.422   7.141 -0.0791  1.4376 -0.2811
   95CHL1    C7 9447   6.452   5.530   7.325  0.7889  0.9551  0.2411
   95CHL1   H7A 9448   6.352   5.520   7.372  1.0114  0.9062  0.7148
   95CHL1   H7B 9449   6.512   5.447   7.367 -0.1976  0.4316  0.6537
   95CHL1    C8 9450   6.508   5.678   7.350  0.4434  0.0375  0.2244
   95CHL1    H8 9451   6.426   5.751   7.330  1.3194  0.6265 -1.3795
   95CHL1   C14 9452   6.548   5.695   7.493  0.2110 -0.4877  0.1887
   95CHL1   H14 9453   6.645   5.639   7.490 -0.4275 -1.5811 -1.2762
   95CHL1   C15 9454   6.474   5.621   7.602  0.0958 -0.1276 -0.5556
   95CHL1  H15A 9455   6.364   5.632   7.589  0.2439  1.9836 -0.3025
   95CHL1  H15B 9456   6.498   5.513   7.612  0.2710  0.0308  1.0817
   95CHL1   C16 9457   6.504   5.699   7.731  0.6219 -0.2744 -0.7029
   95CHL1  H16A 9458   6.414   5.745   7.777  0.9031  0.2445 -0.6631
   95CHL1  H16B 9459   6.543   5.625   7.804  1.1083 -0.1260 -0.8081
   95CHL1   C17 9460   6.612   5.803   7.682 -0.1266  1.0606  0.7393
   95CHL1   H17 9461   6.707   5.744   7.681 -1.0676 -0.4898  0.7498
   95CHL1   C13 9462   6.580   5.831   7.540  0.7358  0.4180 -0.0876
   95CHL1   C18 9463   6.449   5.917   7.540  0.6768 -0.3618 -0.1134
   95CHL1  H18A 9464   6.452   6.016   7.589 -0.0335 -0.6730  0.5872
   95CHL1  H18B 9465   6.422   5.953   7.438  1.1649  0.1621 -0.0591
   95CHL1  H18C 9466   6.361   5.861   7.579 -0.1301  1.2359  0.4533
   95CHL1   C12 9467   6.689   5.889   7.452 -0.3936 -0.9511  0.9070
   95CHL1  H12A 9468   6.696   5.999   7.466 -1.2061 -0.8656  0.7256
   95CHL1  H12B 9469   6.788   5.842   7.469  1.3342  2.3158  0.6704
   95CHL1   C11 9470   6.665   5.872   7.300 -0.4044 -0.4263  0.5401
   95CHL1  H11A 9471   6.579   5.940   7.280 -0.0831 -0.8158 -2.4746
   95CHL1  H11B 9472   6.752   5.912   7.244 -1.9998 -0.1453 -1.8770
   95CHL1    C9 9473   6.621   5.729   7.258 -0.0209 -0.5851 -0.4141
   95CHL1    H9 9474   6.705   5.659   7.280 -0.9418 -2.0378 -1.3215
   95CHL1   C10 9475   6.585   5.721   7.107  0.9166  0.0943  0.0409
   95CHL1   C19 9476   6.481   5.836   7.063 -0.3411  0.8034  0.4313
   95CHL1  H19A 9477   6.440   5.822   6.961  2.0979 -1.4218 -0.3809
   95CHL1  H19B 9478   6.396   5.824   7.133  1.0811  0.4151  2.1750
   95CHL1  H19C 9479   6.521   5.939   7.072 -0.1676  0.7776  0.0128
   95CHL1    C1 9480   6.716   5.724   7.019  0.0924  0.3379 -0.2617
   95CHL1   H1A 9481   6.765   5.821   7.040 -0.9158  0.6828  0.6130
   95CHL1   H1B 9482   6.783   5.645   7.061 -2.7721 -3.0059 -1.4452
   95CHL1    C2 9483   6.692   5.704   6.868  0.0403 -0.0270 -0.8233
   95CHL1   H2A 9484   6.788   5.694   6.812 -0.0851 -3.1541 -0.6615
   95CHL1   H2B 9485   6.635   5.789   6.824  1.3070  2.8128  2.6044
   95CHL1   C20 9486   6.649   5.921   7.772 -0.0017  0.1404 -0.0411
   95CHL1   H20 9487   6.563   5.987   7.794  0.5964  0.5203  1.3112
   95CHL1   C21 9488   6.787   5.985   7.743 -0.1316 -0.0564  0.1823
   95CHL1  H21A 9489   6.873   5.917   7.761  0.1927 -0.2107 -1.6909
   95CHL1  H21B 9490   6.801   6.074   7.807  0.6769  0.9163 -1.3081
   95CHL1  H21C 9491   6.797   6.030   7.642  3.3096 -1.2416 -0.1199
   95CHL1   C22 9492   6.663   5.875   7.922 -0.0631 -0.0690  0.0851
   95CHL1  H22A 9493   6.694   5.958   7.989 -1.4769  1.7261 -1.3546
   95CHL1  H22B 9494   6.561   5.846   7.954 -0.8664  3.0004  0.6658
   95CHL1   C23 9495   6.754   5.753   7.950  1.0091 -0.5038 -0.2121
   95CHL1  H23A 9496   6.748   5.664   7.883 -1.4157 -1.4866  1.1680
   95CHL1  H23B 9497   6.853   5.802   7.947 -0.3051  2.2789 -0.7436
   95CHL1   C24 9498   6.733   5.694   8.088 -0.0550 -0.4130 -0.8765
   95CHL1  H24A 9499   6.734   5.780   8.158  1.8395  0.5655 -2.0229
   95CHL1  H24B 9500   6.631   5.650   8.087 -0.5704  0.7544 -1.5476
   95CHL1   C25 9501   6.837   5.578   8.126  0.2478 -0.3291 -0.5839
   95CHL1   H25 9502   6.819   5.506   8.044  1.6145  1.6240 -2.7257
   95CHL1   C26 9503   6.988   5.623   8.137  0.5632 -0.7340 -0.0880
   95CHL1  H26A 9504   6.994   5.729   8.168 -1.9885 -1.2614  2.6348
   95CHL1  H26B 9505   7.040   5.557   8.210  0.5802  1.7137  2.2660
   95CHL1  H26C 9506   7.025   5.613   8.032 -3.7641 -1.2745 -1.7738
   95CHL1   C27 9507   6.791   5.503   8.249  0.3772 -0.1508  0.1345
   95CHL1  H27A 9508   6.835   5.555   8.337  2.4979 -0.6545 -0.5634
   95CHL1  H27B 9509   6.684   5.487   8.272  0.6017 -2.2237 -0.0458
   95CHL1  H27C 9510   6.835   5.401   8.252  1.0938  0.0685 -1.4176
   96CHL1    C3 9511   4.722   1.262   6.754 -0.1227  0.4713  0.1764
   96CHL1    H3 9512   4.741   1.371   6.758 -0.5162  0.6053 -1.1565
   96CHL1    O3 9513   4.741   1.208   6.624 -0.8006 -0.0424  0.3219
   96CHL1   H3' 9514   4.717   1.115   6.626  0.0820 -0.2732  0.5193
   96CHL1    C4 9515   4.830   1.197   6.843  0.4395 -0.0921 -0.2798
   96CHL1   H4A 9516   4.823   1.087   6.836 -2.9275 -0.0040  0.3147
   96CHL1   H4B 9517   4.929   1.221   6.799  0.5346  1.4373  0.6745
   96CHL1    C5 9518   4.817   1.238   6.983  0.0832 -0.4756 -0.4882
   96CHL1    C6 9519   4.917   1.291   7.061  0.0097 -0.3376 -0.0875
   96CHL1    H6 9520   5.013   1.320   7.015  1.2307  0.5038  2.7544
   96CHL1    C7 9521   4.897   1.334   7.203  0.3094 -0.6534  0.2924
   96CHL1   H7A 9522   4.989   1.323   7.265 -0.7823  1.8384  2.5160
   96CHL1   H7B 9523   4.884   1.444   7.208 -2.0391 -0.9253  1.2347
   96CHL1    C8 9524   4.778   1.261   7.275 -0.3805  0.5818  0.0829
   96CHL1    H8 9525   4.818   1.158   7.284 -0.1202  0.6779  0.0300
   96CHL1   C14 9526   4.752   1.329   7.404  0.4129 -0.5668  0.2936
   96CHL1   H14 9527   4.716   1.428   7.369  1.9331 -0.2525 -0.4968
   96CHL1   C15 9528   4.867   1.352   7.507  0.0775 -0.1149 -0.0107
   96CHL1  H15A 9529   4.927   1.259   7.521 -0.1532 -0.4325 -1.0127
   96CHL1  H15B 9530   4.933   1.439   7.485 -0.7241  0.3650 -0.5711
   96CHL1   C16 9531   4.791   1.380   7.644 -0.4853 -0.2725 -0.3848
   96CHL1  H16A 9532   4.819   1.315   7.730 -0.3045  0.5730  0.2078
   96CHL1  H16B 9533   4.817   1.487   7.658  0.1770 -0.5531  0.5524
   96CHL1   C17 9534   4.635   1.364   7.609  0.0908  0.0540 -0.0562
   96CHL1   H17 9535   4.612   1.464   7.564  0.5340 -0.5658 -1.7423
   96CHL1   C13 9536   4.638   1.271   7.482 -0.5093  0.4388 -0.0777
   96CHL1   C18 9537   4.668   1.122   7.524  0.3387 -0.5460  0.0425
   96CHL1  H18A 9538   4.752   1.106   7.595 -1.7355  1.1427  3.1022
   96CHL1  H18B 9539   4.580   1.079   7.577  0.9777 -0.4621  1.1978
   96CHL1  H18C 9540   4.689   1.066   7.430 -1.1667  1.4090 -1.5468
   96CHL1   C12 9541   4.509   1.271   7.403 -0.1487  0.0423 -0.2881
   96CHL1  H12A 9542   4.426   1.234   7.467 -1.1581  3.8494  0.8691
   96CHL1  H12B 9543   4.480   1.378   7.389 -2.6160 -0.2935  1.5163
   96CHL1   C11 9544   4.529   1.200   7.271 -0.0891  0.1313  0.5319
   96CHL1  H11A 9545   4.547   1.092   7.287 -1.7357 -0.2583 -0.0292
   96CHL1  H11B 9546   4.437   1.198   7.207 -0.5259  0.2053  1.1507
   96CHL1    C9 9547   4.652   1.255   7.194  0.2185  0.7869  0.6123
   96CHL1    H9 9548   4.626   1.361   7.173  1.9349  0.8177 -1.7147
   96CHL1   C10 9549   4.678   1.200   7.045 -0.5922 -0.3859 -0.3134
   96CHL1   C19 9550   4.664   1.041   7.041 -0.4169 -0.1169  0.4248
   96CHL1  H19A 9551   4.582   1.003   7.106 -1.3223  1.2469  0.1325
   96CHL1  H19B 9552   4.640   1.004   6.939  0.3112 -2.1831  0.9702
   96CHL1  H19C 9553   4.759   0.996   7.074  1.4754  2.3301 -1.2803
   96CHL1    C1 9554   4.574   1.262   6.954  0.1605 -0.3634 -0.5593
   96CHL1   H1A 9555   4.466   1.254   6.981 -0.0754  2.5986 -0.2349
   96CHL1   H1B 9556   4.600   1.369   6.968  0.6146 -0.4747 -0.5644
   96CHL1    C2 9557   4.583   1.226   6.806  0.0635  0.2241 -0.0935
   96CHL1   H2A 9558   4.516   1.288   6.742  0.5250 -0.5037 -1.3200
   96CHL1   H2B 9559   4.568   1.117   6.788  1.3557 -0.0756  0.5091
   96CHL1   C20 9560   4.529   1.322   7.718 -0.9200  0.1907  0.2440
   96CHL1   H20 9561   4.445   1.262   7.676 -2.1211  1.1953  1.1323
   96CHL1   C21 9562   4.456   1.451   7.764 -0.2048  0.0052 -0.5537
   96CHL1  H21A 9563   4.373   1.424   7.833  0.3594  0.1196  0.1955
   96CHL1  H21B 9564   4.410   1.505   7.679  0.2626  0.0689 -0.7727
   96CHL1  H21C 9565   4.525   1.526   7.809 -0.0832 -0.7539  0.5778
   96CHL1   C22 9566   4.583   1.239   7.836  0.2233  0.3264  0.4346
   96CHL1  H22A 9567   4.622   1.148   7.785 -0.5261  0.1800  0.1100
   96CHL1  H22B 9568   4.662   1.294   7.891  0.4778  0.3815  0.0157
   96CHL1   C23 9569   4.487   1.198   7.947  0.3682  0.3230 -1.2518
   96CHL1  H23A 9570   4.454   1.289   8.001  1.2512 -1.5663  2.8538
   96CHL1  H23B 9571   4.400   1.149   7.897  1.4039 -1.2062 -1.6133
   96CHL1   C24 9572   4.546   1.100   8.045 -0.0447 -0.2888  0.1216
   96CHL1  H24A 9573   4.535   1.003   7.993 -1.2366 -0.1906  0.1673
   96CHL1  H24B 9574   4.656   1.118   8.042 -0.3443  2.0359  0.8361
   96CHL1   C25 9575   4.509   1.089   8.185 -0.5063 -0.2596 -0.4111
   96CHL1   H25 9576   4.405   1.056   8.201 -0.3904 -1.0582 -1.2379
   96CHL1   C26 9577   4.599   0.983   8.243 -0.2628  0.1973 -1.4171
   96CHL1  H26A 9578   4.563   0.888   8.199 -3.4431 -1.0400  3.0998
   96CHL1  H26B 9579   4.707   1.007   8.230  0.2195 -1.3341 -0.5539
   96CHL1  H26C 9580   4.584   0.975   8.353  0.1402 -0.5203 -1.4051
   96CHL1   C27 9581   4.527   1.221   8.267 -0.0337 -0.2406  0.2596
   96CHL1  H27A 9582   4.633   1.254   8.260  0.4849 -1.8131  0.2706
   96CHL1  H27B 9583   4.455   1.294   8.224 -1.4212 -1.0810  1.0718
   96CHL1  H27C 9584   4.498   1.217   8.374  3.2660  0.5931  1.3115
   97OSM      N 9585   6.027   4.825  10.756 -0.0251 -0.5978  0.0203
   97OSM    C15 9586   5.997   4.916  10.872  0.1746 -0.0555  0.5812
   97OSM   H15A 9587   6.082   4.964  10.917 -1.0857  1.5233  1.4048
   97OSM   H15B 9588   5.958   4.860  10.956 -0.0791  1.8521  1.8100
   97OSM   H15C 9589   5.932   4.994  10.833  0.5497 -0.7272 -1.4792
   97OSM    C14 9590   6.128   4.729  10.795 -0.2113 -0.1830 -0.6687
   97OSM   H14A 9591   6.100   4.674  10.884 -1.3136  0.9000 -0.3058
   97OSM   H14B 9592   6.226   4.772  10.812  1.2110 -3.2206 -0.5357
   97OSM   H14C 9593   6.148   4.658  10.717 -0.7664 -0.7945 -0.2600
   97OSM    C13 9594   5.904   4.750  10.726 -0.2117  0.5064  0.2046
   97OSM   H13A 9595   5.813   4.807  10.716 -0.7629 -0.1668  1.2057
   97OSM   H13B 9596   5.880   4.679  10.804 -0.4364  1.0960  0.6856
   97OSM   H13C 9597   5.918   4.691  10.637  1.0582 -0.4121  0.9753
   97OSM    C12 9598   6.072   4.912  10.639  0.7732  0.9188  0.0068
   97OSM   H12A 9599   6.156   4.964  10.684  2.1288 -0.8858 -0.3174
   97OSM   H12B 9600   6.000   4.988  10.614  1.9673  1.4653 -2.0075
   97OSM    C11 9601   6.103   4.843  10.509  0.2882  0.2240  0.3682
   97OSM   H11A 9602   6.189   4.773  10.524 -0.0051 -0.0930  0.5833
   97OSM   H11B 9603   6.134   4.923  10.439  0.5132 -1.2685 -1.3114
   97OSM      P 9604   5.888   4.827  10.367 -0.6516  0.0399  0.2859
   97OSM    O13 9605   5.774   4.737  10.352 -0.2496  0.7070  0.4093
   97OSM    O14 9606   5.858   4.963  10.409  0.1076 -0.3186  0.0996
   97OSM    O11 9607   5.976   4.831  10.237  0.0967  0.0279 -0.2822
   97OSM    O12 9608   5.987   4.767  10.467  0.4661  0.0643  0.6319
   97OSM    C1S 9609   5.910   4.812  10.107 -0.0906  0.2633  0.5902
   97OSM    H1S 9610   5.877   4.916  10.085  0.1142  0.4843  1.3049
   97OSM    H1T 9611   5.821   4.746  10.109  0.2089 -0.2471 -0.9671
   97OSM     NF 9612   5.952   4.770   9.864  0.2501  0.2270 -0.6095
   97OSM    HNF 9613   5.918   4.690   9.816  1.0367  0.4791 -1.6171
   97OSM    C2S 9614   6.008   4.772   9.998  0.1459 -0.1519 -0.1194
   97OSM    H2S 9615   6.085   4.852  10.001  0.0633  0.0317 -1.8620
   97OSM    C3S 9616   6.064   4.632  10.034 -0.0957 -0.0373  0.4970
   97OSM    H3S 9617   5.980   4.560  10.037  0.4835 -0.7097  2.6524
   97OSM     O3 9618   6.116   4.623  10.168 -0.2699 -0.4871  0.5413
   97OSM    HO3 9619   6.071   4.693  10.217 -1.2688 -1.6049  1.2765
   97OSM    C4S 9620   6.178   4.586   9.936 -0.2912 -0.2312  0.3829
   97OSM    H4S 9621   6.141   4.529   9.849  2.5506 -0.2484 -0.9120
   97OSM    C5S 9622   6.311   4.612   9.939 -0.5121  0.2801  0.1100
   97OSM    H5S 9623   6.354   4.674  10.019 -2.2726  3.3230 -1.1126
   97OSM    C6S 9624   6.417   4.573   9.837  0.6015 -0.2285 -0.1627
   97OSM    H6S 9625   6.493   4.504   9.879 -0.0585 -0.8891 -0.0072
   97OSM    H6T 9626   6.472   4.665   9.810 -1.0060  1.8809  3.1300
   97OSM    C7S 9627   6.346   4.507   9.712 -0.0829 -0.6736 -0.4345
   97OSM    H7S 9628   6.270   4.575   9.668  1.4828  0.9314 -0.7661
   97OSM    H7T 9629   6.296   4.415   9.751 -0.9816 -1.4892 -3.2572
   97OSM    C8S 9630   6.441   4.466   9.609 -0.4490 -0.1983 -0.6462
   97OSM    H8S 9631   6.544   4.450   9.648 -0.3218  1.3016 -0.3102
   97OSM    H8T 9632   6.455   4.554   9.543 -2.8845  1.0576  0.3480
   97OSM    C9S 9633   6.395   4.355   9.521  0.1367 -0.2724 -0.1891
   97OSM    H9S 9634   6.302   4.386   9.468  0.9637  0.4571 -1.2299
   97OSM    H9T 9635   6.386   4.257   9.574 -0.4137  0.2095  0.6338
   97OSM   C10S 9636   6.499   4.338   9.405 -0.4813  1.0652 -0.6440
   97OSM   H10S 9637   6.600   4.309   9.441 -0.4476  2.2742  0.3113
   97OSM   H10T 9638   6.512   4.433   9.349  0.8618  1.2080 -0.1286
   97OSM   C11S 9639   6.448   4.225   9.322 -0.5453  0.2535  0.0210
   97OSM   H11S 9640   6.408   4.143   9.385 -0.7101 -0.7349 -1.3218
   97OSM   H11T 9641   6.535   4.186   9.265  1.6136  2.9401  1.2299
   97OSM   C12S 9642   6.345   4.250   9.209  0.1797 -0.0690 -0.9756
   97OSM   H12S 9643   6.274   4.321   9.257 -0.5159 -1.8816  0.8037
   97OSM   H12T 9644   6.289   4.155   9.195  1.2377 -0.5855 -1.8209
   97OSM   C13S 9645   6.405   4.294   9.083  0.9114 -0.0594 -0.2514
   97OSM   H13S 9646   6.490   4.227   9.058  1.0219 -0.3933  0.9444
   97OSM   H13T 9647   6.449   4.396   9.097 -1.2228  1.1977 -2.0092
   97OSM   C14S 9648   6.308   4.300   8.959 -0.2437  0.0295 -0.6828
   97OSM   H14S 9649   6.362   4.369   8.891  0.5571 -0.4499 -0.5429
   97OSM   H14T 9650   6.208   4.337   8.989 -0.8779 -2.1623  0.0521
   97OSM   C15S 9651   6.278   4.166   8.885  0.4623 -0.0828 -0.2456
   97OSM   H15S 9652   6.216   4.109   8.957 -1.0716  2.6290  0.7266
   97OSM   H15T 9653   6.379   4.120   8.875  0.0615 -0.8758 -0.7405
   97OSM   C16S 9654   6.205   4.169   8.752 -0.3442  0.4381  0.5921
   97OSM   H16S 9655   6.100   4.204   8.757 -0.8138 -0.3405 -2.2727
   97OSM   H16T 9656   6.202   4.066   8.709  0.4047  1.1533 -1.2512
   97OSM   C17S 9657   6.283   4.249   8.649 -1.2173 -0.1866 -0.3208
   97OSM   H17S 9658   6.388   4.211   8.655 -1.3942 -0.5749  0.4321
   97OSM   H17T 9659   6.301   4.354   8.682  0.9219 -0.5737 -0.0877
   97OSM   C18S 9660   6.239   4.240   8.505 -0.8106  1.0676  0.7133
   97OSM   H18S 9661   6.142   4.293   8.495  0.0406  2.7249  0.7712
   97OSM   H18T 9662   6.245   4.139   8.460  1.5773  1.5297 -0.2071
   97OSM   H18U 9663   6.306   4.308   8.447 -1.3499  0.1616 -1.0638
   97OSM    C1F 9664   5.919   4.877   9.803 -0.1273 -0.8015  0.4629
   97OSM     OF 9665   5.931   4.984   9.861  0.6650  0.0742  0.1056
   97OSM    C2F 9666   5.860   4.859   9.669  0.4464 -0.1882 -0.3549
   97OSM    H2F 9667   5.760   4.908   9.668  0.6476  0.2549 -1.7966
   97OSM    H2G 9668   5.847   4.749   9.660 -1.4327 -0.0337 -0.0383
   97OSM    C3F 9669   5.951   4.899   9.552  0.3301 -0.6447 -0.1470
   97OSM    H3F 9670   5.966   5.009   9.549  0.6859 -0.4527  3.8439
   97OSM    H3G 9671   5.906   4.875   9.453  0.4054 -0.9274 -0.1120
   97OSM    C4F 9672   6.097   4.851   9.564  0.0955  0.2119  0.0949
   97OSM    H4F 9673   6.092   4.745   9.597  1.0445  0.8586  2.5108
   97OSM    H4G 9674   6.150   4.907   9.644 -0.1868  1.7621 -0.7524
   97OSM    C5F 9675   6.175   4.881   9.438 -0.0433  0.2278  0.5143
   97OSM    H5F 9676   6.285   4.872   9.448  0.6310  0.1467 -4.2519
   97OSM    H5G 9677   6.147   4.984   9.408 -0.6451  0.1197  0.6889
   97OSM    C6F 9678   6.132   4.799   9.318 -0.1866 -0.2067  0.4546
   97OSM    H6F 9679   6.026   4.797   9.283  0.1603  0.0308 -0.6543
   97OSM    H6G 9680   6.151   4.697   9.358 -0.9567 -0.1702  0.9514
   97OSM    C7F 9681   6.229   4.800   9.195 -0.1400  0.1231 -0.4758
   97OSM    H7F 9682   6.330   4.768   9.229  0.8972  3.5332 -0.0581
   97OSM    H7G 9683   6.241   4.894   9.137 -1.7985  2.7245  3.0946
   97OSM    C8F 9684   6.163   4.705   9.096  0.3322  0.1255 -0.2956
   97OSM    H8F 9685   6.068   4.747   9.056  0.0978 -1.2179 -1.2072
   97OSM    H8G 9686   6.155   4.608   9.149  1.7493 -0.7411 -1.5711
   97OSM    C9F 9687   6.249   4.680   8.974 -0.5068  0.0446 -0.2151
   97OSM    H9F 9688   6.334   4.616   9.000 -0.9675  0.2744  2.0423
   97OSM   C10F 9689   6.230   4.716   8.844  0.6943 -0.4929 -0.7513
   97OSM   H10F 9690   6.284   4.663   8.765 -0.7904 -1.9038 -0.8790
   97OSM   C11F 9691   6.110   4.795   8.804  0.7130 -0.3602  0.0307
   97OSM   H11F 9692   6.127   4.855   8.713 -0.6531 -0.5998 -0.4019
   97OSM   H11G 9693   6.078   4.873   8.876 -0.2373 -0.2513 -0.5040
   97OSM   C12F 9694   5.991   4.709   8.775 -0.0195  0.5600  0.4062
   97OSM   H12F 9695   5.906   4.776   8.748  0.3589  1.3432  1.0958
   97OSM   H12G 9696   5.952   4.662   8.868 -0.3195  0.9741  0.4949
   97OSM   C13F 9697   5.996   4.611   8.661 -0.5994  0.1712  0.3018
   97OSM   H13F 9698   6.034   4.517   8.706 -1.8700 -0.3299  0.3450
   97OSM   H13G 9699   6.068   4.645   8.583  0.0095 -3.5632 -0.9671
   97OSM   C14F 9700   5.864   4.583   8.588  0.3463  0.0345 -0.5622
   97OSM   H14F 9701   5.828   4.685   8.562  2.9218  0.9155 -0.8798
   97OSM   H14G 9702   5.789   4.530   8.652  1.8215 -2.0784 -0.4712
   97OSM   C15F 9703   5.887   4.502   8.468 -0.5400  0.6248  1.2535
   97OSM   H15F 9704   5.963   4.423   8.487  0.7445  1.6874  0.7709
   97OSM   H15G 9705   5.930   4.566   8.387 -2.6863  0.3825 -0.1749
   97OSM   C16F 9706   5.764   4.442   8.402 -0.1977  0.3281  0.4967
   97OSM   H16F 9707   5.687   4.518   8.380  1.0024  0.8541 -2.3588
   97OSM   H16G 9708   5.709   4.371   8.468 -0.5962 -1.3581 -1.5431
   97OSM   C17F 9709   5.785   4.371   8.266 -0.0839 -0.7541 -0.0660
   97OSM   H17F 9710   5.838   4.442   8.199  1.6215 -2.0952 -0.2051
   97OSM   H17G 9711   5.685   4.350   8.221 -0.9986 -0.4214  1.7171
   97OSM   C18F 9712   5.861   4.244   8.269 -0.5414  0.0334 -0.2190
   97OSM   H18F 9713   5.968   4.262   8.243 -0.3671  0.2383  0.5909
   97OSM   H18G 9714   5.817   4.169   8.201  1.3529 -1.0061 -0.3914
   97OSM   H18H 9715   5.861   4.207   8.374 -0.2826  2.0934  0.5626
   98OSM      N 9716   0.147   5.300  11.141  0.5064  0.0945 -0.2056
   98OSM    C15 9717   0.120   5.156  11.179 -0.1562 -0.3923 -0.3573
   98OSM   H15A 9718   0.174   5.143  11.271  0.5488 -0.0975 -0.7213
   98OSM   H15B 9719   0.144   5.084  11.102 -1.5817  0.3087 -1.5134
   98OSM   H15C 9720   0.016   5.157  11.205 -0.1959  1.5984 -0.3948
   98OSM    C14 9721   0.099   5.390  11.254  0.0305 -0.2464  0.6415
   98OSM   H14A 9722   0.170   5.379  11.335 -0.2403  1.2179  1.0966
   98OSM   H14B 9723  -0.001   5.361  11.283 -0.1097 -1.3787 -0.8583
   98OSM   H14C 9724   0.099   5.489  11.212  0.2530 -1.0961 -1.4795
   98OSM    C13 9725   0.296   5.336  11.122 -0.9054  0.3118  0.3565
   98OSM   H13A 9726   0.340   5.276  11.044  2.1578  0.9170  1.5158
   98OSM   H13B 9727   0.352   5.332  11.214  0.0113 -0.0346 -0.2103
   98OSM   H13C 9728   0.290   5.439  11.089 -2.7379  0.0044 -0.4039
   98OSM    C12 9729   0.071   5.322  11.011 -0.6669 -0.7406 -0.1775
   98OSM   H12A 9730   0.099   5.422  10.981  0.9135 -0.2907  2.4295
   98OSM   H12B 9731  -0.033   5.316  11.037 -0.4405 -1.2578  0.6479
   98OSM    C11 9732   0.107   5.239  10.891 -0.3358 -0.4966  0.2298
   98OSM   H11A 9733   0.215   5.248  10.867 -1.2028  0.4964 -4.1994
   98OSM   H11B 9734   0.068   5.283  10.796 -1.8644  0.5856  1.3139
   98OSM      P 9735  -0.067   5.045  10.877  0.0219 -0.3897  0.1537
   98OSM    O13 9736  -0.037   4.903  10.906 -1.0430  0.3112  0.9692
   98OSM    O14 9737  -0.171   5.109  10.965 -0.2081 -0.3079 -0.5751
   98OSM    O11 9738  -0.096   5.057  10.719  0.3792 -0.5225 -0.5576
   98OSM    O12 9739   0.073   5.101  10.906 -0.5577  0.3229 -0.2256
   98OSM    C1S 9740   0.003   5.000  10.632 -0.2645  0.1752 -0.3857
   98OSM    H1S 9741   0.029   4.896  10.660 -1.1306 -0.5064 -1.9770
   98OSM    H1T 9742   0.097   5.060  10.630  0.9180 -1.6192 -1.5584
   98OSM     NF 9743   0.085   4.940  10.414 -0.2168 -0.0839  0.4150
   98OSM    HNF 9744   0.144   5.003  10.365 -0.5036 -0.5983 -0.6159
   98OSM    C2S 9745  -0.020   5.009  10.490  0.0152 -0.0393  0.7135
   98OSM    H2S 9746  -0.114   4.954  10.469  0.1384  0.3692 -1.0947
   98OSM    C3S 9747  -0.045   5.160  10.447 -0.2092  0.1211  0.8506
   98OSM    H3S 9748   0.049   5.209  10.480 -0.3588 -0.8889  2.8971
   98OSM     O3 9749  -0.151   5.228  10.513  0.4003 -0.4114  0.2000
   98OSM    HO3 9750  -0.168   5.169  10.587  1.6188 -0.7193  0.2555
   98OSM    C4S 9751  -0.058   5.176  10.299  0.4920  0.8544  0.3406
   98OSM    H4S 9752   0.032   5.211  10.246  0.3088 -2.0827 -2.2074
   98OSM    C5S 9753  -0.167   5.158  10.223  0.3585 -0.6019  0.2813
   98OSM    H5S 9754  -0.265   5.133  10.266 -0.4908  1.5991 -0.2501
   98OSM    C6S 9755  -0.188   5.166  10.072  0.1395 -0.2587 -0.7272
   98OSM    H6S 9756  -0.241   5.260  10.045  1.0747 -0.2819 -2.8061
   98OSM    H6T 9757  -0.259   5.084  10.048  0.3154 -0.1024 -1.8527
   98OSM    C7S 9758  -0.057   5.166   9.979  0.6473  0.1055 -0.4203
   98OSM    H7S 9759   0.019   5.095  10.019 -0.4918 -0.3645  0.9941
   98OSM    H7T 9760   0.004   5.259   9.985  1.9284 -0.4811 -2.9560
   98OSM    C8S 9761  -0.094   5.144   9.834  0.3720 -0.2227  0.9200
   98OSM    H8S 9762  -0.179   5.077   9.809  1.7642 -1.7000  0.0327
   98OSM    H8T 9763  -0.014   5.085   9.785 -1.4441 -1.8716 -0.2071
   98OSM    C9S 9764  -0.118   5.285   9.770 -0.1502  0.0429 -0.5206
   98OSM    H9S 9765  -0.046   5.350   9.823 -1.1167 -0.0863  0.9981
   98OSM    H9T 9766  -0.214   5.334   9.796 -0.3642 -1.2123  1.2439
   98OSM   C10S 9767  -0.092   5.291   9.617  0.1090 -0.6156  0.2580
   98OSM   H10S 9768   0.001   5.238   9.587 -0.1391 -0.1067 -1.5239
   98OSM   H10T 9769  -0.087   5.399   9.593  2.7293 -1.3274 -3.1042
   98OSM   C11S 9770  -0.204   5.229   9.529  0.5284 -0.2092  0.0898
   98OSM   H11S 9771  -0.305   5.245   9.571  1.1841  0.7570  1.3502
   98OSM   H11T 9772  -0.182   5.120   9.527  0.6193 -0.1960  0.3894
   98OSM   C12S 9773  -0.193   5.289   9.388 -0.3413 -0.6720  0.4314
   98OSM   H12S 9774  -0.087   5.317   9.371 -0.5657  0.8953  1.4100
   98OSM   H12T 9775  -0.245   5.387   9.382 -2.2168 -1.5790  1.0191
   98OSM   C13S 9776  -0.244   5.192   9.281 -0.0722  0.5399  0.8595
   98OSM   H13S 9777  -0.348   5.162   9.303 -0.7295  1.6658 -0.5133
   98OSM   H13T 9778  -0.187   5.097   9.281 -0.3675  0.3643  1.5194
   98OSM   C14S 9779  -0.231   5.259   9.142  0.1519  0.2027 -0.0979
   98OSM   H14S 9780  -0.122   5.275   9.129  0.8830 -2.4694  1.8100
   98OSM   H14T 9781  -0.286   5.353   9.122 -1.5257 -1.2704 -3.0309
   98OSM   C15S 9782  -0.281   5.158   9.039 -0.2655  0.2675  0.1490
   98OSM   H15S 9783  -0.382   5.118   9.062  0.4557 -1.4551  0.4578
   98OSM   H15T 9784  -0.220   5.065   9.036  0.9575  0.9032  2.5685
   98OSM   C16S 9785  -0.278   5.204   8.896  0.5665 -0.1503 -0.0715
   98OSM   H16S 9786  -0.185   5.261   8.872  0.5497  1.0347  2.3664
   98OSM   H16T 9787  -0.362   5.275   8.882  0.2234 -0.5846 -0.2147
   98OSM   C17S 9788  -0.304   5.102   8.783  0.5354  0.2270 -0.2625
   98OSM   H17S 9789  -0.243   5.016   8.817  1.4959  0.9105 -0.2348
   98OSM   H17T 9790  -0.263   5.142   8.688  2.4654 -0.8987  0.0592
   98OSM   C18S 9791  -0.455   5.066   8.759  0.4243  0.4058  0.4124
   98OSM   H18S 9792  -0.517   5.154   8.734  0.6151  0.2614 -0.6084
   98OSM   H18T 9793  -0.495   5.021   8.852 -1.4272  3.0978  1.0411
   98OSM   H18U 9794  -0.458   4.990   8.678 -0.8463  0.9419 -0.0692
   98OSM    C1F 9795   0.109   4.806  10.434 -0.4751 -0.5439  0.1807
   98OSM     OF 9796   0.043   4.736  10.507 -0.1800  0.1143  0.0006
   98OSM    C2F 9797   0.236   4.755  10.366  0.1876  0.0352  0.4122
   98OSM    H2F 9798   0.310   4.732  10.445  0.7832  0.8539  0.1173
   98OSM    H2G 9799   0.279   4.828  10.294 -1.6235 -0.6346 -1.4442
   98OSM    C3F 9800   0.208   4.613  10.291 -0.0526  0.2952 -0.6348
   98OSM    H3F 9801   0.113   4.622  10.234 -0.2506 -0.5335 -0.4503
   98OSM    H3G 9802   0.202   4.552  10.384  1.3770 -0.0934 -0.7726
   98OSM    C4F 9803   0.315   4.575  10.199 -0.3506 -0.3641 -0.2140
   98OSM    H4F 9804   0.325   4.464  10.196  2.1002 -0.3550  2.5957
   98OSM    H4G 9805   0.414   4.609  10.236 -0.6664 -0.8028  1.1121
   98OSM    C5F 9806   0.309   4.625  10.056  1.1276  0.5529  0.2700
   98OSM    H5F 9807   0.246   4.717  10.051 -0.8792 -0.7010  1.2116
   98OSM    H5G 9808   0.234   4.559  10.008 -1.4896  1.0568  3.3191
   98OSM    C6F 9809   0.444   4.630   9.980 -0.3150 -0.2944 -0.0702
   98OSM    H6F 9810   0.503   4.541  10.009 -0.6021 -0.4507  0.0390
   98OSM    H6G 9811   0.495   4.720  10.022  0.0228 -0.2041 -0.6578
   98OSM    C7F 9812   0.430   4.628   9.822 -0.1024 -0.3947 -0.7581
   98OSM    H7F 9813   0.523   4.671   9.780 -0.1597  1.7363  1.0746
   98OSM    H7G 9814   0.351   4.700   9.791 -0.9421 -1.7141 -1.7832
   98OSM    C8F 9815   0.403   4.493   9.752 -0.7703 -1.0310  0.5583
   98OSM    H8F 9816   0.418   4.521   9.645  0.4525 -0.0484  0.9460
   98OSM    H8G 9817   0.298   4.480   9.784 -0.2146 -0.3539  2.8564
   98OSM    C9F 9818   0.485   4.375   9.795 -0.5983 -1.0027  0.2070
   98OSM    H9F 9819   0.469   4.344   9.899  1.5931 -0.8143  0.6578
   98OSM   C10F 9820   0.579   4.310   9.717  0.0428 -0.5142  0.0791
   98OSM   H10F 9821   0.646   4.233   9.757  2.4850  1.1113 -0.6573
   98OSM   C11F 9822   0.619   4.353   9.576 -0.7630 -0.1485 -0.3777
   98OSM   H11F 9823   0.724   4.389   9.584 -0.5077 -1.1974  1.8859
   98OSM   H11G 9824   0.550   4.428   9.534 -2.6559 -1.8312 -0.4449
   98OSM   C12F 9825   0.603   4.236   9.477  0.6000  0.1459 -0.6621
   98OSM   H12F 9826   0.495   4.210   9.475  0.1994  1.2057  2.1574
   98OSM   H12G 9827   0.656   4.145   9.511  1.7679  1.2872  0.7345
   98OSM   C13F 9828   0.644   4.275   9.333 -0.8443 -0.8703  0.5264
   98OSM   H13F 9829   0.750   4.242   9.321 -0.3750  0.4525  0.8957
   98OSM   H13G 9830   0.630   4.385   9.326  1.5426 -0.4453  1.4583
   98OSM   C14F 9831   0.554   4.202   9.227 -0.9433  0.1724  0.6224
   98OSM   H14F 9832   0.454   4.248   9.247 -0.5188  2.1450 -1.3862
   98OSM   H14G 9833   0.549   4.096   9.259  0.3568  0.1988  0.9459
   98OSM   C15F 9834   0.609   4.223   9.084 -0.3229 -0.3600  0.6877
   98OSM   H15F 9835   0.707   4.176   9.063  0.2749  1.8418 -2.0537
   98OSM   H15G 9836   0.631   4.331   9.071 -1.6440 -0.3398 -2.5655
   98OSM   C16F 9837   0.495   4.184   8.989 -0.0959  0.6034 -0.1401
   98OSM   H16F 9838   0.411   4.255   9.009 -1.2307 -0.7961  0.2018
   98OSM   H16G 9839   0.460   4.082   9.015  1.6271 -0.1921 -0.7845
   98OSM   C17F 9840   0.538   4.185   8.843 -0.2884  0.0070 -0.2514
   98OSM   H17F 9841   0.626   4.123   8.820  0.2960  0.1933  1.3843
   98OSM   H17G 9842   0.563   4.290   8.816 -3.8626  0.9175 -0.6349
   98OSM   C18F 9843   0.431   4.133   8.755  0.4049 -0.2262  0.4359
   98OSM   H18F 9844   0.416   4.025   8.773 -0.4454 -0.1021  0.5074
   98OSM   H18G 9845   0.459   4.146   8.648 -1.9371  1.0982 -0.0871
   98OSM   H18H 9846   0.339   4.190   8.782  0.3317  0.0712 -0.3975
   99OSM      N 9847   0.117   5.806  10.567 -0.1428  0.0067  0.9536
   99OSM    C15 9848   0.098   5.750  10.702  0.5199  0.4083  0.0388
   99OSM   H15A 9849   0.165   5.666  10.710  0.0918  0.0627  0.0707
   99OSM   H15B 9850  -0.006   5.720  10.709  0.6868 -0.1064  0.3104
   99OSM   H15C 9851   0.131   5.819  10.779  2.0562 -0.3434  0.0685
   99OSM    C14 9852   0.258   5.824  10.538 -0.8503  0.3926 -0.1082
   99OSM   H14A 9853   0.308   5.890  10.607 -1.0782  0.4906 -0.0346
   99OSM   H14B 9854   0.274   5.870  10.441  1.0402  1.5775  0.7157
   99OSM   H14C 9855   0.315   5.732  10.538 -1.1420  0.2068  0.9789
   99OSM    C13 9856   0.052   5.707  10.477 -0.3029  0.1037  0.3902
   99OSM   H13A 9857   0.056   5.734  10.372 -0.6833 -1.8303 -0.1711
   99OSM   H13B 9858  -0.052   5.695  10.501 -1.0762  1.7996 -1.7265
   99OSM   H13C 9859   0.097   5.610  10.494  0.8774  0.8702  1.8319
   99OSM    C12 9860   0.037   5.934  10.561 -0.3616  0.9850  0.6455
   99OSM   H12A 9861   0.060   5.985  10.654  1.7575 -0.7121  1.1492
   99OSM   H12B 9862  -0.066   5.903  10.567  0.4456 -2.2281  0.1845
   99OSM    C11 9863   0.078   6.019  10.441 -0.0342 -0.5419 -0.7328
   99OSM   H11A 9864   0.012   6.108  10.436 -0.7282 -0.6625  3.2442
   99OSM   H11B 9865   0.059   5.956  10.352 -2.6046 -1.4372  0.3741
   99OSM      P 9866   0.254   6.176  10.565 -0.0466 -0.2328 -0.0321
   99OSM    O13 9867   0.137   6.203  10.651 -0.3192 -0.8889  0.5544
   99OSM    O14 9868   0.383   6.121  10.626  0.4093  0.0585 -0.2164
   99OSM    O11 9869   0.304   6.302  10.479  0.3371 -0.2638 -0.4560
   99OSM    O12 9870   0.212   6.066  10.454  0.1886 -0.6596  0.1348
   99OSM    C1S 9871   0.257   6.318  10.347 -0.2463 -0.7426 -0.2625
   99OSM    H1S 9872   0.147   6.318  10.337 -0.2984  0.9322 -0.0031
   99OSM    H1T 9873   0.314   6.246  10.283  1.1175  2.0253 -2.3822
   99OSM     NF 9874   0.233   6.502  10.183  0.1972  0.1001  0.4516
   99OSM    HNF 9875   0.301   6.494  10.111  2.1831  2.6283  1.8494
   99OSM    C2S 9876   0.294   6.464  10.303  0.1704 -0.1433 -1.2705
   99OSM    H2S 9877   0.260   6.525  10.389  0.3788 -1.7599 -0.0097
   99OSM    C3S 9878   0.451   6.479  10.305  0.0635 -0.0127  0.2933
   99OSM    H3S 9879   0.489   6.401  10.236  1.5696  0.1813  0.8738
   99OSM     O3 9880   0.509   6.461  10.432  0.7719  0.3891 -0.7257
   99OSM    HO3 9881   0.426   6.451  10.479  2.3327  1.5659  2.5750
   99OSM    C4S 9882   0.492   6.622  10.270  0.4692 -0.2167  1.3263
   99OSM    H4S 9883   0.439   6.705  10.318 -0.1517  0.9665 -1.2327
   99OSM    C5S 9884   0.583   6.646  10.173 -0.0747 -0.3436 -0.2506
   99OSM    H5S 9885   0.630   6.554  10.134  1.3217  0.2821 -0.0886
   99OSM    C6S 9886   0.617   6.779  10.114  0.1663  0.3603  0.3550
   99OSM    H6S 9887   0.723   6.797  10.141  0.3775 -0.2089 -0.0769
   99OSM    H6T 9888   0.544   6.855  10.149 -0.9562 -1.7777  3.0654
   99OSM    C7S 9889   0.609   6.766   9.960 -0.1156  0.5591  0.3645
   99OSM    H7S 9890   0.510   6.733   9.922 -0.0109 -0.5608  1.0085
   99OSM    H7T 9891   0.682   6.684   9.939  2.8219  2.0349  3.6947
   99OSM    C8S 9892   0.667   6.886   9.876  0.1084  0.1235  0.3614
   99OSM    H8S 9893   0.764   6.914   9.922  0.9191 -1.3071 -0.4112
   99OSM    H8T 9894   0.599   6.975   9.875 -1.7200 -1.2068  0.2674
   99OSM    C9S 9895   0.684   6.855   9.728 -0.6410  0.0614  0.2044
   99OSM    H9S 9896   0.586   6.817   9.692 -0.7188  0.7413 -0.3117
   99OSM    H9T 9897   0.751   6.767   9.736  0.2637  0.9077  3.1221
   99OSM   C10S 9898   0.738   6.961   9.631  0.5024  0.8466 -0.1859
   99OSM   H10S 9899   0.659   7.039   9.632  1.8086  2.2532  2.0900
   99OSM   H10T 9900   0.738   6.925   9.526 -0.5819 -1.7682  0.6341
   99OSM   C11S 9901   0.866   7.025   9.672  0.1680  0.2793 -0.0345
   99OSM   H11S 9902   0.930   6.945   9.714  0.8132  0.0652 -1.3570
   99OSM   H11T 9903   0.846   7.089   9.761  1.4701 -0.7189  1.0109
   99OSM   C12S 9904   0.943   7.096   9.560 -0.2953  0.6892  0.0738
   99OSM   H12S 9905   0.871   7.148   9.493 -0.6884 -1.8172 -1.5800
   99OSM   H12T 9906   1.022   7.165   9.596  0.5007  0.4289 -1.1245
   99OSM   C13S 9907   1.029   7.003   9.472 -0.2256  0.3747  0.5541
   99OSM   H13S 9908   0.958   6.942   9.411 -0.3202  0.6593  0.3737
   99OSM   H13T 9909   1.085   6.930   9.533  0.2953  1.0069  0.8414
   99OSM   C14S 9910   1.116   7.073   9.370 -0.8479 -0.4459 -0.0663
   99OSM   H14S 9911   1.180   7.141   9.431  0.7616 -1.6600 -0.3356
   99OSM   H14T 9912   1.045   7.120   9.299 -2.0737 -3.2283 -0.7784
   99OSM   C15S 9913   1.204   6.991   9.276  0.5151 -0.1859  0.2276
   99OSM   H15S 9914   1.142   6.909   9.231  1.1443 -0.1945 -0.6519
   99OSM   H15T 9915   1.295   6.949   9.324  0.8414  1.4915  1.1323
   99OSM   C16S 9916   1.241   7.077   9.155 -0.4054 -0.0164  0.2532
   99OSM   H16S 9917   1.315   7.155   9.183  0.4894 -0.6311 -0.3528
   99OSM   H16T 9918   1.151   7.137   9.131  0.0915  1.9735  2.8726
   99OSM   C17S 9919   1.280   6.997   9.030  0.3163 -0.4602  0.1611
   99OSM   H17S 9920   1.364   6.927   9.053 -0.9041 -2.1153 -0.2333
   99OSM   H17T 9921   1.322   7.067   8.954 -2.8738  0.9254 -0.4866
   99OSM   C18S 9922   1.170   6.938   8.958  0.4140  0.1115  0.4068
   99OSM   H18S 9923   1.091   7.013   8.937 -0.1133 -0.5304  0.0603
   99OSM   H18T 9924   1.129   6.853   9.018  0.2466  0.1351  0.3275
   99OSM   H18U 9925   1.200   6.883   8.866  2.6993  0.7594  0.6998
   99OSM    C1F 9926   0.105   6.527  10.174  0.7864 -0.2560 -0.5303
   99OSM     OF 9927   0.028   6.519  10.270  0.0432  0.0078  0.2870
   99OSM    C2F 9928   0.063   6.561  10.039  0.5659 -0.9721 -0.6774
   99OSM    H2F 9929   0.086   6.474   9.973 -2.6537 -0.8972 -2.1062
   99OSM    H2G 9930   0.112   6.657  10.011  0.6098 -0.3763  1.3133
   99OSM    C3F 9931  -0.092   6.577  10.026 -0.7368 -0.6014 -0.4049
   99OSM    H3F 9932  -0.138   6.484  10.065  1.2502 -1.9955 -1.2195
   99OSM    H3G 9933  -0.126   6.657  10.094 -1.6699 -1.6326  0.3841
   99OSM    C4F 9934  -0.149   6.588   9.888 -0.8186  0.1732 -0.1629
   99OSM    H4F 9935  -0.107   6.682   9.845  1.4802  0.1852  1.8774
   99OSM    H4G 9936  -0.259   6.600   9.889 -0.8579 -0.0450  1.9225
   99OSM    C5F 9937  -0.115   6.467   9.797 -0.1939  0.0808 -0.1985
   99OSM    H5F 9938  -0.156   6.371   9.836 -0.5115 -0.2090 -1.2085
   99OSM    H5G 9939  -0.008   6.436   9.798 -0.5271 -1.1328  0.3400
   99OSM    C6F 9940  -0.176   6.476   9.659  0.0417  0.0825  0.0797
   99OSM    H6F 9941  -0.113   6.542   9.595  0.3698 -0.5151 -0.2233
   99OSM    H6G 9942  -0.267   6.538   9.673  0.7821  0.6330  2.8989
   99OSM    C7F 9943  -0.228   6.342   9.590 -0.3645  0.7941  0.7105
   99OSM    H7F 9944  -0.285   6.379   9.502 -2.0339  2.0828  2.2627
   99OSM    H7G 9945  -0.303   6.293   9.655 -0.9462 -1.8614 -1.7631
   99OSM    C8F 9946  -0.111   6.251   9.545  0.3429 -0.4388  0.1437
   99OSM    H8F 9947  -0.047   6.217   9.629  0.5788 -2.0348 -0.6262
   99OSM    H8G 9948  -0.044   6.322   9.492 -0.3739  0.9521  1.0426
   99OSM    C9F 9949  -0.153   6.140   9.450 -0.7815  0.0085 -0.1908
   99OSM    H9F 9950  -0.155   6.038   9.494  2.5495 -0.1126 -0.0699
   99OSM   C10F 9951  -0.192   6.149   9.317  0.7988 -0.6286 -0.0166
   99OSM   H10F 9952  -0.219   6.056   9.266 -2.3409  0.4364 -0.4973
   99OSM   C11F 9953  -0.209   6.274   9.233  0.3682 -0.4823 -0.0406
   99OSM   H11F 9954  -0.119   6.282   9.168 -0.0695  2.0675 -0.4244
   99OSM   H11G 9955  -0.218   6.365   9.297 -0.7742 -1.3604  1.1037
   99OSM   C12F 9956  -0.329   6.263   9.145 -0.1655  0.5722 -0.3001
   99OSM   H12F 9957  -0.348   6.158   9.115  1.3409  0.8239 -2.3423
   99OSM   H12G 9958  -0.290   6.298   9.048 -1.6227  0.2269 -1.0378
   99OSM   C13F 9959  -0.459   6.343   9.169  0.0220 -0.8346 -0.0855
   99OSM   H13F 9960  -0.431   6.443   9.207  2.1595 -2.1167  1.9990
   99OSM   H13G 9961  -0.516   6.293   9.250 -1.4457 -1.6918 -1.5788
   99OSM   C14F 9962  -0.547   6.351   9.052 -0.0642 -0.4152 -0.0135
   99OSM   H14F 9963  -0.637   6.414   9.067  0.0920 -0.2428  0.1969
   99OSM   H14G 9964  -0.594   6.252   9.031 -0.5773 -0.4512  1.2470
   99OSM   C15F 9965  -0.478   6.416   8.923  0.3624  0.5914 -0.7536
   99OSM   H15F 9966  -0.430   6.343   8.855 -1.2638 -1.6809  0.3854
   99OSM   H15G 9967  -0.409   6.490   8.969  0.6612 -0.5039  0.6365
   99OSM   C16F 9968  -0.569   6.501   8.835  0.0323 -0.9288  0.2337
   99OSM   H16F 9969  -0.635   6.556   8.907 -0.0849 -1.7118  0.7352
   99OSM   H16G 9970  -0.632   6.439   8.768 -1.3503 -1.4597  1.9397
   99OSM   C17F 9971  -0.483   6.588   8.748  0.0354 -0.0961  0.6852
   99OSM   H17F 9972  -0.556   6.633   8.678  2.2870  2.5137 -0.1623
   99OSM   H17G 9973  -0.414   6.532   8.681 -1.2091  0.2565 -0.9734
   99OSM   C18F 9974  -0.421   6.707   8.822 -0.4827  0.2779  0.6613
   99OSM   H18F 9975  -0.355   6.762   8.752 -2.1161  1.3701 -0.0848
   99OSM   H18G 9976  -0.363   6.674   8.911  1.7017 -0.3808 -0.9074
   99OSM   H18H 9977  -0.492   6.782   8.860  1.0814  1.8891  0.5337
  100OSM      N 9978   2.316   4.834  10.901  0.0474  0.2343 -0.1384
  100OSM    C15 9979   2.269   4.969  10.953 -0.3762  0.5060 -0.5561
  100OSM   H15A 9980   2.170   4.976  10.912  0.0167 -1.5717 -1.9734
  100OSM   H15B 9981   2.323   5.057  10.921  2.3240 -0.6624  0.4527
  100OSM   H15C 9982   2.249   4.965  11.059 -0.4104 -2.5343 -0.5846
  100OSM    C14 9983   2.460   4.834  10.948  0.3047  1.0030 -0.6808
  100OSM   H14A 9984   2.514   4.924  10.920  0.4706  1.3676  0.7348
  100OSM   H14B 9985   2.525   4.758  10.908  0.6313  1.1134 -0.3624
  100OSM   H14C 9986   2.464   4.827  11.055 -0.6280  0.6225 -0.6698
  100OSM    C13 9987   2.245   4.719  10.966  0.6050 -0.6849 -0.5376
  100OSM   H13A 9988   2.302   4.628  10.957 -0.3741 -1.0971 -3.2589
  100OSM   H13B 9989   2.149   4.711  10.917  1.4044 -0.7334 -2.1362
  100OSM   H13C 9990   2.220   4.744  11.069 -0.2858  0.5043 -1.0222
  100OSM    C12 9991   2.327   4.833  10.752  0.3481  0.4066  0.1271
  100OSM   H12A 9992   2.360   4.737  10.717  0.0014  0.9460 -1.7546
  100OSM   H12B 9993   2.405   4.903  10.723  1.4114  0.6100  3.0894
  100OSM    C11 9994   2.202   4.863  10.666  0.2364  0.8339  0.0015
  100OSM   H11A 9995   2.228   4.877  10.559 -0.6985 -0.3130 -0.4071
  100OSM   H11B 9996   2.154   4.958  10.697  1.4353  1.2685  0.5665
  100OSM      P 9997   2.131   4.617  10.624  0.4152 -0.3676 -0.1118
  100OSM    O13 9998   2.235   4.548  10.700  0.8721  0.4745  0.0636
  100OSM    O14 9999   1.997   4.551  10.611 -0.3167 -0.7272  0.5497
  100OSM    O1110000   2.181   4.655  10.482 -0.0978 -0.2619  0.2053
  100OSM    O1210001   2.104   4.762  10.685 -0.0851  0.6562 -0.3045
  100OSM    C1S10002   2.174   4.559  10.374 -0.2535  0.1284  0.7192
  100OSM    H1S10003   2.074   4.512  10.364 -0.9711  1.7754 -0.3067
  100OSM    H1T10004   2.249   4.477  10.381 -2.2664 -1.8858 -0.0701
  100OSM     NF10005   2.147   4.538  10.126 -0.8041 -0.4699 -0.2148
  100OSM    HNF10006   2.225   4.511  10.071 -1.2433 -2.3998  0.0171
  100OSM    C2S10007   2.183   4.635  10.230  0.0765  0.4949 -0.1929
  100OSM    H2S10008   2.103   4.712  10.230 -1.4658 -1.0337  0.9880
  100OSM    C3S10009   2.316   4.706  10.214  0.0109 -0.0888 -0.8775
  100OSM    H3S10010   2.377   4.615  10.203  0.3236  0.1355 -1.0164
  100OSM     O310011   2.352   4.782  10.333 -0.2758  0.2381  0.2272
  100OSM    HO310012   2.280   4.757  10.391  0.0377  0.4506  0.7134
  100OSM    C4S10013   2.313   4.788  10.085 -0.2491  0.0744 -1.0593
  100OSM    H4S10014   2.365   4.738  10.002 -0.0617 -0.7684 -0.4494
  100OSM    C5S10015   2.280   4.919  10.080  0.0380  0.1755  0.4354
  100OSM    H5S10016   2.255   4.978  10.170  0.0337  1.8074 -0.5963
  100OSM    C6S10017   2.293   5.012   9.961  0.0742 -0.0355 -0.2875
  100OSM    H6S10018   2.383   5.074   9.981 -1.7720  2.0359  2.3390
  100OSM    H6T10019   2.209   5.084   9.954  0.4027  0.5346  1.1882
  100OSM    C7S10020   2.296   4.932   9.825 -0.0694 -0.2861  0.1903
  100OSM    H7S10021   2.199   4.880   9.811 -2.0452  2.9912  0.6710
  100OSM    H7T10022   2.381   4.862   9.811 -0.3579 -0.5517 -0.2678
  100OSM    C8S10023   2.314   5.025   9.700 -0.5931 -0.0776  0.9210
  100OSM    H8S10024   2.415   5.072   9.706 -0.6786  0.5222 -1.3040
  100OSM    H8T10025   2.232   5.100   9.702 -1.5576 -1.0634 -0.0782
  100OSM    C9S10026   2.314   4.956   9.561  0.1777 -0.0084  0.0995
  100OSM    H9S10027   2.215   4.907   9.546  1.3617 -1.7667 -2.8761
  100OSM    H9T10028   2.388   4.875   9.581 -1.0282 -0.8508  1.3942
  100OSM   C10S10029   2.352   5.042   9.444 -0.8807  0.1728 -0.3811
  100OSM   H10S10030   2.447   5.097   9.463 -0.8525  0.8308 -2.2815
  100OSM   H10T10031   2.275   5.121   9.431 -0.4709  0.3191 -2.1838
  100OSM   C11S10032   2.362   4.968   9.310 -0.0236  0.5413 -0.3291
  100OSM   H11S10033   2.267   4.917   9.283  2.5324 -3.7467 -2.4400
  100OSM   H11T10034   2.432   4.884   9.330 -1.0601 -0.2839 -0.0953
  100OSM   C12S10035   2.405   5.058   9.197 -0.3323 -0.4119  0.8032
  100OSM   H12S10036   2.509   5.034   9.165  0.0369 -0.3561  1.9197
  100OSM   H12T10037   2.399   5.165   9.227  2.0196 -0.0473  0.2217
  100OSM   C13S10038   2.327   5.048   9.059  0.6737  0.1354  0.4988
  100OSM   H13S10039   2.365   5.123   8.986  0.6505  0.1905  0.5437
  100OSM   H13T10040   2.220   5.064   9.084  0.3185  0.1052 -0.9403
  100OSM   C14S10041   2.344   4.914   9.000  0.1970  0.3208  0.1443
  100OSM   H14S10042   2.272   4.850   9.056  1.0515 -0.6167  0.1911
  100OSM   H14T10043   2.447   4.876   9.014  0.1830  0.3345  0.2824
  100OSM   C15S10044   2.299   4.912   8.853  0.1355  1.1597 -0.5881
  100OSM   H15S10045   2.378   4.974   8.806  1.9494  1.3806  2.4456
  100OSM   H15T10046   2.196   4.954   8.843 -0.8205 -1.2776 -1.8556
  100OSM   C16S10047   2.300   4.773   8.790 -0.1723  0.0438  0.5761
  100OSM   H16S10048   2.247   4.702   8.856 -0.8131 -0.9282 -0.9332
  100OSM   H16T10049   2.394   4.719   8.765 -0.6064 -0.8707  0.8981
  100OSM   C17S10050   2.221   4.779   8.662  0.9731  0.4066  0.4672
  100OSM   H17S10051   2.262   4.861   8.599 -1.4009  1.0906 -0.2839
  100OSM   H17T10052   2.114   4.802   8.682  1.5990  2.2652  2.0913
  100OSM   C18S10053   2.219   4.646   8.574 -0.2664 -0.2751 -0.1051
  100OSM   H18S10054   2.319   4.626   8.531  0.1899  1.2266  0.2118
  100OSM   H18T10055   2.152   4.661   8.486 -0.6109  0.1638  0.2242
  100OSM   H18U10056   2.177   4.562   8.633 -0.3176 -0.7795 -0.8473
  100OSM    C1F10057   2.018   4.503  10.105 -0.1049  0.5299 -0.8338
  100OSM     OF10058   1.934   4.589  10.132  0.0320  0.8999  0.2181
  100OSM    C2F10059   1.984   4.354  10.060  0.4123 -0.2876  0.4838
  100OSM    H2F10060   1.901   4.325  10.127 -1.4649  1.1821 -1.1068
  100OSM    H2G10061   2.072   4.287  10.073  0.2054 -0.3618  1.5867
  100OSM    C3F10062   1.915   4.351   9.922  0.1334  0.1887 -0.2213
  100OSM    H3F10063   1.985   4.378   9.840  1.4792 -0.6867  0.5937
  100OSM    H3G10064   1.842   4.435   9.923 -0.5314 -0.3723 -0.5915
  100OSM    C4F10065   1.859   4.211   9.897  0.4812  0.4953  0.8045
  100OSM    H4F10066   1.791   4.182   9.980  0.1283 -0.2492  0.2585
  100OSM    H4G10067   1.945   4.143   9.882  2.3298  2.4641  1.9633
  100OSM    C5F10068   1.767   4.217   9.768  0.5050  0.6882 -0.1314
  100OSM    H5F10069   1.681   4.288   9.778  0.0254  0.7351 -3.5798
  100OSM    H5G10070   1.720   4.117   9.756 -0.7848  1.4270 -1.7566
  100OSM    C6F10071   1.850   4.235   9.637  0.2397  0.4642 -0.4730
  100OSM    H6F10072   1.927   4.155   9.647  1.6798  1.9251  0.5810
  100OSM    H6G10073   1.905   4.331   9.641 -1.9095  1.8605 -2.1509
  100OSM    C7F10074   1.763   4.213   9.515  0.0069  0.3327 -1.1110
  100OSM    H7F10075   1.739   4.311   9.469 -1.6615  0.2030 -0.5872
  100OSM    H7G10076   1.669   4.160   9.540  0.7323 -0.5876 -0.2120
  100OSM    C8F10077   1.835   4.133   9.407 -0.0807 -0.7351  0.3370
  100OSM    H8F10078   1.767   4.139   9.319  0.5362  2.6985 -0.0594
  100OSM    H8G10079   1.839   4.027   9.439 -2.3548 -0.3507  2.1344
  100OSM    C9F10080   1.974   4.187   9.373  0.8110 -0.1582 -0.0464
  100OSM    H9F10081   2.041   4.202   9.458  0.7120  3.0733 -0.3983
  100OSM   C10F10082   2.010   4.220   9.250 -0.2610  0.4599 -0.1217
  100OSM   H10F10083   2.106   4.267   9.227 -1.2975  2.0543 -1.4515
  100OSM   C11F10084   1.928   4.218   9.126 -0.0620 -0.4221 -0.1475
  100OSM   H11F10085   1.837   4.282   9.132  0.3551  0.2388 -0.7359
  100OSM   H11G10086   1.890   4.114   9.122  1.2330 -1.0501  1.9056
  100OSM   C12F10087   1.999   4.259   8.997 -0.1178 -0.7428 -0.0106
  100OSM   H12F10088   2.065   4.346   9.018 -0.5719 -0.4326  0.1320
  100OSM   H12G10089   1.930   4.292   8.918  0.4407  0.4595 -0.0136
  100OSM   C13F10090   2.085   4.142   8.946 -0.0825 -0.1047  0.6274
  100OSM   H13F10091   2.011   4.063   8.924  0.0291 -0.2713  0.8530
  100OSM   H13G10092   2.156   4.113   9.027  0.3971  0.9823  0.6220
  100OSM   C14F10093   2.154   4.175   8.812 -0.7394  0.1807  0.6951
  100OSM   H14F10094   2.210   4.091   8.765 -3.1000  0.2413 -2.5309
  100OSM   H14G10095   2.222   4.262   8.826 -1.2905  0.6201  0.6485
  100OSM   C15F10096   2.059   4.214   8.703  0.0362 -0.1621  0.6015
  100OSM   H15F10097   2.019   4.315   8.725  1.0823  0.6732 -1.2059
  100OSM   H15G10098   1.970   4.148   8.697 -0.3293  0.1537  2.1097
  100OSM   C16F10099   2.129   4.220   8.571 -0.5335 -0.1726 -0.2286
  100OSM   H16F10100   2.146   4.114   8.545 -0.0925 -0.3760  0.8465
  100OSM   H16G10101   2.226   4.274   8.561  0.6145 -1.9055  1.0567
  100OSM   C17F10102   2.035   4.292   8.465  0.3328  0.0794  0.2197
  100OSM   H17F10103   1.999   4.382   8.520  0.0492 -1.0811  2.0270
  100OSM   H17G10104   1.947   4.225   8.458 -0.7909  1.6035 -0.8206
  100OSM   C18F10105   2.099   4.313   8.330  0.4198  0.1679  0.3238
  100OSM   H18F10106   2.017   4.341   8.260  1.3320 -2.3580 -1.8742
  100OSM   H18G10107   2.158   4.226   8.295 -1.2245 -1.1924  0.8051
  100OSM   H18H10108   2.166   4.401   8.337 -1.3451  1.7095 -1.0487
  101OSM      N10109   5.885   1.231  10.879  0.2582  0.1682 -0.0515
  101OSM    C1510110   5.826   1.362  10.924  0.0536  0.0129  0.1682
  101OSM   H15A10111   5.719   1.349  10.934  0.2154 -1.8764 -0.0014
  101OSM   H15B10112   5.859   1.442  10.859  0.2246 -1.7661 -2.0984
  101OSM   H15C10113   5.852   1.379  11.027 -2.3168 -2.1545  1.2629
  101OSM    C1410114   5.820   1.183  10.758  0.6968 -0.1767 -0.0363
  101OSM   H14A10115   5.713   1.179  10.773  0.4728  0.5556 -1.2841
  101OSM   H14B10116   5.861   1.089  10.723 -0.1616  0.0413 -1.7437
  101OSM   H14C10117   5.829   1.249  10.673 -1.5356  0.2426 -0.0051
  101OSM    C1310118   6.031   1.261  10.848  0.3309  0.8433  0.2882
  101OSM   H13A10119   6.069   1.173  10.799  1.7325  2.3212 -1.4408
  101OSM   H13B10120   6.085   1.281  10.939 -0.9266 -0.0568  1.2639
  101OSM   H13C10121   6.033   1.348  10.783 -2.0011 -1.0200 -2.5291
  101OSM    C1210122   5.875   1.126  10.991  0.4564 -0.2909  0.1077
  101OSM   H12A10123   5.784   1.149  11.046  2.4712  1.8675  2.8225
  101OSM   H12B10124   5.948   1.163  11.062  1.4319 -1.1925 -0.4089
  101OSM    C1110125   5.892   0.972  10.966  0.1050  0.4559 -0.9817
  101OSM   H11A10126   5.901   0.917  11.062 -2.3240  0.1804 -0.8396
  101OSM   H11B10127   5.991   0.966  10.917  0.2286  0.8838 -0.7916
  101OSM      P10128   5.660   0.864  10.954  0.1189  0.0546  0.2352
  101OSM    O1310129   5.676   0.726  11.016 -0.2455 -0.2430 -0.1116
  101OSM    O1410130   5.611   0.966  11.046  0.3474  0.7424  0.7583
  101OSM    O1110131   5.561   0.844  10.826 -0.2240  0.1079  0.0491
  101OSM    O1210132   5.795   0.903  10.882 -0.2606  0.9381 -0.7001
  101OSM    C1S10133   5.601   0.758  10.716 -0.1410 -0.2401 -0.7345
  101OSM    H1S10134   5.552   0.661  10.737 -1.1434  0.0106 -1.8506
  101OSM    H1T10135   5.711   0.742  10.715 -0.2995 -1.4222 -0.2802
  101OSM     NF10136   5.571   0.731  10.472  0.6172 -0.1959 -0.0390
  101OSM    HNF10137   5.658   0.757  10.430 -0.0752  2.7493  0.1257
  101OSM    C2S10138   5.548   0.817  10.580  0.0516 -0.0586  0.0859
  101OSM    H2S10139   5.438   0.831  10.591  0.1019  0.6147 -0.2069
  101OSM    C3S10140   5.603   0.963  10.550 -1.1254  0.2666 -0.1873
  101OSM    H3S10141   5.713   0.949  10.546 -1.2176 -0.5337 -0.1345
  101OSM     O310142   5.560   1.060  10.639 -0.2996  0.9907 -0.0602
  101OSM    HO310143   5.530   1.008  10.714 -0.3296 -0.3722 -0.9800
  101OSM    C4S10144   5.564   0.998  10.409  0.3399  0.0854 -0.3429
  101OSM    H4S10145   5.459   1.025  10.392 -0.9163 -2.9061  1.7884
  101OSM    C5S10146   5.646   1.005  10.301 -0.2807  0.0389 -0.1778
  101OSM    H5S10147   5.750   0.970  10.309  0.4067  1.8956 -0.4574
  101OSM    C6S10148   5.622   1.050  10.160 -0.0740  0.0634 -0.0622
  101OSM    H6S10149   5.703   1.119  10.128 -0.9537  0.2986 -1.9265
  101OSM    H6T10150   5.522   1.094  10.140  0.6289  2.1868  0.7960
  101OSM    C7S10151   5.619   0.925  10.069  0.1065  0.1527 -0.7917
  101OSM    H7S10152   5.546   0.851  10.110  0.6373 -0.4858 -0.9693
  101OSM    H7T10153   5.719   0.879  10.085  1.9026  3.4906 -1.6751
  101OSM    C8S10154   5.578   0.964   9.925 -0.4685  0.2487  0.3737
  101OSM    H8S10155   5.641   1.047   9.887 -1.3496  1.1045  0.7528
  101OSM    H8T10156   5.475   1.004   9.920 -0.1012  1.2430  0.4697
  101OSM    C9S10157   5.598   0.839   9.843 -0.1926  0.3684 -0.2931
  101OSM    H9S10158   5.553   0.753   9.897  0.3769  1.8330  2.7011
  101OSM    H9T10159   5.707   0.825   9.830 -0.1827  0.6647 -0.5625
  101OSM   C10S10160   5.537   0.861   9.705  0.1366  0.3903  0.3121
  101OSM   H10S10161   5.605   0.912   9.634  1.6638 -0.2969  1.2230
  101OSM   H10T10162   5.442   0.919   9.707  1.3159  2.4869 -1.0259
  101OSM   C11S10163   5.504   0.721   9.648  0.5210  0.9015  0.3311
  101OSM   H11S10164   5.437   0.673   9.723 -1.3096  2.2483 -0.3401
  101OSM   H11T10165   5.597   0.662   9.652  0.2128  0.2536 -1.2595
  101OSM   C12S10166   5.443   0.731   9.508 -0.4008  0.8376  0.1903
  101OSM   H12S10167   5.403   0.834   9.493  2.0823  1.6426 -1.5358
  101OSM   H12T10168   5.357   0.661   9.498  2.6293 -2.7879 -4.3129
  101OSM   C13S10169   5.549   0.712   9.393 -0.4612  0.8041  0.9041
  101OSM   H13S10170   5.594   0.610   9.396  0.4086  1.1691  0.7291
  101OSM   H13T10171   5.631   0.786   9.403 -1.0897  1.3264  2.3491
  101OSM   C14S10172   5.472   0.718   9.256  0.2518 -0.5950 -0.1664
  101OSM   H14S10173   5.427   0.819   9.240  1.7835  0.4417  1.7772
  101OSM   H14T10174   5.388   0.645   9.256  0.5915 -0.9980 -0.6304
  101OSM   C15S10175   5.561   0.693   9.138 -0.7224  0.2123 -0.3653
  101OSM   H15S10176   5.591   0.588   9.123 -0.7030  0.2583 -0.6688
  101OSM   H15T10177   5.657   0.748   9.149 -0.5743  0.2975 -1.8237
  101OSM   C16S10178   5.500   0.738   9.013  0.0840  0.0206 -0.4348
  101OSM   H16S10179   5.461   0.842   9.018  0.6081  0.1894  0.1826
  101OSM   H16T10180   5.417   0.666   8.992  2.1133 -2.7349  0.4355
  101OSM   C17S10181   5.588   0.739   8.892  0.3380  0.0626  0.3433
  101OSM   H17S10182   5.635   0.639   8.890 -1.2954 -0.7693  1.4208
  101OSM   H17T10183   5.665   0.817   8.912  1.0839 -0.4770 -0.3638
  101OSM   C18S10184   5.520   0.781   8.760 -0.1454  0.3787 -0.6800
  101OSM   H18S10185   5.595   0.769   8.678 -1.2914 -2.7413 -1.4142
  101OSM   H18T10186   5.502   0.891   8.760 -2.2248  0.0842 -0.8957
  101OSM   H18U10187   5.431   0.718   8.739 -0.3639  0.4676 -0.0481
  101OSM    C1F10188   5.526   0.610  10.452  0.3396  0.7077 -0.1010
  101OSM     OF10189   5.439   0.562  10.529  0.3440 -0.8119  0.2711
  101OSM    C2F10190   5.596   0.534  10.343 -0.1116  0.0612  0.0430
  101OSM    H2F10191   5.635   0.436  10.378 -1.1467 -0.2381  0.3915
  101OSM    H2G10192   5.685   0.590  10.309 -0.9454 -0.2997 -3.0375
  101OSM    C3F10193   5.504   0.514  10.220  0.6820  0.7647  0.0503
  101OSM    H3F10194   5.431   0.597  10.211 -0.1225 -0.0918 -1.8495
  101OSM    H3G10195   5.446   0.421  10.236 -0.2269  1.0232 -1.5575
  101OSM    C4F10196   5.567   0.508  10.078 -0.0902 -0.3002  0.1221
  101OSM    H4F10197   5.618   0.606  10.065 -0.7998 -0.0265 -0.7323
  101OSM    H4G10198   5.508   0.492   9.985  0.7006 -0.1950 -0.4048
  101OSM    C5F10199   5.661   0.393  10.066  0.5994 -0.3120 -0.5768
  101OSM    H5F10200   5.597   0.302  10.064 -0.2767  0.2874 -0.4317
  101OSM    H5G10201   5.724   0.402  10.157 -1.0706  0.9690  0.5201
  101OSM    C6F10202   5.745   0.409   9.936  0.5095  0.2611  0.4193
  101OSM    H6F10203   5.798   0.316   9.905 -0.8401 -1.3213  2.5501
  101OSM    H6G10204   5.677   0.434   9.852  0.6437  2.2571  0.8654
  101OSM    C7F10205   5.856   0.513   9.950 -0.5148 -0.3075  0.3317
  101OSM    H7F10206   5.921   0.477  10.033  1.7356  0.6970 -0.9189
  101OSM    H7G10207   5.815   0.613   9.976  0.8008  0.6814 -1.1717
  101OSM    C8F10208   5.944   0.533   9.824  0.0374 -0.1770  0.1204
  101OSM    H8F10209   5.977   0.430   9.797  1.3125  0.2712 -0.1169
  101OSM    H8G10210   6.033   0.584   9.866  0.0084  0.5308 -0.6507
  101OSM    C9F10211   5.872   0.604   9.718 -0.6187 -0.0133 -0.0032
  101OSM    H9F10212   5.829   0.705   9.726 -2.9233 -0.7250 -2.1213
  101OSM   C10F10213   5.851   0.562   9.583  0.1256 -0.3956 -0.7782
  101OSM   H10F10214   5.811   0.636   9.513 -2.4761  0.3703  1.3250
  101OSM   C11F10215   5.896   0.433   9.521 -0.3087  0.8491  0.1588
  101OSM   H11F10216   5.850   0.341   9.561  0.9774 -0.4160 -1.1603
  101OSM   H11G10217   6.007   0.421   9.528 -0.1638  0.7445 -1.8334
  101OSM   C12F10218   5.858   0.422   9.369  0.3978 -0.2564 -0.2407
  101OSM   H12F10219   5.928   0.488   9.313 -0.1817 -0.3949 -1.1478
  101OSM   H12G10220   5.754   0.456   9.354  1.3845  2.1300 -2.3042
  101OSM   C13F10221   5.868   0.283   9.309 -0.6347 -0.0501  1.0105
  101OSM   H13F10222   5.843   0.293   9.201 -0.9353 -0.8967  0.9896
  101OSM   H13G10223   5.794   0.212   9.352 -0.2980 -2.8997 -2.6257
  101OSM   C14F10224   6.008   0.222   9.322  0.2040 -0.2898 -0.3220
  101OSM   H14F10225   6.019   0.187   9.427  0.0953  0.9826  0.1357
  101OSM   H14G10226   6.094   0.293   9.318  0.2852 -0.3114  0.7427
  101OSM   C15F10227   6.036   0.106   9.230 -0.4312  0.0436 -0.4844
  101OSM   H15F10228   6.133   0.060   9.262  0.5318  1.3542 -1.4155
  101OSM   H15G10229   6.062   0.159   9.136 -2.9700  3.7206  0.6634
  101OSM   C16F10230   5.940  -0.009   9.202 -0.0466 -0.2032  0.8766
  101OSM   H16F10231   5.870   0.011   9.118  1.7031  0.4700 -0.4618
  101OSM   H16G10232   5.872  -0.036   9.286 -1.3841  0.2011 -0.0501
  101OSM   C17F10233   6.016  -0.141   9.164  0.0372  0.1631  0.3288
  101OSM   H17F10234   6.093  -0.121   9.087  1.3386 -3.1773  0.5678
  101OSM   H17G10235   5.942  -0.214   9.126  2.9099 -2.4250 -0.7000
  101OSM   C18F10236   6.083  -0.202   9.278 -0.3324 -0.4107 -0.3541
  101OSM   H18F10237   6.023  -0.279   9.331 -0.4863  0.8967  1.4467
  101OSM   H18G10238   6.128  -0.138   9.357  3.1642 -1.9021 -0.9256
  101OSM   H18H10239   6.168  -0.261   9.237  0.2670  0.2591 -0.0911
  102OSM      N10240   6.578   2.578  10.908 -0.5336  0.5561 -0.8406
  102OSM    C1510241   6.667   2.680  10.972  0.0314  0.1653  0.4759
  102OSM   H15A10242   6.647   2.777  10.927  1.7217  0.1756 -0.3120
  102OSM   H15B10243   6.770   2.659  10.949  0.1358  1.3668 -0.2864
  102OSM   H15C10244   6.642   2.692  11.076  0.4029 -0.1856  0.6025
  102OSM    C1410245   6.613   2.443  10.952 -0.3795  0.4448 -0.3002
  102OSM   H14A10246   6.708   2.402  10.921  0.0354 -0.1059  1.5600
  102OSM   H14B10247   6.558   2.370  10.894  0.8144  0.1157 -1.0316
  102OSM   H14C10248   6.598   2.423  11.057  0.2191  1.4026 -0.0258
  102OSM    C1310249   6.447   2.616  10.966  0.2326 -0.0562 -0.1039
  102OSM   H13A10250   6.418   2.718  10.947  0.7437 -0.1133 -1.2477
  102OSM   H13B10251   6.456   2.603  11.073  3.3887  0.3575 -0.2034
  102OSM   H13C10252   6.370   2.552  10.926  1.3801 -1.1775 -0.6055
  102OSM    C1210253   6.583   2.599  10.757 -0.8774 -0.0398 -0.6792
  102OSM   H12A10254   6.681   2.582  10.714 -1.1610 -0.6980 -1.0762
  102OSM   H12B10255   6.569   2.705  10.738  0.1017  0.5138  1.3816
  102OSM    C1110256   6.491   2.510  10.669  0.3888  0.1716  0.1460
  102OSM   H11A10257   6.530   2.406  10.675 -2.6290 -1.0076  1.2753
  102OSM   H11B10258   6.492   2.545  10.563 -0.5277  0.1013  0.1037
  102OSM      P10259   6.279   2.383  10.735  0.2891 -0.1893  0.1019
  102OSM    O1310260   6.363   2.291  10.809 -0.0432  0.4645  0.1683
  102OSM    O1410261   6.151   2.427  10.794  0.2056  0.3345 -1.0362
  102OSM    O1110262   6.259   2.340  10.590 -0.0242  0.3524  0.3346
  102OSM    O1210263   6.352   2.522  10.717 -0.5989 -0.2441 -0.5607
  102OSM    C1S10264   6.241   2.206  10.541 -0.2046 -0.4644 -0.1559
  102OSM    H1S10265   6.144   2.173  10.584 -0.8271  2.0510  0.5822
  102OSM    H1T10266   6.315   2.131  10.574  2.1387  1.7312 -0.1317
  102OSM     NF10267   6.156   2.081  10.347 -0.4069  0.8488 -0.0640
  102OSM    HNF10268   6.214   2.001  10.335  0.3837  1.4840 -0.5915
  102OSM    C2S10269   6.226   2.200  10.388 -0.7807 -0.2098  0.4187
  102OSM    H2S10270   6.172   2.293  10.360  0.0394  0.6051  1.4633
  102OSM    C3S10271   6.373   2.204  10.328 -0.3666 -0.5814 -0.0858
  102OSM    H3S10272   6.422   2.111  10.366  0.3775 -1.2177 -2.4603
  102OSM     O310273   6.444   2.321  10.367 -0.1302  0.2219  0.2858
  102OSM    HO310274   6.385   2.371  10.425  2.6600  3.1649  0.8851
  102OSM    C4S10275   6.367   2.200  10.180  0.1407 -0.1157  0.5091
  102OSM    H4S10276   6.323   2.293  10.142 -1.0325 -1.6529 -2.1540
  102OSM    C5S10277   6.422   2.106  10.098  0.0578  0.4096  0.4053
  102OSM    H5S10278   6.466   2.014  10.140  1.1256 -0.0701 -1.6176
  102OSM    C6S10279   6.437   2.108   9.951  0.5596 -0.7392  0.5083
  102OSM    H6S10280   6.438   2.001   9.922 -1.5064 -0.7410  0.3334
  102OSM    H6T10281   6.535   2.151   9.920  2.1951 -2.1793  3.3556
  102OSM    C7S10282   6.323   2.179   9.876 -0.6266  0.2054 -0.1150
  102OSM    H7S10283   6.333   2.287   9.900  1.2916 -0.3396  1.7906
  102OSM    H7T10284   6.229   2.135   9.917  0.0009 -0.2733  0.8610
  102OSM    C8S10285   6.340   2.152   9.726 -0.5253  0.0529 -0.2043
  102OSM    H8S10286   6.339   2.044   9.701 -2.1606 -0.3371  1.3108
  102OSM    H8T10287   6.430   2.207   9.691 -1.6855  2.1322 -0.1161
  102OSM    C9S10288   6.223   2.220   9.645  0.0413  0.4809 -0.5767
  102OSM    H9S10289   6.209   2.322   9.687 -1.8475 -0.3719  0.9850
  102OSM    H9T10290   6.140   2.151   9.670  0.2740  0.6953  0.9079
  102OSM   C10S10291   6.235   2.211   9.493 -0.7278 -0.6653  0.0501
  102OSM   H10S10292   6.259   2.107   9.462  1.1814 -0.5824  1.1174
  102OSM   H10T10293   6.317   2.269   9.446 -1.3088  1.6360  1.7276
  102OSM   C11S10294   6.112   2.263   9.414 -0.2940  0.2938  0.5144
  102OSM   H11S10295   6.087   2.369   9.435 -2.9601  0.2975 -2.0363
  102OSM   H11T10296   6.019   2.207   9.439  0.3499 -0.0726  2.1892
  102OSM   C12S10297   6.139   2.258   9.258  1.1107 -0.4306 -0.2305
  102OSM   H12S10298   6.209   2.172   9.253 -0.6999 -1.9824  0.2684
  102OSM   H12T10299   6.204   2.343   9.227  0.3997  0.1086 -0.2492
  102OSM   C13S10300   6.012   2.253   9.172  0.3375 -0.2004  0.4315
  102OSM   H13S10301   5.975   2.357   9.159 -0.9000 -0.5608  0.9647
  102OSM   H13T10302   5.929   2.196   9.218 -0.7157  1.1097  0.2174
  102OSM   C14S10303   6.036   2.183   9.032  0.1310 -0.1250 -0.3924
  102OSM   H14S10304   5.937   2.162   8.986 -0.0693 -0.6132  0.2432
  102OSM   H14T10305   6.086   2.087   9.060  3.0686  0.6522 -2.3749
  102OSM   C15S10306   6.120   2.271   8.943 -0.3131  0.3558 -0.0393
  102OSM   H15S10307   6.227   2.239   8.945  0.1908  1.4291 -3.3822
  102OSM   H15T10308   6.112   2.376   8.978  1.2429  0.1034  1.2257
  102OSM   C16S10309   6.078   2.283   8.794  0.4441  0.4572 -0.4606
  102OSM   H16S10310   6.117   2.380   8.758  3.0963  1.5482  4.4312
  102OSM   H16T10311   5.969   2.297   8.779  0.7245  0.3467 -2.9922
  102OSM   C17S10312   6.137   2.186   8.692  0.6739  0.5033 -0.4600
  102OSM   H17S10313   6.099   2.082   8.704  1.9683 -0.0871 -1.2846
  102OSM   H17T10314   6.247   2.179   8.706  0.4713 -1.1938  0.6441
  102OSM   C18S10315   6.109   2.235   8.551 -0.6616  0.5229 -0.0029
  102OSM   H18S10316   6.164   2.326   8.518 -0.7493  0.3941 -0.5142
  102OSM   H18T10317   6.002   2.264   8.546 -0.0684  2.6533 -2.0224
  102OSM   H18U10318   6.127   2.159   8.472 -0.0708  1.0602 -0.3962
  102OSM    C1F10319   6.026   2.071  10.370 -0.2746 -0.3254  0.0222
  102OSM     OF10320   5.956   2.167  10.389 -0.4760  0.4308  0.3536
  102OSM    C2F10321   5.967   1.933  10.370  0.2448  0.4886  0.0243
  102OSM    H2F10322   5.917   1.918  10.468  2.5392 -1.0603  1.0627
  102OSM    H2G10323   6.043   1.852  10.372 -0.7475 -0.4957  3.2801
  102OSM    C3F10324   5.877   1.913  10.250  0.0276 -0.4065  0.0718
  102OSM    H3F10325   5.794   1.985  10.268 -1.4133 -1.6854 -1.1234
  102OSM    H3G10326   5.824   1.816  10.267 -2.2109  0.9510  1.2767
  102OSM    C4F10327   5.925   1.925  10.102 -0.3325 -0.4893  0.1375
  102OSM    H4F10328   5.974   2.022  10.082  0.2539 -1.0803 -1.4036
  102OSM    H4G10329   5.839   1.921  10.032  0.6041 -0.9917 -1.0158
  102OSM    C5F10330   6.019   1.818  10.058 -0.4096  0.2112  0.2270
  102OSM    H5F10331   5.964   1.722  10.069 -1.1994  0.6179 -0.1034
  102OSM    H5G10332   6.102   1.812  10.132  0.2528  0.8010 -0.4507
  102OSM    C6F10333   6.066   1.817   9.911 -0.2731  0.4322  0.6405
  102OSM    H6F10334   6.148   1.746   9.891 -0.5954 -0.2791  1.7258
  102OSM    H6G10335   6.107   1.915   9.880 -0.6885  0.4836  0.2434
  102OSM    C7F10336   5.956   1.779   9.811  0.3256 -0.3234 -0.0442
  102OSM    H7F10337   5.908   1.877   9.791  0.4665  0.1047  1.6244
  102OSM    H7G10338   5.877   1.712   9.851 -1.1070 -0.0086 -2.1806
  102OSM    C8F10339   6.004   1.714   9.684  0.4115 -0.0804  0.2126
  102OSM    H8F10340   5.916   1.689   9.621  0.6575 -0.5093  0.0366
  102OSM    H8G10341   6.067   1.625   9.705 -1.5707 -1.8925 -1.0526
  102OSM    C9F10342   6.083   1.817   9.612 -0.0437  0.4041  0.0947
  102OSM    H9F10343   6.146   1.878   9.679  0.3217 -0.3343  0.4349
  102OSM   C10F10344   6.094   1.818   9.480  0.1334  0.3556 -0.0740
  102OSM   H10F10345   6.145   1.902   9.431  0.7471  0.1224  0.1559
  102OSM   C11F10346   6.030   1.723   9.380 -0.1682 -0.2182 -0.7727
  102OSM   H11F10347   6.008   1.624   9.425 -1.0494  0.1864 -0.3004
  102OSM   H11G10348   6.106   1.712   9.300  1.0013 -0.7902  0.3835
  102OSM   C12F10349   5.900   1.784   9.330  0.4028  0.3822 -0.2047
  102OSM   H12F10350   5.902   1.893   9.309  0.1653  0.6277  0.9546
  102OSM   H12G10351   5.829   1.771   9.415  0.0960 -0.8201 -0.6294
  102OSM   C13F10352   5.849   1.702   9.202  0.5603 -0.1953 -0.8168
  102OSM   H13F10353   5.746   1.729   9.169  0.2288  1.1257  1.1431
  102OSM   H13G10354   5.833   1.597   9.236  1.1350 -0.4709 -1.3709
  102OSM   C14F10355   5.936   1.718   9.073  0.0526  1.1004 -1.3868
  102OSM   H14F10356   6.034   1.667   9.087 -0.4819  0.1636 -0.9279
  102OSM   H14G10357   5.963   1.823   9.052 -1.1647  1.3648 -1.6549
  102OSM   C15F10358   5.874   1.651   8.951  0.5379  0.5273  0.1068
  102OSM   H15F10359   5.787   1.717   8.930 -0.9096  0.5312  4.9607
  102OSM   H15G10360   5.836   1.548   8.964  0.6221  0.3462 -0.9575
  102OSM   C16F10361   5.970   1.645   8.834  0.3290 -0.0082  0.3308
  102OSM   H16F10362   6.066   1.593   8.855  0.1051 -0.0402  1.3043
  102OSM   H16G10363   6.001   1.749   8.810 -2.1137  0.6354 -0.4251
  102OSM   C17F10364   5.920   1.580   8.709  0.6248  0.3005 -0.2049
  102OSM   H17F10365   5.842   1.639   8.656  0.8868  0.3551 -0.5361
  102OSM   H17G10366   5.876   1.479   8.725 -0.8060  1.2384  2.3157
  102OSM   C18F10367   6.030   1.550   8.605 -0.3755 -0.2439  0.0478
  102OSM   H18F10368   5.993   1.539   8.500 -0.1697 -0.5448  0.0068
  102OSM   H18G10369   6.076   1.457   8.643 -0.2348  0.4465  1.6365
  102OSM   H18H10370   6.111   1.626   8.614 -0.4350 -0.1721 -0.0196
  103OSM      N10371   1.501   5.031  10.402  0.3443  0.2033  0.6677
  103OSM    C1510372   1.480   5.184  10.401  0.3141 -0.1000  0.8045
  103OSM   H15A10373   1.373   5.195  10.400  0.0568 -1.9063  2.6763
  103OSM   H15B10374   1.529   5.220  10.311  0.2127  0.1821  0.8619
  103OSM   H15C10375   1.526   5.221  10.491  1.3930  2.8889 -0.8269
  103OSM    C1410376   1.648   4.998  10.375 -0.0334 -0.6050  0.2326
  103OSM   H14A10377   1.675   5.029  10.275 -0.5497 -1.5622 -0.2158
  103OSM   H14B10378   1.664   4.893  10.394  1.1203 -0.4579  0.1533
  103OSM   H14C10379   1.723   5.043  10.438 -0.9538 -0.6509  1.4010
  103OSM    C1310380   1.466   4.992  10.542  0.1343  0.5493 -0.7415
  103OSM   H13A10381   1.453   4.884  10.546 -0.9049  0.6490 -1.0573
  103OSM   H13B10382   1.377   5.046  10.570 -0.4969 -1.9726  2.7429
  103OSM   H13C10383   1.535   5.009  10.623 -0.3374 -2.1388  0.3203
  103OSM    C1210384   1.402   4.975  10.302 -0.4820 -0.7637 -0.2019
  103OSM   H12A10385   1.416   5.025  10.208  0.1431  2.9959  1.6941
  103OSM   H12B10386   1.304   4.995  10.343  0.5243  1.4657  1.3498
  103OSM    C1110387   1.417   4.825  10.273 -0.0788 -0.3226  0.5834
  103OSM   H11A10388   1.524   4.799  10.258  0.2122  0.2628  1.5116
  103OSM   H11B10389   1.363   4.804  10.179  1.5168 -1.1234 -0.1907
  103OSM      P10390   1.216   4.725  10.415 -0.3989 -0.3855 -0.3804
  103OSM    O1310391   1.190   4.593  10.470 -0.4113  0.0315 -0.8694
  103OSM    O1410392   1.174   4.833  10.511 -0.1183  0.4380 -0.6172
  103OSM    O1110393   1.139   4.752  10.280 -0.7246 -0.1436 -0.0970
  103OSM    O1210394   1.372   4.751  10.387  0.1691  0.0129  0.0220
  103OSM    C1S10395   1.017   4.828  10.290  0.6938  0.4226  0.6021
  103OSM    H1S10396   1.031   4.926  10.340 -2.0227  0.9889  0.4154
  103OSM    H1T10397   0.942   4.769  10.347 -1.6957  0.5750 -2.1582
  103OSM     NF10398   0.869   4.967  10.150  0.2610 -0.1416 -0.3261
  103OSM    HNF10399   0.771   4.950  10.153  0.5762 -2.5115 -1.1549
  103OSM    C2S10400   0.968   4.866  10.150  0.0806  0.3343 -0.5092
  103OSM    H2S10401   1.055   4.890  10.085 -0.4994 -0.6060 -1.6777
  103OSM    C3S10402   0.907   4.739  10.079  0.1300  0.3171  0.0235
  103OSM    H3S10403   0.812   4.717  10.133  0.9497  1.9182  2.3113
  103OSM     O310404   0.977   4.625  10.099 -0.0035  0.4051 -0.1319
  103OSM    HO310405   1.033   4.656  10.171 -1.4876 -0.3673  1.4490
  103OSM    C4S10406   0.893   4.758   9.929  0.7267 -0.4731  0.2292
  103OSM    H4S10407   0.982   4.763   9.864 -0.2633  0.5965 -1.1001
  103OSM    C5S10408   0.776   4.772   9.867  0.4941 -0.9880  0.0764
  103OSM    H5S10409   0.686   4.772   9.930  0.0459 -0.4721 -0.5618
  103OSM    C6S10410   0.756   4.790   9.720 -0.0600  0.1384  0.1135
  103OSM    H6S10411   0.654   4.826   9.695 -1.0563 -1.7107  1.2438
  103OSM    H6T10412   0.771   4.690   9.673 -0.8574 -0.3525  0.8797
  103OSM    C7S10413   0.853   4.893   9.653  0.2810 -0.1770 -0.0055
  103OSM    H7S10414   0.961   4.869   9.655  0.0868 -1.1042 -0.3213
  103OSM    H7T10415   0.837   4.996   9.693 -2.1456 -0.0514 -1.1101
  103OSM    C8S10416   0.813   4.904   9.503  0.1450 -0.3465 -0.8369
  103OSM    H8S10417   0.878   4.984   9.460 -1.1760  1.0746 -0.2809
  103OSM    H8T10418   0.710   4.944   9.486 -0.0425 -1.5261 -2.7252
  103OSM    C9S10419   0.845   4.776   9.422 -0.2621 -0.7381  0.5482
  103OSM    H9S10420   0.801   4.679   9.455  0.1424 -1.6133 -1.3701
  103OSM    H9T10421   0.955   4.761   9.427  0.1079  1.0466 -1.1676
  103OSM   C10S10422   0.801   4.790   9.281  0.3070 -0.1096  0.7187
  103OSM   H10S10423   0.856   4.870   9.227  2.4791 -2.2772 -0.4210
  103OSM   H10T10424   0.690   4.802   9.277  0.1524 -0.7739  2.3235
  103OSM   C11S10425   0.855   4.668   9.199 -0.4913 -0.1084 -0.7616
  103OSM   H11S10426   0.836   4.577   9.260  2.4827 -1.2624 -1.3904
  103OSM   H11T10427   0.962   4.694   9.184 -1.0583  2.9780 -0.1992
  103OSM   C12S10428   0.793   4.641   9.064  0.0581 -1.0579 -0.3523
  103OSM   H12S10429   0.826   4.722   8.995 -1.1179 -0.1120  0.1754
  103OSM   H12T10430   0.682   4.641   9.069  0.0249  1.2480  0.0841
  103OSM   C13S10431   0.840   4.511   9.003  0.1140  0.0848  0.1569
  103OSM   H13S10432   0.828   4.427   9.074 -2.0726  0.9512  0.9040
  103OSM   H13T10433   0.951   4.523   9.000  0.1490 -0.3261 -0.5645
  103OSM   C14S10434   0.793   4.484   8.860  0.5885  0.1265 -0.1432
  103OSM   H14S10435   0.685   4.507   8.849  0.5627  0.1164  0.0737
  103OSM   H14T10436   0.808   4.377   8.836  1.0065  0.8132 -3.3524
  103OSM   C15S10437   0.858   4.568   8.753 -0.2377  0.6800  0.0527
  103OSM   H15S10438   0.965   4.540   8.741 -0.5502  0.1064 -1.5626
  103OSM   H15T10439   0.851   4.674   8.787 -1.4591  0.1270  1.6444
  103OSM   C16S10440   0.808   4.562   8.608  0.4133 -0.3950 -0.0054
  103OSM   H16S10441   0.711   4.616   8.619 -0.3218 -1.8032  0.7164
  103OSM   H16T10442   0.788   4.457   8.576  0.7675 -0.2893 -0.5957
  103OSM   C17S10443   0.907   4.638   8.522 -0.4464  0.1175  0.1679
  103OSM   H17S10444   1.011   4.601   8.535 -0.3298  0.9857  2.1633
  103OSM   H17T10445   0.895   4.740   8.564 -1.6652 -0.9645  2.7236
  103OSM   C18S10446   0.866   4.650   8.375 -0.2447  0.6012 -0.1339
  103OSM   H18S10447   0.918   4.740   8.334  0.0999  0.2980 -0.3633
  103OSM   H18T10448   0.757   4.667   8.359 -0.1010  1.4197 -0.2949
  103OSM   H18U10449   0.894   4.564   8.311 -1.1060 -0.4973  0.9224
  103OSM    C1F10450   0.905   5.094  10.158 -0.1756 -0.4602  0.5594
  103OSM     OF10451   1.021   5.127  10.161  0.2476 -0.2144  0.6805
  103OSM    C2F10452   0.796   5.199  10.174  0.1547 -0.7815  0.6651
  103OSM    H2F10453   0.794   5.260  10.266  2.0459 -0.7165  0.7071
  103OSM    H2G10454   0.696   5.158  10.151  0.2929 -0.1397 -1.3679
  103OSM    C3F10455   0.821   5.301  10.055  0.3842  0.0478  1.2183
  103OSM    H3F10456   0.922   5.345  10.070  0.7489 -0.6740  0.9337
  103OSM    H3G10457   0.752   5.388  10.066 -0.2968 -0.1993 -0.6722
  103OSM    C4F10458   0.831   5.243   9.912 -0.3627  0.7884  0.3920
  103OSM    H4F10459   0.734   5.191   9.894  0.5286 -0.8181  0.0687
  103OSM    H4G10460   0.912   5.167   9.899 -0.7285 -0.3995  3.9644
  103OSM    C5F10461   0.855   5.351   9.801  0.2576  0.0079 -0.0825
  103OSM    H5F10462   0.960   5.388   9.808 -0.4667  2.2499 -0.3656
  103OSM    H5G10463   0.793   5.440   9.824 -1.8864 -1.0170 -1.5589
  103OSM    C6F10464   0.819   5.298   9.663  0.2445  0.6172  0.4577
  103OSM    H6F10465   0.715   5.259   9.656  0.1252  0.8992  0.6945
  103OSM    H6G10466   0.872   5.201   9.650 -0.2193  0.2038  1.5204
  103OSM    C7F10467   0.831   5.403   9.548 -0.7564  0.4522  0.0718
  103OSM    H7F10468   0.931   5.395   9.501  0.1128  2.0949  1.5142
  103OSM    H7G10469   0.825   5.499   9.604 -2.3413  0.8563 -0.7311
  103OSM    C8F10470   0.726   5.401   9.440  0.4752  0.0992 -0.1779
  103OSM    H8F10471   0.761   5.476   9.365 -0.6905  0.4788 -0.3540
  103OSM    H8G10472   0.631   5.445   9.477  0.2261 -0.2324 -0.4129
  103OSM    C9F10473   0.701   5.255   9.384 -0.4735 -0.4480 -0.4473
  103OSM    H9F10474   0.634   5.199   9.451  0.7416 -2.1834 -0.6104
  103OSM   C10F10475   0.729   5.209   9.261  0.2559  0.3460  0.3024
  103OSM   H10F10476   0.701   5.104   9.241  0.4817 -0.2433  2.7425
  103OSM   C11F10477   0.792   5.285   9.147  0.0849  0.2044  0.8666
  103OSM   H11F10478   0.867   5.224   9.091 -0.6454 -1.2021  1.3612
  103OSM   H11G10479   0.849   5.373   9.183  0.9156 -0.6126  1.6100
  103OSM   C12F10480   0.680   5.322   9.047 -0.7283  0.2782 -0.7504
  103OSM   H12F10481   0.724   5.389   8.970 -0.2328 -1.2149 -1.8281
  103OSM   H12G10482   0.603   5.375   9.106  2.2344  3.3414  0.6866
  103OSM   C13F10483   0.620   5.207   8.970  0.5986 -0.5451 -0.9529
  103OSM   H13F10484   0.566   5.137   9.038  1.9674 -1.3194 -0.6266
  103OSM   H13G10485   0.711   5.149   8.944  0.6447 -2.0885  2.1782
  103OSM   C14F10486   0.542   5.245   8.845  0.6158  0.3234  0.0761
  103OSM   H14F10487   0.598   5.318   8.782 -1.0551  2.3785  0.8725
  103OSM   H14G10488   0.459   5.306   8.884 -0.9674 -1.3141 -0.5897
  103OSM   C15F10489   0.489   5.122   8.761 -1.0336  0.1295 -0.5121
  103OSM   H15F10490   0.436   5.154   8.669 -0.4839 -1.1454 -1.2797
  103OSM   H15G10491   0.424   5.059   8.826  0.0128 -0.3849  0.0532
  103OSM   C16F10492   0.603   5.031   8.711  0.6295  0.9773  0.8006
  103OSM   H16F10493   0.562   4.938   8.667 -0.9975  1.2692  1.6412
  103OSM   H16G10494   0.681   5.005   8.786  2.3881  1.7864 -0.6460
  103OSM   C17F10495   0.677   5.097   8.590  0.2528  0.3859 -0.5250
  103OSM   H17F10496   0.714   5.189   8.640 -0.7323  0.2626  0.4927
  103OSM   H17G10497   0.612   5.120   8.503 -1.0782 -2.4082 -0.3708
  103OSM   C18F10498   0.794   5.002   8.551 -0.4059 -0.3218  0.5238
  103OSM   H18F10499   0.849   4.955   8.635  0.0208 -1.0096 -0.1305
  103OSM   H18G10500   0.868   5.055   8.487 -1.9786  1.2806 -0.0591
  103OSM   H18H10501   0.752   4.928   8.479 -0.3019  1.1038 -1.0919
  104OSM      N10502   2.397   0.439  11.247  0.5389  0.3766 -0.4157
  104OSM    C1510503   2.383   0.559  11.330  0.8359 -0.0578 -0.7235
  104OSM   H15A10504   2.421   0.548  11.430  1.6321  1.1874 -0.8565
  104OSM   H15B10505   2.280   0.593  11.326  0.9303  0.1818 -1.2811
  104OSM   H15C10506   2.430   0.639  11.275 -1.0699  2.0158  0.4820
  104OSM    C1410507   2.539   0.386  11.248  0.2527 -0.4004 -0.7277
  104OSM   H14A10508   2.612   0.464  11.232  2.0213 -1.8216 -0.0424
  104OSM   H14B10509   2.546   0.312  11.170 -0.3517 -1.4105  0.1477
  104OSM   H14C10510   2.568   0.339  11.341 -2.5830  1.3990  1.2212
  104OSM    C1310511   2.298   0.336  11.290  0.1600  0.0538  0.1537
  104OSM   H13A10512   2.300   0.251  11.223 -1.3290 -0.0789  0.2429
  104OSM   H13B10513   2.201   0.382  11.293  0.4618  0.7127  0.0293
  104OSM   H13C10514   2.307   0.296  11.390 -1.1814 -2.8115 -0.7500
  104OSM    C1210515   2.358   0.476  11.098 -0.3374  0.4117 -0.2730
  104OSM   H12A10516   2.269   0.537  11.099 -0.3627  0.3933 -1.0906
  104OSM   H12B10517   2.322   0.389  11.046  0.2657  0.2121 -0.3606
  104OSM    C1110518   2.451   0.564  11.004  0.6743  0.2404  0.1854
  104OSM   H11A10519   2.396   0.570  10.908  0.9683 -2.8952 -0.2880
  104OSM   H11B10520   2.544   0.504  10.999  0.9438  0.6750 -0.0446
  104OSM      P10521   2.381   0.806  11.063  0.2283 -0.2061  0.1931
  104OSM    O1310522   2.245   0.763  11.085  0.6051  0.6631  0.3762
  104OSM    O1410523   2.437   0.908  11.156 -0.3564  0.0861 -0.3119
  104OSM    O1110524   2.390   0.859  10.914 -0.4896  0.3499 -0.0223
  104OSM    O1210525   2.480   0.683  11.072 -0.2251 -0.4605 -0.5977
  104OSM    C1S10526   2.514   0.928  10.874  0.7932  0.0389 -0.0275
  104OSM    H1S10527   2.606   0.873  10.904 -0.0538 -0.5264  1.6447
  104OSM    H1T10528   2.516   1.025  10.928 -1.1742  0.0369  0.1357
  104OSM     NF10529   2.650   1.003  10.683  0.6848  0.0195 -0.1236
  104OSM    HNF10530   2.677   1.098  10.668 -0.1333  0.4311  0.9574
  104OSM    C2S10531   2.518   0.972  10.728  0.1495  0.2747  1.0646
  104OSM    H2S10532   2.486   0.878  10.679  0.1802  0.8689 -0.1448
  104OSM    C3S10533   2.402   1.070  10.691 -0.6253 -0.1314  0.6479
  104OSM    H3S10534   2.440   1.165  10.736  0.3670  0.7389 -1.8275
  104OSM     O310535   2.275   1.042  10.750 -0.0606 -0.6042 -0.1586
  104OSM    HO310536   2.301   0.968  10.806  2.7728 -0.1589 -0.7260
  104OSM    C4S10537   2.384   1.081  10.535  0.2931 -0.5535 -0.8249
  104OSM    H4S10538   2.371   0.983  10.488 -0.0775 -0.4713 -0.8950
  104OSM    C5S10539   2.380   1.199  10.469 -0.8315 -0.5442 -0.4464
  104OSM    H5S10540   2.397   1.294  10.521 -0.1448  1.7112 -4.4108
  104OSM    C6S10541   2.346   1.227  10.326  0.3567  0.1763  0.6930
  104OSM    H6S10542   2.432   1.277  10.275 -1.0912  1.1874 -0.8926
  104OSM    H6T10543   2.269   1.305  10.308 -2.7186 -2.0730  3.0051
  104OSM    C7S10544   2.290   1.107  10.249 -0.1025  0.1756  0.3170
  104OSM    H7S10545   2.203   1.062  10.302  0.0004 -1.9482 -1.1876
  104OSM    H7T10546   2.372   1.033  10.239 -1.5906 -1.4250 -0.5484
  104OSM    C8S10547   2.247   1.138  10.104 -0.4253 -0.7987  0.5177
  104OSM    H8S10548   2.329   1.186  10.046 -0.7670 -0.5758  0.2141
  104OSM    H8T10549   2.168   1.214  10.117 -1.5832 -1.7355 -0.7727
  104OSM    C9S10550   2.212   1.011  10.023  0.4343 -0.0254  0.3142
  104OSM    H9S10551   2.112   0.974  10.054  0.0762  0.0630 -0.6914
  104OSM    H9T10552   2.291   0.933  10.023  0.3615 -0.1707 -1.9238
  104OSM   C10S10553   2.195   1.045   9.874  0.3086 -0.0042 -0.1760
  104OSM   H10S10554   2.185   0.947   9.821 -1.9771 -1.7704  3.1855
  104OSM   H10T10555   2.295   1.081   9.844 -0.4077  1.5671 -0.7877
  104OSM   C11S10556   2.079   1.132   9.840 -0.1059  0.7631 -0.2517
  104OSM   H11S10557   2.119   1.236   9.835 -2.1003  1.5424 -1.0234
  104OSM   H11T10558   2.000   1.129   9.917  0.6818 -0.5218  0.5377
  104OSM   C12S10559   2.010   1.103   9.708  0.4799 -0.5138  0.0843
  104OSM   H12S10560   1.916   1.162   9.699 -0.0995 -1.2858  0.8854
  104OSM   H12T10561   1.977   0.997   9.700  0.8556 -0.5996 -0.3260
  104OSM   C13S10562   2.091   1.136   9.576  0.4009  0.0106 -0.3513
  104OSM   H13S10563   2.189   1.090   9.600 -0.5186 -2.4594 -0.9926
  104OSM   H13T10564   2.112   1.245   9.571  0.8439 -0.1045 -1.0929
  104OSM   C14S10565   2.015   1.089   9.450  0.3617 -0.2620 -0.4039
  104OSM   H14S10566   1.917   1.140   9.437  0.6501  0.4748  0.2138
  104OSM   H14T10567   2.005   0.978   9.445  0.5623 -0.3191  0.3398
  104OSM   C15S10568   2.107   1.137   9.327  1.4387  0.0416 -0.0578
  104OSM   H15S10569   2.209   1.101   9.354  1.8962  1.2701 -0.0698
  104OSM   H15T10570   2.124   1.246   9.336 -1.4490  0.4325  2.0371
  104OSM   C16S10571   2.074   1.075   9.200  0.3581  0.6617  0.8560
  104OSM   H16S10572   1.968   1.097   9.177  0.4731 -0.1456 -0.6109
  104OSM   H16T10573   2.087   0.965   9.209 -0.6752  0.3943 -0.5740
  104OSM   C17S10574   2.162   1.135   9.092  0.5857 -0.1031  0.2326
  104OSM   H17S10575   2.268   1.114   9.120  1.1865  1.5260 -0.6750
  104OSM   H17T10576   2.150   1.246   9.087 -0.6141 -0.2752 -1.3141
  104OSM   C18S10577   2.142   1.083   8.948  0.5132 -0.3265 -0.6265
  104OSM   H18S10578   2.035   1.092   8.920  0.6584  0.1026 -1.0630
  104OSM   H18T10579   2.178   0.979   8.932  0.9093 -0.2288 -0.3721
  104OSM   H18U10580   2.202   1.154   8.887  0.3955  1.3844  1.1712
  104OSM    C1F10581   2.752   0.925  10.697 -0.4350  0.0179 -0.0957
  104OSM     OF10582   2.734   0.805  10.719  0.2704 -0.5462  0.1507
  104OSM    C2F10583   2.892   0.977  10.704 -0.9934 -0.6645 -0.3302
  104OSM    H2F10584   2.920   0.952  10.808 -3.5440 -1.0214  0.3249
  104OSM    H2G10585   2.900   1.087  10.697  1.0839 -0.6394  1.3011
  104OSM    C3F10586   2.991   0.906  10.610  0.0228  0.1644  0.6165
  104OSM    H3F10587   3.007   0.798  10.633 -0.0990 -0.2679 -1.2012
  104OSM    H3G10588   3.080   0.967  10.634 -1.4485  1.8692  2.0104
  104OSM    C4F10589   2.953   0.928  10.468  0.3361 -0.2370  0.0657
  104OSM    H4F10590   2.939   1.037  10.459 -0.5284 -0.3083  0.4818
  104OSM    H4G10591   2.856   0.879  10.444  1.0029 -2.0938  0.9224
  104OSM    C5F10592   3.058   0.867  10.369  0.2778  0.1796  0.5478
  104OSM    H5F10593   3.062   0.757  10.388 -0.1876 -0.3061 -1.8226
  104OSM    H5G10594   3.161   0.905  10.385  0.7347 -0.6341 -0.3182
  104OSM    C6F10595   3.010   0.890  10.215  0.2822 -0.3670 -0.1598
  104OSM    H6F10596   3.003   1.001  10.210 -1.0592 -0.3155  1.8782
  104OSM    H6G10597   2.916   0.839  10.185  0.6419 -0.4749 -1.1458
  104OSM    C7F10598   3.116   0.858  10.111 -0.2136 -0.0385 -0.3891
  104OSM    H7F10599   3.142   0.754  10.140 -7.6659 -1.9972  1.4304
  104OSM    H7G10600   3.210   0.916  10.124 -0.9366  1.4592 -1.5575
  104OSM    C8F10601   3.079   0.861   9.964  0.1379  0.4625  0.8566
  104OSM    H8F10602   3.016   0.950   9.941  0.9000  0.5552 -1.1009
  104OSM    H8G10603   3.024   0.768   9.940  0.5664  0.5368 -0.4816
  104OSM    C9F10604   3.186   0.848   9.862  0.8059  1.1592  0.5467
  104OSM    H9F10605   3.227   0.944   9.828 -1.4319  1.8365 -0.4477
  104OSM   C10F10606   3.249   0.734   9.831 -0.5706 -0.3031 -0.3545
  104OSM   H10F10607   3.336   0.750   9.765  0.1842  1.4996  0.9980
  104OSM   C11F10608   3.219   0.595   9.891 -0.3108  0.4873 -0.5241
  104OSM   H11F10609   3.118   0.561   9.861 -0.5786  0.7502  0.0726
  104OSM   H11G10610   3.210   0.604  10.001  1.6767 -0.0339 -0.2759
  104OSM   C12F10611   3.326   0.492   9.845 -0.0794 -0.0364  0.2497
  104OSM   H12F10612   3.418   0.526   9.896 -0.5855  0.3554  0.9227
  104OSM   H12G10613   3.332   0.491   9.734 -2.7697  1.0349  0.0097
  104OSM   C13F10614   3.298   0.355   9.904  0.1633  0.7898  0.0958
  104OSM   H13F10615   3.225   0.305   9.836  1.2369 -0.8769  0.0957
  104OSM   H13G10616   3.256   0.364  10.006 -0.6283  0.1818 -0.1666
  104OSM   C14F10617   3.422   0.264   9.912  0.1984 -0.5935  0.6443
  104OSM   H14F10618   3.390   0.160   9.936 -0.3757 -0.5795 -0.0346
  104OSM   H14G10619   3.472   0.304  10.003  2.5857 -1.4735 -0.1880
  104OSM   C15F10620   3.516   0.275   9.788 -0.0683  0.1978  0.4133
  104OSM   H15F10621   3.565   0.375   9.788 -2.1589  1.2767  0.5773
  104OSM   H15G10622   3.466   0.262   9.690 -0.7648 -0.2260  0.8185
  104OSM   C16F10623   3.619   0.156   9.774 -0.1945  0.8916 -0.0088
  104OSM   H16F10624   3.654   0.134   9.877  3.0592 -0.4769 -1.2792
  104OSM   H16G10625   3.705   0.175   9.707 -0.8571 -1.7715 -1.7363
  104OSM   C17F10626   3.555   0.027   9.717  0.0896 -0.3952  0.4116
  104OSM   H17F10627   3.474  -0.016   9.780 -0.7107 -1.3760 -1.2306
  104OSM   H17G10628   3.638  -0.042   9.691  1.3169 -0.3221  3.5676
  104OSM   C18F10629   3.490   0.061   9.577 -0.2180 -0.2792  0.2511
  104OSM   H18F10630   3.574   0.104   9.518  0.9323  0.2116  2.1392
  104OSM   H18G10631   3.397   0.123   9.573 -0.3929 -0.5765 -0.4312
  104OSM   H18H10632   3.468  -0.033   9.522 -0.0411 -1.4568  2.1177
  105OSM      N10633   6.129   5.507  10.960 -0.5672  0.0779 -1.0413
  105OSM    C1510634   6.091   5.359  10.953  1.4154 -0.0286  0.1622
  105OSM   H15A10635   6.098   5.325  10.851  0.9336 -0.0951  0.1467
  105OSM   H15B10636   5.992   5.337  10.990  0.9268  1.9809  0.1445
  105OSM   H15C10637   6.169   5.312  11.010  0.7489 -1.4250 -0.0301
  105OSM    C1410638   6.015   5.589  10.934  0.1770 -0.1993 -0.1299
  105OSM   H14A10639   5.936   5.570  11.006 -0.9119 -0.2797 -1.3097
  105OSM   H14B10640   5.991   5.560  10.833  0.9450  0.5727 -0.5507
  105OSM   H14C10641   6.030   5.696  10.928  1.3255 -0.4100 -1.4553
  105OSM    C1310642   6.172   5.549  11.100 -0.0210  0.7034 -0.6555
  105OSM   H13A10643   6.082   5.536  11.157 -0.7393  0.5976 -1.7763
  105OSM   H13B10644   6.186   5.656  11.104 -2.9226  1.1599 -0.8172
  105OSM   H13C10645   6.262   5.500  11.135 -0.8616 -1.6752 -1.6155
  105OSM    C1210646   6.252   5.532  10.860  0.0039  1.1057 -0.2054
  105OSM   H12A10647   6.340   5.495  10.911  0.9420  2.0253 -1.1164
  105OSM   H12B10648   6.265   5.639  10.859  0.6211  1.0337 -0.0482
  105OSM    C1110649   6.247   5.481  10.712  0.6081 -0.0943 -0.5010
  105OSM   H11A10650   6.243   5.370  10.716  0.3053 -0.0697 -0.1010
  105OSM   H11B10651   6.340   5.503  10.654  1.0437  0.6097  0.4421
  105OSM      P10652   6.121   5.676  10.587  0.1475  0.5124  0.1032
  105OSM    O1310653   5.979   5.721  10.603 -0.4498  0.2826 -0.4613
  105OSM    O1410654   6.216   5.755  10.662  0.0945 -0.5756  0.1050
  105OSM    O1110655   6.162   5.661  10.437 -0.4457  0.0590 -0.7209
  105OSM    O1210656   6.132   5.529  10.643  0.7180  0.4560 -0.0948
  105OSM    C1S10657   6.089   5.561  10.364  0.3187  0.2850  0.0383
  105OSM    H1S10658   5.999   5.517  10.412 -0.6933  0.5065 -1.5600
  105OSM    H1T10659   6.154   5.475  10.337 -1.2766 -0.1304 -3.0314
  105OSM     NF10660   5.989   5.501  10.144  0.0007 -0.0963 -0.2763
  105OSM    HNF10661   6.064   5.444  10.111  0.8272  0.7365  0.0916
  105OSM    C2S10662   6.038   5.618  10.220  0.2007  0.4037  0.0694
  105OSM    H2S10663   5.948   5.682  10.228 -0.4926 -0.3833 -1.1121
  105OSM    C3S10664   6.158   5.707  10.158 -0.2112 -0.3281  0.1154
  105OSM    H3S10665   6.250   5.645  10.166 -0.3711 -0.3369  2.8772
  105OSM     O310666   6.197   5.822  10.225  0.1228 -0.3913  0.2904
  105OSM    HO310667   6.216   5.778  10.308  4.5187 -0.2938 -0.4168
  105OSM    C4S10668   6.124   5.740  10.013  0.5450  0.3570 -0.5862
  105OSM    H4S10669   6.164   5.665   9.943 -0.4199 -0.6276 -0.1268
  105OSM    C5S10670   6.056   5.844   9.970 -0.0417  0.5317 -0.5693
  105OSM    H5S10671   6.020   5.930  10.029  0.4353  1.9457 -2.2454
  105OSM    C6S10672   6.041   5.870   9.825  0.1074  0.2817  0.3611
  105OSM    H6S10673   6.135   5.830   9.783 -0.2773  1.3630 -1.6624
  105OSM    H6T10674   6.039   5.978   9.797  0.3584  0.7740  2.1497
  105OSM    C7S10675   5.936   5.787   9.747  0.5172  0.1855 -0.0884
  105OSM    H7S10676   5.834   5.833   9.750  0.3827  0.0364 -1.7430
  105OSM    H7T10677   5.926   5.684   9.785 -0.2845  1.2386  2.8285
  105OSM    C8S10678   5.967   5.780   9.594  0.0772  0.0131  0.2454
  105OSM    H8S10679   5.984   5.676   9.557 -1.5345  0.1761 -1.0755
  105OSM    H8T10680   6.057   5.840   9.569 -1.0077  1.3373 -0.6182
  105OSM    C9S10681   5.851   5.842   9.504  0.3379 -0.2228 -0.3617
  105OSM    H9S10682   5.845   5.949   9.533  2.4196 -0.5732  1.7275
  105OSM    H9T10683   5.750   5.802   9.527 -0.1238 -0.1937 -2.1809
  105OSM   C10S10684   5.872   5.848   9.353  0.4379 -0.1787 -0.1704
  105OSM   H10S10685   5.957   5.915   9.329  0.4189  1.4981  3.7569
  105OSM   H10T10686   5.772   5.873   9.310  0.1675 -0.8967  0.0273
  105OSM   C11S10687   5.918   5.723   9.288  0.5486  0.9269  0.3441
  105OSM   H11S10688   5.853   5.641   9.327  1.0152  0.0936 -0.5921
  105OSM   H11T10689   6.021   5.701   9.323  0.8776  0.4566 -0.8694
  105OSM   C12S10690   5.936   5.717   9.131 -0.4640  0.3005  0.7058
  105OSM   H12S10691   5.989   5.624   9.101  0.2556  1.1463 -0.7750
  105OSM   H12T10692   6.000   5.803   9.102 -1.3036  0.9789  0.8247
  105OSM   C13S10693   5.808   5.714   9.046  0.8645 -0.4916 -0.7341
  105OSM   H13S10694   5.759   5.813   9.055  3.1308  0.8285 -1.8582
  105OSM   H13T10695   5.746   5.630   9.084 -0.2936  0.4840 -0.4154
  105OSM   C14S10696   5.843   5.697   8.899  0.0643  0.1072  0.3072
  105OSM   H14S10697   5.901   5.602   8.893 -0.0485  0.0456  0.1897
  105OSM   H14T10698   5.896   5.788   8.863 -2.1821  2.3119  2.1614
  105OSM   C15S10699   5.726   5.688   8.793  0.4896 -0.1616 -0.4673
  105OSM   H15S10700   5.686   5.790   8.776  1.7691  0.4330  0.0003
  105OSM   H15T10701   5.637   5.634   8.833  0.2594  1.2479  1.0307
  105OSM   C16S10702   5.778   5.617   8.665 -0.2172 -0.7019 -0.2826
  105OSM   H16S10703   5.826   5.522   8.694  0.1535 -1.0499 -1.9524
  105OSM   H16T10704   5.868   5.674   8.633 -1.1274  1.4471  0.7586
  105OSM   C17S10705   5.674   5.598   8.555  0.3311  0.6605 -0.0487
  105OSM   H17S10706   5.658   5.699   8.510  3.9477  0.2455 -2.7584
  105OSM   H17T10707   5.582   5.546   8.590  0.2121 -0.8987 -2.4691
  105OSM   C18S10708   5.729   5.497   8.453  0.4666 -0.8742  0.3461
  105OSM   H18S10709   5.651   5.466   8.379 -0.5779 -2.3882  1.9953
  105OSM   H18T10710   5.773   5.407   8.501  0.3556 -1.8710 -1.3456
  105OSM   H18U10711   5.808   5.553   8.399  0.3112 -0.3375  0.6643
  105OSM    C1F10712   5.862   5.448  10.158 -1.0286  0.5406  0.5384
  105OSM     OF10713   5.775   5.518  10.198  0.4257 -0.4250  0.0979
  105OSM    C2F10714   5.845   5.300  10.119 -0.9268 -0.2077  0.4199
  105OSM    H2F10715   5.824   5.251  10.217 -1.9202  0.0455  0.3383
  105OSM    H2G10716   5.943   5.263  10.081 -1.2191 -0.4851 -0.0606
  105OSM    C3F10717   5.727   5.267  10.026  0.1725  0.3907  0.1625
  105OSM    H3F10718   5.633   5.299  10.075 -0.9150 -1.3163 -0.6774
  105OSM    H3G10719   5.723   5.156  10.033 -0.6725  0.4760  1.3252
  105OSM    C4F10720   5.754   5.309   9.885  0.0535 -1.1114 -0.7305
  105OSM    H4F10721   5.835   5.250   9.836 -0.1271  0.2511 -2.8282
  105OSM    H4G10722   5.788   5.415   9.896 -0.9331 -0.9743  1.4787
  105OSM    C5F10723   5.628   5.302   9.797 -0.9583 -0.5146  0.2382
  105OSM    H5F10724   5.555   5.372   9.843  1.0575  1.6805  0.2435
  105OSM    H5G10725   5.603   5.194   9.806 -0.5468 -0.4503  3.7002
  105OSM    C6F10726   5.645   5.344   9.650  0.1991 -0.0340  0.1025
  105OSM    H6F10727   5.673   5.451   9.652 -1.2735  0.3879 -0.5664
  105OSM    H6G10728   5.546   5.339   9.601  0.4454  1.0697 -0.5328
  105OSM    C7F10729   5.741   5.261   9.567 -0.0537  0.6900 -0.5021
  105OSM    H7F10730   5.729   5.152   9.585 -1.2578  0.6018 -1.6619
  105OSM    H7G10731   5.843   5.291   9.599 -0.4598  0.5216  1.0187
  105OSM    C8F10732   5.733   5.296   9.415 -0.1353 -0.2128  0.7492
  105OSM    H8F10733   5.771   5.399   9.395  0.1142 -0.5879 -0.8457
  105OSM    H8G10734   5.630   5.295   9.372  0.9330  0.3349 -2.0941
  105OSM    C9F10735   5.798   5.187   9.335 -0.0148 -0.8123 -0.2658
  105OSM    H9F10736   5.801   5.088   9.382 -0.6489 -1.2988 -1.2100
  105OSM   C10F10737   5.842   5.198   9.207  0.3161  0.0560  0.2824
  105OSM   H10F10738   5.885   5.113   9.153 -0.2080 -0.2956  0.4075
  105OSM   C11F10739   5.831   5.329   9.129 -0.7321  0.2936  0.0802
  105OSM   H11F10740   5.932   5.372   9.114  0.9872 -3.7256 -1.3618
  105OSM   H11G10741   5.783   5.412   9.185 -0.7536  2.7334 -3.3196
  105OSM   C12F10742   5.750   5.307   8.998 -0.5393 -0.2816  0.0320
  105OSM   H12F10743   5.723   5.408   8.963 -0.0155 -0.4751 -0.9764
  105OSM   H12G10744   5.652   5.256   9.013 -0.5528 -0.3540 -0.3058
  105OSM   C13F10745   5.837   5.235   8.893  0.1285 -0.2148  0.7490
  105OSM   H13F10746   5.863   5.133   8.929  1.8065  0.7951  2.5656
  105OSM   H13G10747   5.933   5.288   8.877  0.1853 -0.6375 -0.3382
  105OSM   C14F10748   5.764   5.229   8.762 -0.6641 -0.2795  0.1229
  105OSM   H14F10749   5.733   5.336   8.751 -0.7467 -0.2899  0.2451
  105OSM   H14G10750   5.678   5.161   8.782 -0.4896  0.3208  3.5523
  105OSM   C15F10751   5.855   5.185   8.641  0.4777 -0.5613 -0.4431
  105OSM   H15F10752   5.932   5.264   8.630  1.1488 -0.7203  2.2659
  105OSM   H15G10753   5.787   5.179   8.553 -0.7859  0.1734  0.4403
  105OSM   C16F10754   5.932   5.054   8.660  0.2112  0.0717 -0.0243
  105OSM   H16F10755   5.859   4.990   8.715 -0.7089  0.1372 -1.1432
  105OSM   H16G10756   6.025   5.073   8.717 -2.2639  0.9738  4.1322
  105OSM   C17F10757   5.975   4.991   8.530 -1.1254  0.2862  0.8567
  105OSM   H17F10758   5.888   4.981   8.461 -0.5800  0.1463  0.1727
  105OSM   H17G10759   6.000   4.883   8.537 -1.8103  0.0133 -0.5108
  105OSM   C18F10760   6.082   5.076   8.454 -0.7606 -0.1645  0.0899
  105OSM   H18F10761   6.027   5.169   8.425  0.6300  0.0606 -2.0839
  105OSM   H18G10762   6.127   5.015   8.373 -0.2578  0.4722 -0.1180
  105OSM   H18H10763   6.169   5.101   8.518 -0.9326  0.2817  0.1516
  106OSM      N10764   4.799   5.285  11.079  0.6759  0.6202 -0.4877
  106OSM    C1510765   4.825   5.299  11.227  0.3268  0.5198 -0.1008
  106OSM   H15A10766   4.912   5.358  11.252 -0.0156  0.2866  1.7531
  106OSM   H15B10767   4.834   5.203  11.275 -0.9558  0.9357  1.0200
  106OSM   H15C10768   4.742   5.353  11.271 -1.7558 -3.1536  0.8753
  106OSM    C1410769   4.862   5.154  11.046 -0.0366  0.9396 -0.7716
  106OSM   H14A10770   4.804   5.077  11.095  0.5812  1.2752  0.5422
  106OSM   H14B10771   4.966   5.145  11.075 -0.3073  0.3314  0.0812
  106OSM   H14C10772   4.867   5.123  10.943  1.2101 -0.5634 -0.3063
  106OSM    C1310773   4.650   5.276  11.060  0.1306  0.5266 -0.3973
  106OSM   H13A10774   4.602   5.205  11.126  1.1376  1.3614  1.3036
  106OSM   H13B10775   4.626   5.253  10.957  0.3290 -0.8268 -0.1691
  106OSM   H13C10776   4.599   5.370  11.070  1.0886  1.5700 -3.8314
  106OSM    C1210777   4.865   5.399  11.006 -0.8652 -0.6559 -0.0545
  106OSM   H12A10778   4.964   5.420  11.043 -1.8307  2.9158  0.8748
  106OSM   H12B10779   4.818   5.494  11.027  2.4626  1.1900 -0.2236
  106OSM    C1110780   4.874   5.384  10.852  0.1557  0.4573  0.1207
  106OSM   H11A10781   4.942   5.301  10.822 -1.1738 -0.9837  0.9188
  106OSM   H11B10782   4.925   5.474  10.811  1.7761  0.3628  1.8110
  106OSM      P10783   4.659   5.477  10.725 -0.4500 -0.4324 -0.3233
  106OSM    O1310784   4.522   5.430  10.699 -0.5531 -0.3936 -0.3471
  106OSM    O1410785   4.672   5.591  10.816 -0.3464  0.1318 -0.0362
  106OSM    O1110786   4.738   5.508  10.591 -0.5752 -0.0010 -0.0628
  106OSM    O1210787   4.744   5.362  10.789 -0.0538 -0.3450 -1.1337
  106OSM    C1S10788   4.726   5.425  10.476 -0.0277 -0.5222 -0.3704
  106OSM    H1S10789   4.638   5.459  10.417 -0.3547 -2.1893 -0.8898
  106OSM    H1T10790   4.704   5.319  10.498  1.0785 -1.0644 -1.7313
  106OSM     NF10791   4.823   5.411  10.245 -0.7617  0.3902  0.1439
  106OSM    HNF10792   4.842   5.327  10.194  1.7639  1.1087 -0.2405
  106OSM    C2S10793   4.858   5.438  10.384 -0.2518  0.5402  0.5657
  106OSM    H2S10794   4.896   5.543  10.386 -0.5063  0.6476  0.0603
  106OSM    C3S10795   4.971   5.353  10.442  0.3944  0.4486  0.8859
  106OSM    H3S10796   4.925   5.252  10.450  1.0605 -0.1312 -1.6437
  106OSM     O310797   5.021   5.394  10.573  0.5505 -0.1622 -0.0902
  106OSM    HO310798   4.946   5.440  10.613  1.0919 -0.3994  1.2768
  106OSM    C4S10799   5.086   5.348  10.349 -0.1500 -0.3543 -0.3277
  106OSM    H4S10800   5.095   5.254  10.292  1.4761 -0.3221 -0.1762
  106OSM    C5S10801   5.170   5.445  10.320 -0.9697 -0.3977 -0.6925
  106OSM    H5S10802   5.145   5.535  10.379  1.3554 -0.0873 -0.0885
  106OSM    C6S10803   5.299   5.437  10.235  0.4714 -0.3246 -0.4465
  106OSM    H6S10804   5.376   5.412  10.310 -1.2661 -0.6165  1.3261
  106OSM    H6T10805   5.310   5.537  10.188 -0.3907  0.6397  1.2920
  106OSM    C7S10806   5.303   5.339  10.116  0.2754 -0.1051 -0.3261
  106OSM    H7S10807   5.291   5.235  10.153 -3.7096  0.8448  1.6017
  106OSM    H7T10808   5.399   5.354  10.061  1.2025  1.0261  1.4946
  106OSM    C8S10809   5.202   5.373  10.012 -0.2589  0.3986 -0.1952
  106OSM    H8S10810   5.230   5.468   9.963  2.1991 -0.8506 -1.4215
  106OSM    H8T10811   5.098   5.362  10.049  0.0755  1.2774  1.0605
  106OSM    C9S10812   5.210   5.271   9.896 -0.7721  0.6717  0.4858
  106OSM    H9S10813   5.206   5.171   9.944  1.0476 -0.5774 -1.7553
  106OSM    H9T10814   5.311   5.276   9.851 -0.3883  4.9020  1.3953
  106OSM   C10S10815   5.096   5.282   9.792 -0.7456  0.8017 -0.2043
  106OSM   H10S10816   5.024   5.357   9.829 -1.1779  0.8041 -1.0283
  106OSM   H10T10817   5.034   5.192   9.772  0.2766  0.4584 -2.1006
  106OSM   C11S10818   5.159   5.333   9.661  0.8169 -0.4796  0.2881
  106OSM   H11S10819   5.216   5.252   9.610  2.8835  0.5075  0.8986
  106OSM   H11T10820   5.235   5.412   9.682  0.1017 -0.0580  1.4038
  106OSM   C12S10821   5.046   5.386   9.564 -0.4446  0.0147 -0.9763
  106OSM   H12S10822   4.990   5.470   9.609  0.2564  0.4031 -0.8013
  106OSM   H12T10823   4.976   5.300   9.564 -0.4103 -0.0557  0.8399
  106OSM   C13S10824   5.096   5.424   9.422 -0.0049  0.5289  0.0601
  106OSM   H13S10825   5.156   5.338   9.384 -1.8003  0.1448 -2.1447
  106OSM   H13T10826   5.142   5.525   9.430 -0.4980  0.6507  1.7012
  106OSM   C14S10827   4.968   5.447   9.340 -0.8703  0.2369  0.2620
  106OSM   H14S10828   4.913   5.530   9.388 -1.2696 -0.9584  1.9475
  106OSM   H14T10829   4.899   5.360   9.343 -0.2323 -0.2573  1.1973
  106OSM   C15S10830   5.001   5.483   9.195  0.5475 -0.3537 -0.1180
  106OSM   H15S10831   5.056   5.401   9.144  1.2967  0.1226 -0.1037
  106OSM   H15T10832   5.064   5.574   9.184 -0.3057  0.2282 -0.2876
  106OSM   C16S10833   4.872   5.503   9.113  0.3547 -0.8208 -0.1478
  106OSM   H16S10834   4.801   5.575   9.160  0.0159 -1.7352  0.7796
  106OSM   H16T10835   4.818   5.406   9.121 -1.1906  0.0714  0.7807
  106OSM   C17S10836   4.896   5.554   8.963  0.2725  0.2846  0.2509
  106OSM   H17S10837   4.919   5.661   8.979  0.6826 -0.0293  1.9835
  106OSM   H17T10838   4.806   5.542   8.899  1.6320 -2.8786 -1.2621
  106OSM   C18S10839   5.013   5.484   8.887 -0.1094 -0.0967 -0.8461
  106OSM   H18S10840   4.996   5.374   8.881 -2.3175  0.1823 -0.6916
  106OSM   H18T10841   5.111   5.507   8.934 -0.2607  1.4268 -1.2221
  106OSM   H18U10842   5.034   5.525   8.786  2.0331 -0.4317 -0.5777
  106OSM    C1F10843   4.758   5.496  10.167 -0.5610 -0.4082 -0.0936
  106OSM     OF10844   4.707   5.600  10.201  0.1852 -0.3170 -0.1010
  106OSM    C2F10845   4.752   5.447  10.019  0.1848  0.3620  0.3723
  106OSM    H2F10846   4.712   5.345  10.005 -0.2023  0.6253 -0.5701
  106OSM    H2G10847   4.859   5.452   9.988  1.3775  2.1538  4.2368
  106OSM    C3F10848   4.663   5.541   9.941 -0.1112 -0.1325 -0.0513
  106OSM    H3F10849   4.697   5.644   9.966  1.0349 -0.3919 -0.4873
  106OSM    H3G10850   4.555   5.542   9.969 -1.1072  0.7294 -3.4298
  106OSM    C4F10851   4.685   5.530   9.788  0.0439 -0.5293  0.0127
  106OSM    H4F10852   4.790   5.544   9.756  0.9708 -4.3626  0.9048
  106OSM    H4G10853   4.620   5.611   9.749  0.3504  0.3279  1.2238
  106OSM    C5F10854   4.643   5.389   9.739 -0.4769 -0.0723  1.3514
  106OSM    H5F10855   4.550   5.360   9.791 -1.2664 -1.2298 -0.5846
  106OSM    H5G10856   4.722   5.313   9.759 -0.6005 -0.3301  0.8686
  106OSM    C6F10857   4.630   5.390   9.588  0.3534 -0.5220  1.0535
  106OSM    H6F10858   4.595   5.291   9.551  3.0446  0.2990 -4.9423
  106OSM    H6G10859   4.729   5.409   9.542  1.5293 -2.6920  2.5573
  106OSM    C7F10860   4.530   5.492   9.529  0.2630 -0.1599 -1.0415
  106OSM    H7F10861   4.577   5.593   9.518  1.9353 -0.9715 -1.6782
  106OSM    H7G10862   4.447   5.501   9.602 -0.0458  2.8208 -1.6203
  106OSM    C8F10863   4.456   5.449   9.397  0.2069 -0.2901  0.0369
  106OSM    H8F10864   4.382   5.529   9.380 -0.7139 -0.3801  3.0430
  106OSM    H8G10865   4.399   5.356   9.417 -1.2506  0.2196 -1.5265
  106OSM    C9F10866   4.548   5.430   9.278 -0.5802  0.0482  0.4038
  106OSM    H9F10867   4.649   5.472   9.289 -0.3406  0.4069 -2.4301
  106OSM   C10F10868   4.518   5.387   9.158  0.7790 -0.3454 -0.1515
  106OSM   H10F10869   4.593   5.356   9.083 -0.2153  0.8541 -1.7133
  106OSM   C11F10870   4.376   5.356   9.125  1.0329  0.4564 -0.2140
  106OSM   H11F10871   4.314   5.445   9.102 -0.2480 -0.5938 -1.0330
  106OSM   H11G10872   4.324   5.296   9.203  2.6723 -1.1288 -0.2794
  106OSM   C12F10873   4.379   5.290   8.985  0.6191 -0.0221  0.5721
  106OSM   H12F10874   4.458   5.213   8.973  0.1150 -0.9724  2.9584
  106OSM   H12G10875   4.414   5.364   8.909 -0.0442 -0.1235  0.1526
  106OSM   C13F10876   4.243   5.234   8.933 -0.4288 -0.3325 -0.4353
  106OSM   H13F10877   4.170   5.317   8.941  0.2862  0.2530  0.2303
  106OSM   H13G10878   4.210   5.159   9.008 -0.1013 -0.3542 -0.3086
  106OSM   C14F10879   4.252   5.167   8.802  0.4659  0.3178 -0.5995
  106OSM   H14F10880   4.187   5.078   8.794  0.3643  0.3631 -0.2901
  106OSM   H14G10881   4.351   5.117   8.802  1.6240  2.4542  0.8675
  106OSM   C15F10882   4.247   5.270   8.682 -0.1218 -0.2268 -0.4314
  106OSM   H15F10883   4.259   5.210   8.589 -0.9696 -0.7047 -0.2465
  106OSM   H15G10884   4.338   5.333   8.690  0.9517 -1.9037  1.8751
  106OSM   C16F10885   4.114   5.352   8.689 -0.4337  0.1120  0.2957
  106OSM   H16F10886   4.114   5.423   8.774 -2.1422 -0.4486  0.8083
  106OSM   H16G10887   4.032   5.281   8.711 -1.6474  1.1546 -0.6925
  106OSM   C17F10888   4.088   5.437   8.569  0.6697 -0.1252  0.4520
  106OSM   H17F10889   3.987   5.482   8.581  0.4004 -0.8200  0.8705
  106OSM   H17G10890   4.080   5.353   8.497  0.6462 -0.8326  1.2590
  106OSM   C18F10891   4.204   5.541   8.536  0.3851  0.1830 -0.7159
  106OSM   H18F10892   4.253   5.587   8.625  0.7220  0.9096 -1.2706
  106OSM   H18G10893   4.161   5.613   8.464  0.2284  0.0821 -0.7253
  106OSM   H18H10894   4.279   5.483   8.478 -0.1639 -1.5826  0.2466
  107OSM      N10895   5.780   4.189  10.911  0.0420  0.1472 -0.7306
  107OSM    C1510896   5.886   4.079  10.929  0.0753 -0.4315  0.1521
  107OSM   H15A10897   5.943   4.048  10.843  1.1209 -0.4945  0.8466
  107OSM   H15B10898   5.839   3.995  10.979 -1.5167  0.2021 -0.1990
  107OSM   H15C10899   5.964   4.119  10.991  0.1060  1.0860 -0.8216
  107OSM    C1410900   5.677   4.140  10.810 -0.2167  0.4461 -0.7846
  107OSM   H14A10901   5.597   4.210  10.792 -3.1319 -1.7097  2.4428
  107OSM   H14B10902   5.639   4.048  10.851 -0.4959  0.9606  0.1297
  107OSM   H14C10903   5.722   4.108  10.717  0.0269  1.0940 -0.8985
  107OSM    C1310904   5.712   4.210  11.040  0.1734  0.7012  0.6861
  107OSM   H13A10905   5.616   4.257  11.026 -0.7480 -1.4811 -0.9726
  107OSM   H13B10906   5.767   4.271  11.110 -0.4174  1.8951  0.1384
  107OSM   H13C10907   5.687   4.118  11.091 -0.7135 -0.5020 -1.7841
  107OSM    C1210908   5.831   4.320  10.857 -1.0392 -0.4105  0.4412
  107OSM   H12A10909   5.757   4.396  10.874  0.5020  0.8556  1.8129
  107OSM   H12B10910   5.853   4.319  10.751 -0.3555  1.8033  0.5101
  107OSM    C1110911   5.956   4.370  10.934 -0.2583 -0.0152  0.5718
  107OSM   H11A10912   5.952   4.368  11.045 -0.2258  0.0332  0.5733
  107OSM   H11B10913   5.962   4.475  10.899 -0.1925  0.3844  1.7299
  107OSM      P10914   6.183   4.338  10.805 -0.0538  0.3959 -0.5289
  107OSM    O1310915   6.260   4.458  10.846  0.5589  0.0360 -0.1826
  107OSM    O1410916   6.263   4.223  10.764 -0.0689 -0.4355 -0.3657
  107OSM    O1110917   6.089   4.388  10.691  0.6743  0.3540  0.4243
  107OSM    O1210918   6.077   4.295  10.916  0.0156  0.2593  0.1426
  107OSM    C1S10919   6.134   4.459  10.577  0.0383 -0.1159 -0.3035
  107OSM    H1S10920   6.226   4.518  10.597  1.2965 -2.0461 -0.1568
  107OSM    H1T10921   6.059   4.538  10.555 -0.1209  1.3931  4.4233
  107OSM     NF10922   6.232   4.454  10.369  0.1366 -0.6220  0.3687
  107OSM    HNF10923   6.180   4.503  10.300 -1.4921 -0.9365  1.3288
  107OSM    C2S10924   6.159   4.374  10.455 -0.3473  0.4208  0.1952
  107OSM    H2S10925   6.219   4.284  10.481 -1.1352  0.2609  1.5098
  107OSM    C3S10926   6.025   4.322  10.397  0.3032 -0.6319  0.1843
  107OSM    H3S10927   5.978   4.417  10.364  1.3754 -0.8960 -2.2749
  107OSM     O310928   5.932   4.268  10.494 -0.8236  0.0432  0.0626
  107OSM    HO310929   5.970   4.298  10.576  2.3685  2.0050 -1.9060
  107OSM    C4S10930   6.056   4.228  10.278 -0.2533 -0.1469 -0.6116
  107OSM    H4S10931   6.107   4.137  10.312  2.9679  1.2809 -1.2085
  107OSM    C5S10932   6.020   4.247  10.150 -0.1626  1.0189 -0.1434
  107OSM    H5S10933   5.962   4.334  10.117 -2.1392  0.9695  2.8868
  107OSM    C6S10934   6.049   4.146  10.034 -0.1268  0.4449 -0.3558
  107OSM    H6S10935   5.960   4.134   9.969 -1.4217  0.7979  1.2721
  107OSM    H6T10936   6.076   4.043  10.066 -3.4011 -0.8815 -1.4588
  107OSM    C7S10937   6.164   4.214   9.959 -0.1152 -0.1773  0.1735
  107OSM    H7S10938   6.261   4.227  10.012 -0.7588  1.8588  0.9519
  107OSM    H7T10939   6.119   4.311   9.929 -1.6742 -1.1109 -0.6136
  107OSM    C8S10940   6.207   4.121   9.841  0.1344 -0.6632  0.1463
  107OSM    H8S10941   6.231   4.019   9.877 -0.4424 -0.7316  0.3512
  107OSM    H8T10942   6.304   4.162   9.805 -0.8498  0.5851 -1.1936
  107OSM    C9S10943   6.117   4.138   9.719  0.2613 -0.3244 -0.3048
  107OSM    H9S10944   6.120   4.244   9.687 -1.3688 -1.0864 -3.3438
  107OSM    H9T10945   6.012   4.113   9.745 -0.2038 -1.0625 -2.6001
  107OSM   C10S10946   6.169   4.052   9.602  0.1623  0.0070  0.1839
  107OSM   H10S10947   6.201   3.953   9.642 -0.7158 -0.4612 -0.2152
  107OSM   H10T10948   6.263   4.096   9.562 -0.4954  3.2334  1.8655
  107OSM   C11S10949   6.069   4.034   9.485 -0.1435 -0.2621  0.0072
  107OSM   H11S10950   6.038   4.133   9.446 -0.5150  0.0295  1.0160
  107OSM   H11T10951   5.975   3.992   9.528 -0.3888  0.7890  0.5317
  107OSM   C12S10952   6.118   3.948   9.373  0.4639 -0.6671  0.9893
  107OSM   H12S10953   6.106   3.841   9.401  2.2592 -0.8136  1.2819
  107OSM   H12T10954   6.222   3.971   9.341 -0.1804  0.3443 -0.5411
  107OSM   C13S10955   6.018   3.967   9.253  0.1189  0.0845  0.1200
  107OSM   H13S10956   6.040   4.068   9.212 -0.1654  0.5889  1.1852
  107OSM   H13T10957   5.913   3.966   9.288  0.0989  1.2990  0.1325
  107OSM   C14S10958   6.034   3.859   9.141 -0.5887 -0.1799  0.7911
  107OSM   H14S10959   5.987   3.763   9.171  1.0677 -1.1032  0.5569
  107OSM   H14T10960   6.142   3.843   9.121 -0.7052  1.0223 -1.0985
  107OSM   C15S10961   5.978   3.904   9.004  0.1055  0.3585  0.1876
  107OSM   H15S10962   6.009   4.005   8.970 -0.4005 -0.2734 -2.3599
  107OSM   H15T10963   5.867   3.908   9.000  0.1041  3.3013  0.9208
  107OSM   C16S10964   6.008   3.801   8.892  0.5872  0.7229  0.2316
  107OSM   H16S10965   5.969   3.859   8.806  0.2028  1.5351  0.9390
  107OSM   H16T10966   5.944   3.709   8.894  0.8873  0.4640 -1.2638
  107OSM   C17S10967   6.152   3.750   8.880 -0.2233  0.5823 -0.0339
  107OSM   H17S10968   6.169   3.695   8.975 -3.3945  0.1288  0.3798
  107OSM   H17T10969   6.235   3.823   8.887 -0.4864  0.7494  1.8914
  107OSM   C18S10970   6.183   3.661   8.760  0.6132 -0.5925  0.6126
  107OSM   H18S10971   6.290   3.630   8.762  0.5063 -1.5378 -2.6314
  107OSM   H18T10972   6.155   3.711   8.665  1.1932 -1.8130 -0.2249
  107OSM   H18U10973   6.122   3.568   8.766 -2.7225  1.2471 -1.5118
  107OSM    C1F10974   6.358   4.492  10.384 -0.3056  0.2845  0.5377
  107OSM     OF10975   6.431   4.451  10.475  0.2382  0.2742 -0.0371
  107OSM    C2F10976   6.406   4.595  10.285 -0.5379  0.6895  0.1212
  107OSM    H2F10977   6.333   4.678  10.298 -0.6040  0.4736  1.1974
  107OSM    H2G10978   6.394   4.556  10.182  2.0651  0.3032 -0.1144
  107OSM    C3F10979   6.545   4.655  10.303 -0.4613  0.1831 -0.2487
  107OSM    H3F10980   6.618   4.576  10.329  0.7429  1.0529 -0.8642
  107OSM    H3G10981   6.535   4.716  10.395 -1.6248  1.5490 -1.2237
  107OSM    C4F10982   6.604   4.751  10.201  0.0169 -0.1758  0.9724
  107OSM    H4F10983   6.682   4.817  10.246 -0.4232  1.6775 -0.8435
  107OSM    H4G10984   6.524   4.823  10.174  0.2782 -0.3102 -0.1906
  107OSM    C5F10985   6.675   4.675  10.089 -0.9768  0.6494  0.1594
  107OSM    H5F10986   6.593   4.609  10.053 -0.1428 -0.8968  1.0517
  107OSM    H5G10987   6.752   4.603  10.122  1.7676  1.2652 -4.1151
  107OSM    C6F10988   6.739   4.772   9.983 -0.6245  0.5508  0.3627
  107OSM    H6F10989   6.825   4.813  10.039 -0.7438  1.5928 -0.1791
  107OSM    H6G10990   6.660   4.845   9.954 -1.5078  0.2084  1.8120
  107OSM    C7F10991   6.789   4.697   9.855  0.5269  0.3524  0.0302
  107OSM    H7F10992   6.699   4.651   9.808 -0.9326  4.2882 -1.4613
  107OSM    H7G10993   6.864   4.617   9.873 -0.2330 -0.9866 -2.3120
  107OSM    C8F10994   6.854   4.792   9.742  0.2797  1.0208 -1.1318
  107OSM    H8F10995   6.936   4.853   9.786  2.4381 -2.5496  0.1997
  107OSM    H8G10996   6.762   4.852   9.723 -1.7791 -1.5765 -0.1065
  107OSM    C9F10997   6.888   4.705   9.626 -0.4618 -0.3876  0.5507
  107OSM    H9F10998   6.957   4.624   9.654 -3.0022 -2.1305  2.2725
  107OSM   C10F10999   6.817   4.704   9.510  0.3137 -0.2478  0.7023
  107OSM   H10F11000   6.849   4.629   9.437 -2.3526 -1.5673  0.7862
  107OSM   C11F11001   6.704   4.796   9.481 -0.1765  0.0494  0.8490
  107OSM   H11F11002   6.738   4.898   9.454  1.3846 -0.8527 -0.7609
  107OSM   H11G11003   6.638   4.812   9.570  0.6999  2.2287  1.1593
  107OSM   C12F11004   6.610   4.752   9.363  0.5537 -0.3543  0.0087
  107OSM   H12F11005   6.526   4.824   9.357  0.2594 -0.7538 -1.0351
  107OSM   H12G11006   6.559   4.655   9.387 -2.9937  0.9682 -1.4753
  107OSM   C13F11007   6.681   4.761   9.227  0.3824 -0.5210  0.1825
  107OSM   H13F11008   6.756   4.679   9.226 -0.3011 -1.1514 -0.1076
  107OSM   H13G11009   6.726   4.862   9.224 -2.1795  0.7944  2.2884
  107OSM   C14F11010   6.577   4.736   9.115 -0.1584  0.0253 -1.2080
  107OSM   H14F11011   6.503   4.818   9.102  0.4118  1.0624  1.4963
  107OSM   H14G11012   6.519   4.646   9.147  1.2094  0.8103  4.5424
  107OSM   C15F11013   6.652   4.697   8.986  0.5113 -1.0369 -0.7783
  107OSM   H15F11014   6.711   4.606   9.009  1.2553 -0.9399 -2.2027
  107OSM   H15G11015   6.720   4.781   8.963 -0.2903 -0.2728 -0.4300
  107OSM   C16F11016   6.572   4.690   8.859 -0.3518 -0.0843 -0.0604
  107OSM   H16F11017   6.519   4.785   8.838 -0.1146  0.3497  1.2050
  107OSM   H16G11018   6.506   4.600   8.862 -2.0374  1.0568 -1.2787
  107OSM   C17F11019   6.655   4.682   8.731 -0.7814  0.3437 -0.0604
  107OSM   H17F11020   6.722   4.594   8.730 -0.6601  0.4277 -2.2356
  107OSM   H17G11021   6.725   4.768   8.726  2.1739 -1.8531  0.8331
  107OSM   C18F11022   6.574   4.686   8.598  0.8431  0.3678 -1.1092
  107OSM   H18F11023   6.630   4.693   8.503 -0.2830 -1.9368 -2.0314
  107OSM   H18G11024   6.496   4.764   8.600 -1.6211 -1.9081 -2.2085
  107OSM   H18H11025   6.528   4.585   8.591  1.5579 -0.1565  0.9582
  108OSM      N11026   4.535   4.405  10.600 -0.5270  0.2477  0.1209
  108OSM    C1511027   4.441   4.471  10.701  0.0465  0.3127 -0.4821
  108OSM   H15A11028   4.357   4.516  10.649  0.0826  0.5355 -0.3491
  108OSM   H15B11029   4.482   4.548  10.765 -1.0449  2.5097 -2.2601
  108OSM   H15C11030   4.397   4.388  10.754  1.8327  0.6209  1.6416
  108OSM    C1411031   4.584   4.514  10.507 -0.0625  0.2508  0.1745
  108OSM   H14A11032   4.680   4.490  10.465 -0.7352  1.1585 -2.0259
  108OSM   H14B11033   4.585   4.608  10.560 -2.6333 -0.3263  1.4492
  108OSM   H14C11034   4.508   4.516  10.429  0.7995  0.2277 -0.6791
  108OSM    C1311035   4.650   4.348  10.680  0.7767  0.0504  0.0539
  108OSM   H13A11036   4.627   4.270  10.750 -0.7181  1.1062  0.8026
  108OSM   H13B11037   4.699   4.425  10.738  1.0023 -0.3056  0.3400
  108OSM   H13C11038   4.721   4.311  10.607  1.8478 -1.0211  1.5752
  108OSM    C1211039   4.485   4.291  10.514 -0.3268 -0.0860  0.1580
  108OSM   H12A11040   4.451   4.212  10.579 -1.9480  1.1581  0.8967
  108OSM   H12B11041   4.565   4.246  10.458 -2.7750 -0.7377 -3.1057
  108OSM    C1111042   4.376   4.321  10.410  0.4782 -0.1915  0.3600
  108OSM   H11A11043   4.333   4.227  10.369 -0.4774  0.8738 -1.1793
  108OSM   H11B11044   4.411   4.377  10.321  3.5513 -0.2446  1.4126
  108OSM      P11045   4.176   4.500  10.431  0.5963  0.0590 -0.0785
  108OSM    O1311046   4.037   4.444  10.432  0.3631 -0.1408 -0.4995
  108OSM    O1411047   4.191   4.621  10.516 -0.2821  0.6779 -0.0521
  108OSM    O1111048   4.238   4.520  10.285 -0.2220 -0.4509 -0.2561
  108OSM    O1211049   4.270   4.385  10.483  0.2210 -0.0648 -0.3712
  108OSM    C1S11050   4.215   4.637  10.203 -0.3573 -0.0857  0.4916
  108OSM    H1S11051   4.301   4.706  10.212 -1.6592  1.6621 -0.0348
  108OSM    H1T11052   4.124   4.693  10.234 -0.5148 -1.0263  1.8380
  108OSM     NF11053   4.227   4.719   9.962  0.1915 -0.3506 -0.5799
  108OSM    HNF11054   4.152   4.779   9.936 -0.1575  0.2463  1.6262
  108OSM    C2S11055   4.195   4.608  10.054 -0.4634  0.2410 -0.3145
  108OSM    H2S11056   4.271   4.535  10.019 -0.4449  0.4899 -0.8101
  108OSM    C3S11057   4.051   4.555  10.039  0.8522  0.3970 -0.4438
  108OSM    H3S11058   3.977   4.621  10.091  1.8716 -0.1189  1.7784
  108OSM     O311059   4.028   4.436  10.112 -0.1536  0.2766 -0.1746
  108OSM    HO311060   4.084   4.424  10.189 -1.3505 -3.5511  0.3286
  108OSM    C4S11061   4.013   4.535   9.898 -0.5126  0.3990  0.5252
  108OSM    H4S11062   3.956   4.621   9.859 -1.4249 -0.5539 -0.2742
  108OSM    C5S11063   4.036   4.430   9.821  0.3178 -0.3608  0.4699
  108OSM    H5S11064   4.086   4.342   9.864  2.1314  1.3082  2.0076
  108OSM    C6S11065   4.009   4.443   9.670  0.4839  0.6881 -0.8038
  108OSM    H6S11066   3.951   4.354   9.637 -0.8361  1.3085 -0.2448
  108OSM    H6T11067   4.105   4.445   9.615  0.8131  0.3658 -0.2432
  108OSM    C7S11068   3.945   4.568   9.607 -1.2284 -0.4593 -0.4625
  108OSM    H7S11069   4.020   4.649   9.610 -0.0861 -1.5092  0.7194
  108OSM    H7T11070   3.856   4.600   9.665 -0.0909  1.2286  0.4376
  108OSM    C8S11071   3.901   4.554   9.460 -0.0289 -0.1467  0.3261
  108OSM    H8S11072   3.854   4.649   9.428  0.3148  0.1222  0.6114
  108OSM    H8T11073   3.816   4.483   9.465  0.2994 -0.4747  1.5090
  108OSM    C9S11074   4.002   4.510   9.356  0.2271  0.1152  0.4035
  108OSM    H9S11075   4.042   4.411   9.386  0.1883  0.0094  0.1097
  108OSM    H9T11076   4.085   4.583   9.353  2.0967 -1.8575  1.2246
  108OSM   C10S11077   3.943   4.497   9.215 -0.2126 -0.3480 -0.6985
  108OSM   H10S11078   3.885   4.588   9.188  0.8871  0.3949 -0.5827
  108OSM   H10T11079   3.870   4.413   9.214 -1.0740  0.3016  1.3665
  108OSM   C11S11080   4.045   4.454   9.114  0.0219 -0.3786  0.3950
  108OSM   H11S11081   4.111   4.542   9.101 -0.0163 -0.2614  0.9675
  108OSM   H11T11082   3.993   4.435   9.018 -0.6901 -0.1550  0.7270
  108OSM   C12S11083   4.130   4.321   9.136 -0.0942 -0.0108  0.1226
  108OSM   H12S11084   4.052   4.242   9.139  1.2812 -1.4931 -1.3091
  108OSM   H12T11085   4.172   4.325   9.239  1.9869  0.2703 -0.6932
  108OSM   C13S11086   4.240   4.296   9.029  0.8450 -0.1171  0.2260
  108OSM   H13S11087   4.323   4.232   9.065 -0.1563  0.6967  4.5818
  108OSM   H13T11088   4.285   4.395   9.009  1.5768 -0.8631 -2.0990
  108OSM   C14S11089   4.200   4.237   8.893 -0.5269  0.6837 -0.1163
  108OSM   H14S11090   4.273   4.277   8.819  1.3103 -0.9399  0.7068
  108OSM   H14T11091   4.094   4.261   8.870 -0.7648  0.7695  1.0484
  108OSM   C15S11092   4.213   4.083   8.890  0.0691 -0.5407 -0.2125
  108OSM   H15S11093   4.157   4.040   8.976 -1.0615 -0.7752 -1.0495
  108OSM   H15T11094   4.319   4.057   8.910 -0.1194  0.3005  2.2234
  108OSM   C16S11095   4.159   4.023   8.756 -0.5435  0.1026 -0.0852
  108OSM   H16S11096   4.200   4.088   8.675 -0.9349  0.3338 -0.1013
  108OSM   H16T11097   4.049   4.029   8.744 -0.4641 -0.1684 -1.0280
  108OSM   C17S11098   4.205   3.882   8.716 -0.6270 -0.0389 -0.1944
  108OSM   H17S11099   4.149   3.816   8.786 -1.9571  0.7139 -0.5142
  108OSM   H17T11100   4.311   3.872   8.748 -1.1154  0.8803  1.8778
  108OSM   C18S11101   4.181   3.847   8.567  0.1205 -0.2248 -0.5157
  108OSM   H18S11102   4.208   3.931   8.499 -2.5382  0.4031 -0.9039
  108OSM   H18T11103   4.074   3.844   8.537  0.1700 -1.0753 -0.6525
  108OSM   H18U11104   4.243   3.759   8.537  1.4168  0.0471  1.2044
  108OSM    C1F11105   4.351   4.766   9.939  0.1601  0.1335 -0.4102
  108OSM     OF11106   4.451   4.705   9.974 -0.4893  0.3170  0.0580
  108OSM    C2F11107   4.347   4.904   9.876  0.2117 -0.8721 -0.2827
  108OSM    H2F11108   4.380   4.986   9.943 -0.3124 -0.7660 -0.1478
  108OSM    H2G11109   4.242   4.932   9.853  0.9552  1.2698 -1.3949
  108OSM    C3F11110   4.409   4.905   9.734  0.1650  0.7448  0.0422
  108OSM    H3F11111   4.359   4.831   9.669 -1.2759  2.4079 -0.8442
  108OSM    H3G11112   4.519   4.899   9.720  0.1046  1.6406 -0.9617
  108OSM    C4F11113   4.390   5.035   9.663  0.1395  0.4641  0.0396
  108OSM    H4F11114   4.452   5.109   9.718  2.5725 -1.0135 -0.5600
  108OSM    H4G11115   4.283   5.062   9.680  0.2717  0.6444  0.6256
  108OSM    C5F11116   4.427   5.027   9.516 -0.0783  0.5412 -0.3171
  108OSM    H5F11117   4.531   4.995   9.493 -1.0487 -1.1487 -2.8640
  108OSM    H5G11118   4.419   5.126   9.466 -0.7995  0.6321 -0.0342
  108OSM    C6F11119   4.328   4.952   9.424  0.1113  0.2503 -0.0859
  108OSM    H6F11120   4.225   4.988   9.448  0.6579  1.0868  1.0760
  108OSM    H6G11121   4.331   4.844   9.450 -0.9534  0.2093 -0.0861
  108OSM    C7F11122   4.359   4.971   9.275  0.0472 -0.0556  0.2271
  108OSM    H7F11123   4.469   4.957   9.265 -0.0930 -0.5795 -0.6697
  108OSM    H7G11124   4.342   5.081   9.268  0.0040  0.0406  1.6869
  108OSM    C8F11125   4.282   4.876   9.187  0.2868 -0.5299  0.2558
  108OSM    H8F11126   4.287   4.915   9.083  2.3946  1.7066  1.0697
  108OSM    H8G11127   4.181   4.880   9.231 -0.3180 -1.2708 -1.0155
  108OSM    C9F11128   4.332   4.732   9.178 -0.3062 -0.5303  0.0760
  108OSM    H9F11129   4.355   4.690   9.277  1.8118  1.1592  0.3927
  108OSM   C10F11130   4.357   4.668   9.062 -0.3446  0.3349 -0.6175
  108OSM   H10F11131   4.375   4.561   9.078 -1.0333  0.4230  0.9673
  108OSM   C11F11132   4.322   4.726   8.928  1.1952  0.1140 -0.8180
  108OSM   H11F11133   4.386   4.806   8.886  0.9775  1.3820  1.1108
  108OSM   H11G11134   4.221   4.772   8.938  1.7081  1.3425 -0.9900
  108OSM   C12F11135   4.308   4.622   8.818  0.0427  0.1035  0.2161
  108OSM   H12F11136   4.230   4.548   8.845  0.1599  0.0276  0.3391
  108OSM   H12G11137   4.411   4.581   8.813 -0.0216 -0.4719  2.5068
  108OSM   C13F11138   4.281   4.693   8.684 -0.1223  0.8919 -0.6543
  108OSM   H13F11139   4.213   4.781   8.689  2.5153  3.0328 -0.3196
  108OSM   H13G11140   4.249   4.614   8.613 -0.2651  0.8067 -0.4945
  108OSM   C14F11141   4.413   4.746   8.613 -0.2252  0.1715 -0.3944
  108OSM   H14F11142   4.500   4.687   8.650  0.3942  1.2851 -0.0184
  108OSM   H14G11143   4.421   4.852   8.644 -0.7286  0.4192 -1.1060
  108OSM   C15F11144   4.419   4.737   8.460  0.3470 -0.4483 -0.1648
  108OSM   H15F11145   4.427   4.634   8.419 -1.9267 -0.0302 -1.8842
  108OSM   H15G11146   4.504   4.785   8.408 -0.0421 -1.0796 -1.4242
  108OSM   C16F11147   4.292   4.801   8.387 -1.1179 -1.0469 -0.6843
  108OSM   H16F11148   4.197   4.761   8.429 -0.3043 -1.0422  1.2855
  108OSM   H16G11149   4.314   4.780   8.280  2.5744  0.6157 -0.3936
  108OSM   C17F11150   4.314   4.954   8.399  0.3269  0.2838 -0.8319
  108OSM   H17F11151   4.410   4.978   8.349  0.9858  1.3868  0.8825
  108OSM   H17G11152   4.321   4.985   8.505 -0.6057 -0.4120 -0.5510
  108OSM   C18F11153   4.212   5.042   8.332  0.3095 -0.5813  0.0662
  108OSM   H18F11154   4.226   5.046   8.222  0.0739 -0.1094  0.0519
  108OSM   H18G11155   4.219   5.149   8.361 -2.0965 -0.3185 -0.1144
  108OSM   H18H11156   4.109   5.005   8.350  0.6174 -1.5477 -0.1239
  109OSM      N11157   2.065   1.707  10.920 -0.2413 -0.3994  0.2885
  109OSM    C1511158   2.140   1.829  10.866 -0.2351  0.6566  0.0561
  109OSM   H15A11159   2.080   1.868  10.785 -1.2156  0.4111  0.6426
  109OSM   H15B11160   2.236   1.805  10.823 -0.4307  0.1947 -0.1340
  109OSM   H15C11161   2.146   1.916  10.930  0.5789  0.9238 -0.3681
  109OSM    C1411162   2.074   1.591  10.818 -0.1607  0.7403 -0.1378
  109OSM   H14A11163   2.085   1.493  10.862  3.0482 -0.6243 -3.5021
  109OSM   H14B11164   2.151   1.596  10.743 -0.1465 -0.4669 -0.2270
  109OSM   H14C11165   1.985   1.587  10.756  0.7947 -1.7825 -1.4956
  109OSM    C1311166   2.133   1.652  11.045  0.5473  1.1153  0.8252
  109OSM   H13A11167   2.174   1.732  11.106  1.2706 -0.1823  2.0975
  109OSM   H13B11168   2.202   1.572  11.023 -1.0503 -0.9121  2.8232
  109OSM   H13C11169   2.057   1.607  11.107  1.4539  0.3973  1.4457
  109OSM    C1211170   1.918   1.743  10.955 -0.6200  0.4285 -0.0749
  109OSM   H12A11171   1.862   1.653  10.976 -0.4602  0.5018  0.6834
  109OSM   H12B11172   1.877   1.788  10.865  0.0372  0.8665 -0.1578
  109OSM    C1111173   1.889   1.838  11.070  0.0236 -0.4432 -0.2206
  109OSM   H11A11174   1.956   1.811  11.154  0.2607  2.1938  0.5207
  109OSM   H11B11175   1.786   1.821  11.109  0.1420  0.2970  0.4446
  109OSM      P11176   1.814   2.056  10.955  0.3629 -0.6608 -0.3783
  109OSM    O1311177   1.695   2.075  11.037 -0.0371 -0.3594 -0.1653
  109OSM    O1411178   1.882   2.178  10.903 -0.2254 -0.2445 -0.6143
  109OSM    O1111179   1.771   1.957  10.830  0.4277 -0.5419 -0.4667
  109OSM    O1211180   1.915   1.977  11.045 -0.4122  0.4992  0.3047
  109OSM    C1S11181   1.782   2.012  10.693  0.5255 -0.4215  0.4402
  109OSM    H1S11182   1.884   2.052  10.671  0.5008 -0.6358 -0.0668
  109OSM    H1T11183   1.705   2.091  10.688  1.3085  0.3512  0.2157
  109OSM     NF11184   1.783   1.935  10.452  0.8491  0.5503  0.1573
  109OSM    HNF11185   1.710   1.921  10.386  0.9316 -0.7167  0.3060
  109OSM    C2S11186   1.749   1.894  10.590 -0.3272 -0.2477 -0.4630
  109OSM    H2S11187   1.816   1.807  10.608 -1.8977 -1.6283 -1.0225
  109OSM    C3S11188   1.595   1.842  10.616  0.6479  0.0592  0.6482
  109OSM    H3S11189   1.535   1.935  10.600  0.9799  0.7813  3.1106
  109OSM     O311190   1.574   1.797  10.750  0.7675 -0.0766 -0.6530
  109OSM    HO311191   1.644   1.844  10.795  1.4284  1.7979 -3.3945
  109OSM    C4S11192   1.558   1.750  10.509  0.6888 -0.1077  0.1385
  109OSM    H4S11193   1.513   1.803  10.424 -0.4785  2.0820  1.9956
  109OSM    C5S11194   1.563   1.616  10.503 -0.2555  0.6325 -0.4088
  109OSM    H5S11195   1.607   1.565  10.590  0.0703 -1.3359 -1.6640
  109OSM    C6S11196   1.525   1.528  10.384  0.0157 -0.2383 -0.2792
  109OSM    H6S11197   1.435   1.467  10.407 -0.6229 -0.4149 -2.9095
  109OSM    H6T11198   1.604   1.453  10.362  0.0947 -0.4174  0.5754
  109OSM    C7S11199   1.477   1.611  10.264  0.1608 -0.5179 -0.6563
  109OSM    H7S11200   1.553   1.690  10.247  1.8615 -1.7364  0.8122
  109OSM    H7T11201   1.381   1.663  10.284  1.2706  1.9501 -1.4032
  109OSM    C8S11202   1.457   1.513  10.142  0.4974  0.0431 -0.6159
  109OSM    H8S11203   1.374   1.444  10.169  0.8225  0.5933  2.1000
  109OSM    H8T11204   1.554   1.459  10.141  1.7290  1.9131  2.4531
  109OSM    C9S11205   1.432   1.573   9.998  0.3671 -0.2284 -0.7023
  109OSM    H9S11206   1.507   1.655   9.999  0.2870 -0.1044 -2.2307
  109OSM    H9T11207   1.332   1.622  10.010 -0.5533 -2.2987  0.6082
  109OSM   C10S11208   1.429   1.484   9.879  0.3149  1.0359 -0.4192
  109OSM   H10S11209   1.342   1.418   9.896  0.0685  0.5040 -3.3170
  109OSM   H10T11210   1.526   1.431   9.889 -0.1792  0.3799  1.2378
  109OSM   C11S11211   1.409   1.568   9.750 -0.0667  0.5718 -0.0654
  109OSM   H11S11212   1.494   1.640   9.748  0.9182 -0.5015  1.3087
  109OSM   H11T11213   1.319   1.632   9.760  0.5176  1.3983  0.0130
  109OSM   C12S11214   1.403   1.492   9.625 -0.4483 -0.3586 -0.0372
  109OSM   H12S11215   1.320   1.419   9.622  0.8696 -1.9943  1.2346
  109OSM   H12T11216   1.494   1.429   9.622  1.4774  2.2462 -0.4594
  109OSM   C13S11217   1.422   1.585   9.507 -0.4791 -0.1320  0.1361
  109OSM   H13S11218   1.512   1.650   9.517 -1.4926  0.9061  4.2770
  109OSM   H13T11219   1.336   1.656   9.503 -0.2196  0.1531 -0.8526
  109OSM   C14S11220   1.432   1.523   9.368  0.2948  0.5553  0.1728
  109OSM   H14S11221   1.349   1.455   9.341  1.4897 -0.4109 -1.1971
  109OSM   H14T11222   1.523   1.460   9.365 -0.2577 -0.2190 -0.9815
  109OSM   C15S11223   1.460   1.631   9.264 -0.1961 -0.0522 -0.6858
  109OSM   H15S11224   1.550   1.691   9.290  2.0933 -2.8765 -1.4897
  109OSM   H15T11225   1.379   1.701   9.235  0.0141  1.7398  2.6500
  109OSM   C16S11226   1.502   1.565   9.135 -0.6161 -0.1145  0.4022
  109OSM   H16S11227   1.414   1.508   9.098 -2.0274  1.3411  1.4073
  109OSM   H16T11228   1.580   1.487   9.148 -1.9900 -1.4521  0.9588
  109OSM   C17S11229   1.550   1.666   9.026 -0.6238  0.5690 -0.3971
  109OSM   H17S11230   1.638   1.718   9.071  0.4901 -2.3466  1.0828
  109OSM   H17T11231   1.467   1.732   8.996 -0.3855  0.4578 -1.3514
  109OSM   C18S11232   1.612   1.602   8.899 -0.9137  0.6657 -0.4858
  109OSM   H18S11233   1.696   1.654   8.847  0.4401 -1.6158 -0.7455
  109OSM   H18T11234   1.532   1.582   8.824 -1.5322  1.0600  0.0661
  109OSM   H18U11235   1.655   1.501   8.918  0.3986  1.4666  1.0909
  109OSM    C1F11236   1.909   1.955  10.411  0.4878  0.2937 -0.3508
  109OSM     OF11237   2.003   1.922  10.488  0.3555  0.2012  0.3236
  109OSM    C2F11238   1.925   1.991  10.268 -0.7166  0.1087 -0.0575
  109OSM    H2F11239   1.859   2.076  10.242 -1.3066  0.4916  2.4027
  109OSM    H2G11240   1.893   1.910  10.200  0.8013  0.6151 -1.4317
  109OSM    C3F11241   2.078   2.002  10.234  1.1645 -0.6894 -0.6013
  109OSM    H3F11242   2.124   1.903  10.251  0.0443 -0.8078  2.4992
  109OSM    H3G11243   2.131   2.073  10.300 -0.0181 -1.5449  1.3749
  109OSM    C4F11244   2.114   2.041  10.089 -0.5296 -0.1496  0.2254
  109OSM    H4F11245   2.225   2.040  10.077 -0.4881 -1.7610  0.5936
  109OSM    H4G11246   2.082   2.147  10.083  0.4361  0.1892  0.8238
  109OSM    C5F11247   2.047   1.961   9.978 -0.4667 -0.1178 -0.7573
  109OSM    H5F11248   1.942   1.936  10.005 -0.1753 -1.6421 -0.9134
  109OSM    H5G11249   2.108   1.869   9.964  3.0952  1.7018  1.2301
  109OSM    C6F11250   2.053   2.021   9.839 -0.2616  0.7126 -0.0513
  109OSM    H6F11251   2.151   2.068   9.819  0.5155 -0.0352  1.8295
  109OSM    H6G11252   1.985   2.109   9.838 -0.1503  0.7961 -1.1016
  109OSM    C7F11253   2.026   1.914   9.732  0.5674 -0.0287 -0.0152
  109OSM    H7F11254   1.922   1.877   9.748 -0.0556  1.9764  0.8558
  109OSM    H7G11255   2.094   1.829   9.756  1.5120  1.3812  2.7701
  109OSM    C8F11256   2.046   1.961   9.586  0.2046 -0.5629 -0.0480
  109OSM    H8F11257   2.040   1.879   9.511 -0.0981 -1.3636  0.8338
  109OSM    H8G11258   2.147   2.008   9.580 -0.6422  1.3161 -0.2964
  109OSM    C9F11259   1.945   2.066   9.547  0.2197 -0.4675 -0.1227
  109OSM    H9F11260   1.938   2.150   9.617  3.7957 -0.1044 -0.0148
  109OSM   C10F11261   1.891   2.074   9.429 -0.4244  1.0025 -0.4325
  109OSM   H10F11262   1.824   2.161   9.416 -0.0985  1.6449  1.6711
  109OSM   C11F11263   1.902   1.978   9.307 -0.7661  0.7106 -0.2225
  109OSM   H11F11264   1.805   1.995   9.255 -1.7285  0.6245  1.4597
  109OSM   H11G11265   1.899   1.873   9.343 -2.9968  1.4406  2.0519
  109OSM   C12F11266   2.010   2.006   9.199 -0.0107 -0.1177  0.5322
  109OSM   H12F11267   2.109   1.989   9.247  1.3608 -0.4873 -2.1914
  109OSM   H12G11268   1.999   2.113   9.173 -1.9053  0.2956  2.7625
  109OSM   C13F11269   2.004   1.913   9.076 -0.2141 -0.1073  0.2114
  109OSM   H13F11270   1.963   1.814   9.106 -1.3209  0.0174 -0.8542
  109OSM   H13G11271   2.102   1.889   9.030 -0.1570  0.3505  0.1005
  109OSM   C14F11272   1.932   1.990   8.954  0.1077  0.7388  0.2115
  109OSM   H14F11273   1.975   2.093   8.951 -1.2956  1.4035  1.2883
  109OSM   H14G11274   1.822   1.995   8.973 -0.3311 -1.8461 -1.2970
  109OSM   C15F11275   1.941   1.919   8.822  0.1118  0.0309  0.6544
  109OSM   H15F11276   1.908   1.813   8.828 -1.3771  0.4833  0.7954
  109OSM   H15G11277   2.043   1.920   8.778  0.0326  1.6408  0.4501
  109OSM   C16F11278   1.843   1.991   8.724  0.6042  0.2878  0.9159
  109OSM   H16F11279   1.876   2.096   8.709  3.1148 -0.8314 -2.5056
  109OSM   H16G11280   1.746   1.997   8.778  0.6509 -2.5037  1.4684
  109OSM   C17F11281   1.833   1.938   8.582 -0.7963  0.2385  0.2795
  109OSM   H17F11282   1.842   1.827   8.582  0.1082  0.2987  0.0727
  109OSM   H17G11283   1.922   1.957   8.518 -1.1677 -0.7518 -0.5640
  109OSM   C18F11284   1.707   1.988   8.507 -0.7126 -0.3487 -0.1199
  109OSM   H18F11285   1.617   1.982   8.572 -2.2616  2.8511 -1.7536
  109OSM   H18G11286   1.693   1.943   8.406 -0.2031 -0.9742  0.0823
  109OSM   H18H11287   1.720   2.098   8.494 -2.1117 -0.2993 -1.3420
  110OSM      N11288   3.321   2.434  11.116  0.1934  0.4139 -0.2593
  110OSM    C1511289   3.438   2.366  11.179  0.0084  0.1008 -1.2291
  110OSM   H15A11290   3.473   2.424  11.263  2.8984 -2.0986 -0.7526
  110OSM   H15B11291   3.520   2.343  11.112  1.5738 -0.4595  0.7568
  110OSM   H15C11292   3.393   2.275  11.215 -1.2470  1.5638  1.1419
  110OSM    C1411293   3.217   2.441  11.224 -0.0946  0.2551  0.6482
  110OSM   H14A11294   3.171   2.349  11.258  2.3238 -1.2805  0.0415
  110OSM   H14B11295   3.136   2.507  11.197 -0.8865 -0.1266  1.9728
  110OSM   H14C11296   3.258   2.493  11.309  1.5544  0.2899 -0.1217
  110OSM    C1311297   3.366   2.572  11.077  0.4867  0.2206  0.5758
  110OSM   H13A11298   3.287   2.628  11.029 -0.4013 -0.9019  0.6849
  110OSM   H13B11299   3.454   2.575  11.014  0.0430 -0.2509 -0.0732
  110OSM   H13C11300   3.396   2.627  11.165  0.7884 -0.0229  0.6288
  110OSM    C1211301   3.281   2.349  10.997 -0.0150 -0.3596  0.2289
  110OSM   H12A11302   3.179   2.377  10.977 -0.0691  0.3884  1.4688
  110OSM   H12B11303   3.269   2.246  11.029 -0.3200 -0.0217  1.2412
  110OSM    C1111304   3.385   2.342  10.876  0.1276 -0.2870 -0.3510
  110OSM   H11A11305   3.412   2.447  10.850  0.1892 -0.2301 -0.0640
  110OSM   H11B11306   3.335   2.292  10.790 -1.8333  1.4341 -0.2779
  110OSM      P11307   3.499   2.117  10.946  0.1228  0.1334 -0.3269
  110OSM    O1311308   3.615   2.090  11.028 -0.8062 -0.3104 -0.6540
  110OSM    O1411309   3.365   2.072  10.990 -0.2077  0.0663  0.0677
  110OSM    O1111310   3.516   2.056  10.801  0.0306  0.0665 -0.5677
  110OSM    O1211311   3.501   2.268  10.914 -0.5229 -0.0205 -0.1638
  110OSM    C1S11312   3.632   2.086  10.724 -0.3748  0.1673 -0.3698
  110OSM    H1S11313   3.723   2.051  10.777 -0.1095  0.9844 -0.2716
  110OSM    H1T11314   3.642   2.196  10.721  0.3116  0.1284  0.2449
  110OSM     NF11315   3.741   2.049  10.502  0.7187  0.4243 -0.3712
  110OSM    HNF11316   3.759   2.137  10.458 -4.0254  2.1992  0.6146
  110OSM    C2S11317   3.613   2.032  10.575  0.4480 -0.3259 -0.0007
  110OSM    H2S11318   3.590   1.923  10.576  1.7647 -0.6208 -0.2508
  110OSM    C3S11319   3.495   2.107  10.497  0.2157  0.3350 -0.4522
  110OSM    H3S11320   3.527   2.211  10.474 -1.0123  1.0328  0.7824
  110OSM     O311321   3.384   2.130  10.586  0.0988 -0.6520  0.0795
  110OSM    HO311322   3.431   2.097  10.664 -0.0745 -1.4953 -0.1578
  110OSM    C4S11323   3.457   2.024  10.374 -0.1083  0.1801 -0.0405
  110OSM    H4S11324   3.523   2.033  10.287  1.2020 -4.9219  0.0969
  110OSM    C5S11325   3.358   1.928  10.366 -0.2069  0.3118 -0.3300
  110OSM    H5S11326   3.291   1.919  10.453  1.9561 -0.9183  1.3045
  110OSM    C6S11327   3.323   1.836  10.250 -0.0178 -0.0563 -0.3983
  110OSM    H6S11328   3.215   1.853  10.228 -1.2965 -4.0174  1.6732
  110OSM    H6T11329   3.333   1.728  10.275 -2.1931 -0.7815 -2.3230
  110OSM    C7S11330   3.406   1.854  10.123 -0.4443 -0.1103  0.7349
  110OSM    H7S11331   3.514   1.843  10.145 -0.3635 -1.8055 -0.3466
  110OSM    H7T11332   3.395   1.962  10.096  0.7295  0.2242  1.5261
  110OSM    C8S11333   3.370   1.769  10.002  1.1241 -0.3094 -0.1669
  110OSM    H8S11334   3.263   1.784   9.977  1.7092  2.1104 -1.5865
  110OSM    H8T11335   3.384   1.664  10.035 -1.4856 -0.1467  1.8090
  110OSM    C9S11336   3.464   1.799   9.884 -0.1275 -0.3190 -0.5892
  110OSM    H9S11337   3.561   1.751   9.911 -1.1421 -2.1331 -0.0168
  110OSM    H9T11338   3.479   1.909   9.874  2.2467 -0.4317  0.9143
  110OSM   C10S11339   3.415   1.744   9.751  0.0704 -0.5595  0.5087
  110OSM   H10S11340   3.315   1.790   9.741  0.3873  0.2394  0.8860
  110OSM   H10T11341   3.411   1.633   9.749  2.0713 -0.7109  1.7032
  110OSM   C11S11342   3.506   1.785   9.637  0.1056 -0.2175  1.0080
  110OSM   H11S11343   3.614   1.767   9.658 -0.5023 -2.5908  2.5769
  110OSM   H11T11344   3.495   1.893   9.613 -1.0727 -0.4130  0.5831
  110OSM   C12S11345   3.481   1.700   9.512 -0.3403 -0.9508 -0.3024
  110OSM   H12S11346   3.505   1.594   9.534  1.1851 -0.7726 -0.9916
  110OSM   H12T11347   3.546   1.735   9.429 -0.9993 -0.8003 -0.7692
  110OSM   C13S11348   3.336   1.705   9.452 -0.0774  0.3131  0.4063
  110OSM   H13S11349   3.301   1.810   9.453  1.4513  0.8580  1.4938
  110OSM   H13T11350   3.267   1.645   9.515 -0.8078 -2.2993 -2.5650
  110OSM   C14S11351   3.332   1.658   9.304 -0.2188  0.2483 -0.8749
  110OSM   H14S11352   3.382   1.559   9.292 -2.4181 -1.3951  1.9829
  110OSM   H14T11353   3.401   1.732   9.259 -0.4743  1.5633  0.8083
  110OSM   C15S11354   3.196   1.659   9.237 -0.4179 -0.4314 -0.5371
  110OSM   H15S11355   3.146   1.754   9.267  1.4724  0.8982 -1.3617
  110OSM   H15T11356   3.130   1.578   9.274 -0.2499  0.7559  2.6248
  110OSM   C16S11357   3.224   1.661   9.086 -0.1478  1.3449 -0.5527
  110OSM   H16S11358   3.132   1.627   9.033 -0.2641 -1.1710  1.0814
  110OSM   H16T11359   3.291   1.574   9.066  0.1749  1.1660  1.1793
  110OSM   C17S11360   3.284   1.784   9.023 -0.4300 -0.0181  0.5250
  110OSM   H17S11361   3.389   1.793   9.058 -0.0272  1.7688 -1.0395
  110OSM   H17T11362   3.234   1.874   9.063  3.1443  2.1650  0.5578
  110OSM   C18S11363   3.291   1.781   8.870 -0.0435  0.0762  0.2290
  110OSM   H18S11364   3.333   1.870   8.820  2.4700 -0.8685  0.5223
  110OSM   H18T11365   3.187   1.769   8.832  0.0826  0.4382 -0.2329
  110OSM   H18U11366   3.352   1.692   8.842 -1.2170 -0.9507  0.8230
  110OSM    C1F11367   3.839   1.957  10.536  0.1977 -0.0778  0.9670
  110OSM     OF11368   3.812   1.859  10.603  0.4685 -0.5609  0.1551
  110OSM    C2F11369   3.983   1.984  10.493  0.8630  0.3099  0.0916
  110OSM    H2F11370   4.053   2.012  10.575  1.7143 -1.7875  0.1205
  110OSM    H2G11371   3.969   2.075  10.430 -1.9305  0.4303  0.7695
  110OSM    C3F11372   4.031   1.868  10.398  0.0979  0.6002  0.4008
  110OSM    H3F11373   4.034   1.771  10.451 -0.8618  0.4568  0.2223
  110OSM    H3G11374   4.135   1.887  10.365 -0.7379 -0.7926 -3.5670
  110OSM    C4F11375   3.947   1.843  10.269 -0.5289 -0.4236  0.4702
  110OSM    H4F11376   3.922   1.947  10.240 -0.7725 -0.2114  1.4086
  110OSM    H4G11377   3.855   1.784  10.291 -1.0853  0.2012 -0.1652
  110OSM    C5F11378   4.032   1.767  10.161  0.1570  0.4630  0.3576
  110OSM    H5F11379   4.098   1.702  10.223  2.3876  1.2667 -1.0620
  110OSM    H5G11380   4.093   1.841  10.106 -3.0071  1.1446 -2.5806
  110OSM    C6F11381   3.944   1.680  10.069  0.5807  0.9155 -0.2521
  110OSM    H6F11382   3.873   1.632  10.140 -0.0169 -0.9324 -2.0272
  110OSM    H6G11383   4.009   1.608  10.015  2.0718  2.5100 -0.6690
  110OSM    C7F11384   3.870   1.758   9.956 -0.3802  0.2107  0.3101
  110OSM    H7F11385   3.798   1.821  10.013 -0.7703  0.4016 -0.3845
  110OSM    H7G11386   3.804   1.702   9.887 -0.7315  2.1895 -1.0678
  110OSM    C8F11387   3.968   1.826   9.866  0.3987 -0.0688 -0.4401
  110OSM    H8F11388   4.040   1.759   9.815  0.5770  0.5953 -1.0800
  110OSM    H8G11389   4.026   1.896   9.929  1.4895 -0.0872 -1.3985
  110OSM    C9F11390   3.895   1.922   9.765 -0.0075  0.3957 -1.4045
  110OSM    H9F11391   3.869   2.021   9.804 -0.5153 -0.7443  1.3884
  110OSM   C10F11392   3.867   1.894   9.639 -0.3315 -0.0501  0.4043
  110OSM   H10F11393   3.816   1.964   9.573  0.9917 -2.2876 -3.3144
  110OSM   C11F11394   3.902   1.762   9.570  0.3017  0.6290  0.7928
  110OSM   H11F11395   3.842   1.676   9.607  0.6808 -0.3357 -0.7218
  110OSM   H11G11396   4.010   1.738   9.569  0.3100  0.0535 -3.3601
  110OSM   C12F11397   3.854   1.776   9.421 -0.0119 -0.6079 -0.4730
  110OSM   H12F11398   3.902   1.859   9.365  0.9671 -0.3856  0.6582
  110OSM   H12G11399   3.745   1.798   9.417  0.0313 -0.2343  0.3053
  110OSM   C13F11400   3.877   1.655   9.329  0.5519  0.6890  0.6747
  110OSM   H13F11401   3.817   1.574   9.376  0.8108  0.3397  0.4054
  110OSM   H13G11402   3.985   1.628   9.327  0.4125 -0.7961  4.6457
  110OSM   C14F11403   3.788   1.657   9.200  0.5033 -0.6384  0.3153
  110OSM   H14F11404   3.833   1.721   9.121 -0.0024 -1.0242 -0.2984
  110OSM   H14G11405   3.684   1.678   9.233  0.4351  0.0844 -0.3182
  110OSM   C15F11406   3.769   1.514   9.136  0.0561 -0.3441 -0.5199
  110OSM   H15F11407   3.765   1.442   9.220  0.4731  2.7799  2.3828
  110OSM   H15G11408   3.862   1.489   9.079  0.1306 -1.4729  0.0636
  110OSM   C16F11409   3.646   1.509   9.040  0.1416 -0.0666  0.3111
  110OSM   H16F11410   3.650   1.607   8.987 -0.6814  0.2710  0.8480
  110OSM   H16G11411   3.555   1.511   9.103  0.3231 -1.5916  0.6446
  110OSM   C17F11412   3.656   1.388   8.943  0.6491  0.2719 -0.1051
  110OSM   H17F11413   3.549   1.373   8.917  0.0989  2.9414  0.2841
  110OSM   H17G11414   3.704   1.305   9.000 -0.4505 -2.1025 -2.4142
  110OSM   C18F11415   3.731   1.414   8.814 -0.1126  0.1547 -0.2808
  110OSM   H18F11416   3.837   1.428   8.845 -0.2477  1.1847 -0.2457
  110OSM   H18G11417   3.699   1.504   8.757  2.3326  1.8713  0.8922
  110OSM   H18H11418   3.731   1.330   8.741 -1.6276 -0.2827  0.1840
  111OSM      N11419   5.497   6.091  10.716 -0.1237 -0.5722 -0.0594
  111OSM    C1511420   5.603   6.180  10.780  0.3105  0.2036 -0.5079
  111OSM   H15A11421   5.658   6.111  10.842 -0.7305  1.8845  2.5051
  111OSM   H15B11422   5.560   6.259  10.839 -0.0730 -0.6808  0.4282
  111OSM   H15C11423   5.668   6.229  10.709 -0.1650  0.2787 -0.8987
  111OSM    C1411424   5.437   6.175  10.604 -0.3523 -0.1595  0.1541
  111OSM   H14A11425   5.510   6.209  10.533 -0.3691 -0.4314  0.0066
  111OSM   H14B11426   5.387   6.262  10.643 -0.7850 -1.0450  1.6602
  111OSM   H14C11427   5.365   6.123  10.543  0.0340 -0.5296  0.0085
  111OSM    C1311428   5.571   5.979  10.651  0.3476 -0.0145  0.0682
  111OSM   H13A11429   5.507   5.912  10.596  1.8197 -1.5556  0.1481
  111OSM   H13B11430   5.616   5.906  10.717 -1.0566 -0.4073  0.6258
  111OSM   H13C11431   5.648   6.016  10.585  0.4900  0.1968  0.3450
  111OSM    C1211432   5.390   6.063  10.812  0.0960  0.7207  0.3791
  111OSM   H12A11433   5.355   6.153  10.860  1.8183  0.9511  1.2800
  111OSM   H12B11434   5.434   5.995  10.884  0.5114  0.0502 -0.4896
  111OSM    C1111435   5.268   5.986  10.747 -0.0093 -0.0403 -0.1003
  111OSM   H11A11436   5.212   6.052  10.678  1.2074  0.8113 -0.3077
  111OSM   H11B11437   5.216   5.971  10.844 -0.3314  0.0657 -0.2571
  111OSM      P11438   5.202   5.757  10.627 -0.0908  0.1614  0.7865
  111OSM    O1311439   5.277   5.643  10.579  0.4815 -0.0039 -0.2931
  111OSM    O1411440   5.092   5.725  10.718  0.4385 -0.2408 -0.7359
  111OSM    O1111441   5.147   5.838  10.502 -0.2223 -0.0593  0.5340
  111OSM    O1211442   5.303   5.860  10.688 -0.5210  0.4646  0.2929
  111OSM    C1S11443   5.243   5.910  10.417 -0.5589  0.2114 -0.2466
  111OSM    H1S11444   5.350   5.894  10.444 -0.4735 -0.2647 -0.8634
  111OSM    H1T11445   5.220   6.019  10.418 -0.6070  0.2098 -0.8752
  111OSM     NF11446   5.352   5.911  10.185 -0.0981  0.5904 -0.1471
  111OSM    HNF11447   5.342   6.007  10.160  2.6056  1.6565  2.1878
  111OSM    C2S11448   5.238   5.868  10.264 -0.0453 -0.9063 -0.3375
  111OSM    H2S11449   5.239   5.757  10.272 -0.0152 -0.7875  1.9336
  111OSM    C3S11450   5.098   5.902  10.206  0.0955 -0.3542  0.0494
  111OSM    H3S11451   5.092   6.013  10.200  1.1760 -0.3237 -0.7503
  111OSM     O311452   4.975   5.858  10.274 -0.1299 -0.3056 -0.2886
  111OSM    HO311453   5.004   5.837  10.363  2.1650  2.0197 -0.3686
  111OSM    C4S11454   5.096   5.852  10.064  0.4985  0.3547  0.4163
  111OSM    H4S11455   5.153   5.921  10.001  1.6531 -0.9453 -0.0049
  111OSM    C5S11456   5.037   5.738  10.018 -0.0325  0.3986 -0.9622
  111OSM    H5S11457   4.989   5.668  10.088  0.4923 -0.0540 -1.0549
  111OSM    C6S11458   5.025   5.692   9.870 -0.3532 -0.7290  0.0663
  111OSM    H6S11459   4.918   5.682   9.839 -0.7666  0.1114  1.1570
  111OSM    H6T11460   5.066   5.588   9.870  0.3231 -0.5126 -1.8671
  111OSM    C7S11461   5.091   5.771   9.758  0.0631 -0.4588  0.1824
  111OSM    H7S11462   5.199   5.765   9.782 -0.1646 -0.8655  1.1832
  111OSM    H7T11463   5.059   5.877   9.775 -0.8798 -0.2447 -2.5525
  111OSM    C8S11464   5.050   5.735   9.610  0.3333  0.0098  0.3228
  111OSM    H8S11465   4.942   5.714   9.596  0.3973 -0.2922  0.2659
  111OSM    H8T11466   5.105   5.652   9.561 -0.1106 -0.2720  0.2934
  111OSM    C9S11467   5.078   5.850   9.516 -0.5343  0.0620 -1.1812
  111OSM    H9S11468   5.180   5.890   9.531  0.5833 -2.7204 -0.8521
  111OSM    H9T11469   5.016   5.931   9.561  2.5625  0.2541  3.3926
  111OSM   C10S11470   5.048   5.833   9.362 -0.2964 -0.5118  0.5659
  111OSM   H10S11471   4.939   5.845   9.340  0.1023  1.2536 -0.7424
  111OSM   H10T11472   5.081   5.734   9.326  1.9909  0.9028 -1.5310
  111OSM   C11S11473   5.113   5.937   9.272  0.1658  0.2407 -0.1324
  111OSM   H11S11474   5.220   5.929   9.301  0.3676  2.0661 -0.2295
  111OSM   H11T11475   5.072   6.031   9.317 -1.1009 -0.5481  0.4442
  111OSM   C12S11476   5.084   5.904   9.128  0.6186 -0.3129  0.8868
  111OSM   H12S11477   4.981   5.918   9.090  1.1232 -2.8323 -1.7457
  111OSM   H12T11478   5.080   5.793   9.123  0.6848 -0.2938  0.3820
  111OSM   C13S11479   5.195   5.947   9.032 -0.0887 -0.3099  0.1893
  111OSM   H13S11480   5.294   5.932   9.080  1.0399  0.5342 -1.7535
  111OSM   H13T11481   5.184   6.055   9.006 -1.0660 -0.9797 -2.5993
  111OSM   C14S11482   5.196   5.865   8.904  0.2863  0.2620  0.0313
  111OSM   H14S11483   5.108   5.879   8.837  0.8445  0.0957 -0.7443
  111OSM   H14T11484   5.204   5.759   8.935  1.4102  0.6804  1.2722
  111OSM   C15S11485   5.311   5.895   8.813  0.1102 -0.2197 -0.6108
  111OSM   H15S11486   5.391   5.902   8.890 -1.5160 -0.8334  1.2225
  111OSM   H15T11487   5.306   5.992   8.760 -1.5231  0.6155  0.9721
  111OSM   C16S11488   5.341   5.779   8.718 -0.1269 -0.1275 -0.2085
  111OSM   H16S11489   5.358   5.679   8.762  1.4793 -0.3686 -1.3019
  111OSM   H16T11490   5.438   5.805   8.671  0.8348 -1.3743  1.0162
  111OSM   C17S11491   5.233   5.754   8.610  0.2826 -0.1648 -0.9341
  111OSM   H17S11492   5.209   5.847   8.555 -1.3525  0.9326  1.4583
  111OSM   H17T11493   5.139   5.718   8.656  0.7403 -0.9475 -0.5841
  111OSM   C18S11494   5.284   5.640   8.519  0.6797  0.4454  0.2764
  111OSM   H18S11495   5.227   5.619   8.426 -0.5504 -0.8248  1.2801
  111OSM   H18T11496   5.304   5.543   8.569 -1.4109  0.2628  0.8548
  111OSM   H18U11497   5.387   5.666   8.485  0.8794 -0.0757  0.4690
  111OSM    C1F11498   5.475   5.855  10.209  1.0593  0.0726 -0.1995
  111OSM     OF11499   5.486   5.758  10.290  0.2361 -0.2164  0.3302
  111OSM    C2F11500   5.589   5.929  10.147 -1.3193  0.4787  0.5865
  111OSM    H2F11501   5.637   5.988  10.228  1.3063 -2.0514  1.0285
  111OSM    H2G11502   5.551   6.005  10.075  0.3449  1.4996  0.7151
  111OSM    C3F11503   5.684   5.837  10.072 -0.3090  0.0119 -0.4803
  111OSM    H3F11504   5.734   5.773  10.149 -2.9387  0.3705  1.6831
  111OSM    H3G11505   5.757   5.900  10.017 -1.0452 -0.1039 -1.6152
  111OSM    C4F11506   5.635   5.748   9.964  0.5407 -0.0973  0.4677
  111OSM    H4F11507   5.568   5.667  10.001 -0.7380 -0.2605 -2.0345
  111OSM    H4G11508   5.720   5.698   9.913 -0.3067  0.0412 -1.1276
  111OSM    C5F11509   5.554   5.819   9.856 -0.1472 -0.4622 -0.4925
  111OSM    H5F11510   5.598   5.915   9.820  3.0193 -1.8674 -0.7067
  111OSM    H5G11511   5.451   5.824   9.897  0.7016 -1.2480  1.8911
  111OSM    C6F11512   5.540   5.730   9.731 -0.3909 -1.1909  0.2764
  111OSM    H6F11513   5.503   5.628   9.754  0.1027 -1.8441 -1.6020
  111OSM    H6G11514   5.643   5.723   9.691 -0.7996  1.2996 -1.5035
  111OSM    C7F11515   5.452   5.775   9.619  0.1245 -0.3887 -0.1908
  111OSM    H7F11516   5.480   5.867   9.564 -2.1335  1.3343  1.3340
  111OSM    H7G11517   5.350   5.805   9.653 -0.2558 -0.6831 -1.0369
  111OSM    C8F11518   5.411   5.660   9.529 -0.5347  0.6831  0.2107
  111OSM    H8F11519   5.320   5.679   9.468 -0.2961 -1.4716 -0.9168
  111OSM    H8G11520   5.391   5.577   9.601  0.4507  0.2429 -0.0125
  111OSM    C9F11521   5.528   5.630   9.438  0.4592  0.6785  0.4644
  111OSM    H9F11522   5.614   5.588   9.491 -1.2418  2.1860  4.8710
  111OSM   C10F11523   5.529   5.629   9.303  0.1725 -0.7047  0.5373
  111OSM   H10F11524   5.625   5.604   9.254  0.4364 -0.0341  0.7067
  111OSM   C11F11525   5.409   5.675   9.218  0.4048  0.0221 -0.2319
  111OSM   H11F11526   5.435   5.754   9.145  0.1035  0.2620 -0.0821
  111OSM   H11G11527   5.330   5.722   9.281 -0.2929 -0.2523 -0.8828
  111OSM   C12F11528   5.341   5.559   9.139  0.3775  0.2186  0.0850
  111OSM   H12F11529   5.246   5.584   9.087 -1.1529 -2.5489  1.3380
  111OSM   H12G11530   5.316   5.473   9.204 -1.1264  1.5353  1.3161
  111OSM   C13F11531   5.449   5.501   9.047 -0.2204  0.0167  0.4269
  111OSM   H13F11532   5.541   5.473   9.101  0.0632 -1.5659 -0.8040
  111OSM   H13G11533   5.487   5.579   8.977  1.1721 -0.3486  0.7474
  111OSM   C14F11534   5.394   5.376   8.970  0.0257  0.2617  0.1395
  111OSM   H14F11535   5.286   5.371   8.995  0.3574 -1.8003  1.4438
  111OSM   H14G11536   5.435   5.285   9.019  1.0410  1.4812  1.6691
  111OSM   C15F11537   5.400   5.379   8.818 -0.5056  0.3055  0.2992
  111OSM   H15F11538   5.503   5.398   8.781 -0.9828 -0.2974 -1.4045
  111OSM   H15G11539   5.343   5.461   8.770 -0.1982 -1.1823 -2.8270
  111OSM   C16F11540   5.369   5.240   8.749 -0.0836 -0.5281 -0.3295
  111OSM   H16F11541   5.302   5.184   8.818 -1.8589  2.7197  0.8074
  111OSM   H16G11542   5.455   5.170   8.742  0.8809  0.5021  0.9336
  111OSM   C17F11543   5.294   5.256   8.619 -0.5401  0.2712  0.2982
  111OSM   H17F11544   5.364   5.310   8.552  2.9407 -0.8045  2.7955
  111OSM   H17G11545   5.202   5.314   8.640  0.3234  0.8149  2.9495
  111OSM   C18F11546   5.263   5.122   8.547  0.3137 -0.1998 -0.0861
  111OSM   H18F11547   5.361   5.082   8.511  0.9924  1.7271 -0.4725
  111OSM   H18G11548   5.189   5.128   8.464  1.0441  0.3637 -0.7241
  111OSM   H18H11549   5.222   5.045   8.615 -0.5285 -0.2792 -0.6685
  112OSM      N11550   4.375   5.108  10.678  0.6286  0.1908 -0.4557
  112OSM    C1511551   4.474   5.006  10.733 -0.2595  0.1651 -0.2039
  112OSM   H15A11552   4.513   4.942  10.655  1.7184 -0.9681  1.6120
  112OSM   H15B11553   4.431   4.945  10.810  0.2364  2.9989  2.5360
  112OSM   H15C11554   4.555   5.068  10.770 -0.8330  1.6811 -1.3435
  112OSM    C1411555   4.334   5.203  10.782  0.7497  0.7231  0.0198
  112OSM   H14A11556   4.262   5.276  10.747 -0.2595  0.1009  0.7254
  112OSM   H14B11557   4.424   5.260  10.801  1.3653  0.5032 -1.9857
  112OSM   H14C11558   4.298   5.158  10.873 -0.5860  2.9284  0.6728
  112OSM    C1311559   4.451   5.170  10.573 -0.5899  0.0982 -0.2496
  112OSM   H13A11560   4.386   5.240  10.523 -0.4703  0.5414  0.2046
  112OSM   H13B11561   4.489   5.097  10.503  1.1162  0.6991 -0.0007
  112OSM   H13C11562   4.536   5.224  10.613 -1.8103  0.2150  2.3866
  112OSM    C1211563   4.246   5.030  10.633  0.0564 -1.3954  0.6188
  112OSM   H12A11564   4.196   4.984  10.716 -0.6279 -1.3792  0.2240
  112OSM   H12B11565   4.289   4.949  10.576  2.8500  0.1324  0.3450
  112OSM    C1111566   4.153   5.100  10.528 -0.1241 -0.0953 -0.4146
  112OSM   H11A11567   4.110   5.193  10.572  0.8375  0.7353 -1.1583
  112OSM   H11B11568   4.074   5.023  10.522  1.1597 -1.6105  1.0246
  112OSM      P11569   4.247   5.025  10.290  0.7176  0.0396  0.0556
  112OSM    O1311570   4.291   5.104  10.173  0.0360  0.6703  0.0114
  112OSM    O1411571   4.347   4.936  10.338 -0.4156 -0.0468 -0.3817
  112OSM    O1111572   4.105   4.959  10.268  0.5517 -0.1259 -0.3830
  112OSM    O1211573   4.222   5.132  10.404  0.1795  0.3719 -0.3840
  112OSM    C1S11574   4.027   5.011  10.158  0.3715  0.0215  0.4704
  112OSM    H1S11575   4.078   5.008  10.060  0.8597  2.8622  0.5545
  112OSM    H1T11576   3.993   5.115  10.176  0.8932  0.0209  1.5397
  112OSM     NF11577   3.821   4.975  10.021 -0.0912 -0.3810 -0.0734
  112OSM    HNF11578   3.730   5.014  10.034  0.0400 -0.2142  0.3798
  112OSM    C2S11579   3.897   4.929  10.135  0.9254  0.8281 -0.0227
  112OSM    H2S11580   3.932   4.830  10.101 -0.1954  1.2642 -2.6364
  112OSM    C3S11581   3.808   4.906  10.265 -0.7262 -0.0968 -0.0106
  112OSM    H3S11582   3.758   5.002  10.290  2.3552  1.5599  0.3309
  112OSM     O311583   3.885   4.885  10.387 -0.3016  0.8371  0.6551
  112OSM    HO311584   3.974   4.896  10.353 -0.0053 -0.6763  0.8799
  112OSM    C4S11585   3.713   4.795  10.240  0.3119  0.1109  0.2116
  112OSM    H4S11586   3.612   4.835  10.227  0.6030  0.7675 -0.0654
  112OSM    C5S11587   3.731   4.658  10.237 -0.4875 -0.6106 -0.8768
  112OSM    H5S11588   3.832   4.620  10.257 -1.3556 -2.3527  0.5053
  112OSM    C6S11589   3.623   4.558  10.203  0.6452 -0.1509  0.9888
  112OSM    H6S11590   3.524   4.608  10.205  0.4639 -0.3843 -0.5109
  112OSM    H6T11591   3.620   4.471  10.272 -3.2033 -1.4240 -0.4867
  112OSM    C7S11592   3.651   4.515  10.060  0.4366  0.5778 -0.1229
  112OSM    H7S11593   3.575   4.438  10.036 -1.2926  2.1890 -0.0450
  112OSM    H7T11594   3.755   4.476  10.052  0.8950  1.4528  1.2596
  112OSM    C8S11595   3.625   4.617   9.952  0.0382 -0.3340 -0.4475
  112OSM    H8S11596   3.705   4.694   9.950  0.4754 -0.7211  0.7426
  112OSM    H8T11597   3.528   4.666   9.976 -0.7445 -2.0036 -0.0141
  112OSM    C9S11598   3.599   4.549   9.806  0.1324 -0.1201 -0.8000
  112OSM    H9S11599   3.519   4.473   9.822  0.2664  0.2200  2.1166
  112OSM    H9T11600   3.693   4.495   9.780  2.0671  2.3864  0.5915
  112OSM   C10S11601   3.563   4.654   9.706  0.5054  0.2393  0.2664
  112OSM   H10S11602   3.645   4.690   9.641  0.9044  2.1009  1.7110
  112OSM   H10T11603   3.554   4.749   9.762  0.8607  1.7451 -2.0729
  112OSM   C11S11604   3.446   4.608   9.620 -0.4404 -0.4836 -0.1818
  112OSM   H11S11605   3.390   4.697   9.584  0.7896  0.6464  0.5729
  112OSM   H11T11606   3.388   4.535   9.679 -0.9135 -0.1659 -0.2523
  112OSM   C12S11607   3.486   4.529   9.491 -0.1019 -1.1266 -0.5923
  112OSM   H12S11608   3.400   4.464   9.466 -1.3322  0.1598  0.1365
  112OSM   H12T11609   3.568   4.458   9.514  1.8202  1.4523  1.0826
  112OSM   C13S11610   3.533   4.627   9.381 -0.0148  0.3223  0.3049
  112OSM   H13S11611   3.611   4.696   9.418 -0.3377 -0.6155  2.9552
  112OSM   H13T11612   3.442   4.684   9.352 -0.2949  0.2744  1.0679
  112OSM   C14S11613   3.580   4.552   9.255  0.2978 -0.1584  0.2369
  112OSM   H14S11614   3.650   4.471   9.284 -1.6334 -0.9743  3.0429
  112OSM   H14T11615   3.643   4.622   9.196  1.2858 -2.2734 -1.3806
  112OSM   C15S11616   3.469   4.486   9.169 -0.3184  0.2233 -0.3412
  112OSM   H15S11617   3.400   4.570   9.145 -1.2441 -0.2492  0.5601
  112OSM   H15T11618   3.413   4.414   9.232  2.1242 -2.8251 -1.4099
  112OSM   C16S11619   3.523   4.422   9.042 -0.3133  0.3321  0.4790
  112OSM   H16S11620   3.590   4.493   8.987 -1.7856  1.5457  0.1855
  112OSM   H16T11621   3.440   4.407   8.970  0.5068 -0.9800 -0.2394
  112OSM   C17S11622   3.591   4.288   9.063 -0.4611  0.3782 -0.5762
  112OSM   H17S11623   3.537   4.214   9.126  2.5133  0.5467  2.4213
  112OSM   H17T11624   3.677   4.316   9.127 -1.1932  0.9641  0.1767
  112OSM   C18S11625   3.619   4.218   8.931 -0.3596 -0.6493  0.1058
  112OSM   H18S11626   3.645   4.112   8.948  1.5154 -0.1400  0.6655
  112OSM   H18T11627   3.702   4.260   8.870 -0.5755 -1.4746 -0.7780
  112OSM   H18U11628   3.531   4.222   8.864  0.5277 -0.7648 -1.0817
  112OSM    C1F11629   3.868   4.963   9.899  0.4690  0.3094 -0.4976
  112OSM     OF11630   3.967   4.905   9.876 -0.0861 -0.4111 -0.1347
  112OSM    C2F11631   3.781   5.024   9.789  0.8468 -0.2551 -0.0275
  112OSM    H2F11632   3.756   5.126   9.825  3.1832 -0.4741  2.5825
  112OSM    H2G11633   3.679   4.982   9.780  1.1985 -0.9054 -1.2347
  112OSM    C3F11634   3.846   5.019   9.647 -0.0229  0.1303  0.1003
  112OSM    H3F11635   3.879   4.917   9.619 -0.3925 -0.3293  1.3024
  112OSM    H3G11636   3.937   5.082   9.653 -0.3342  0.5335  0.7227
  112OSM    C4F11637   3.756   5.068   9.528 -0.6643  0.2055 -0.3314
  112OSM    H4F11638   3.701   5.161   9.555 -2.2133 -1.5772  3.4149
  112OSM    H4G11639   3.676   4.993   9.513 -0.3126 -0.0852 -0.7793
  112OSM    C5F11640   3.832   5.086   9.395 -0.2320 -0.2813  0.0035
  112OSM    H5F11641   3.929   5.136   9.413  0.8997 -2.4296  0.1755
  112OSM    H5G11642   3.768   5.152   9.331  0.7356  0.0232 -0.6647
  112OSM    C6F11643   3.847   4.957   9.313  0.1311  0.1555 -0.4523
  112OSM    H6F11644   3.753   4.901   9.297 -1.0104  0.8166  3.1876
  112OSM    H6G11645   3.929   4.894   9.352  0.0713 -0.7888 -1.7796
  112OSM    C7F11646   3.896   4.991   9.176 -0.5613 -0.0125 -0.0100
  112OSM    H7F11647   3.998   5.036   9.187 -0.2461 -0.3891 -1.2622
  112OSM    H7G11648   3.828   5.071   9.140 -1.6951 -2.0337 -2.7645
  112OSM    C8F11649   3.915   4.874   9.074 -0.4456 -0.3430 -0.0372
  112OSM    H8F11650   3.971   4.799   9.133  1.4921  0.2547 -0.9957
  112OSM    H8G11651   3.983   4.910   8.993  0.3688 -0.6465  0.4988
  112OSM    C9F11652   3.794   4.805   9.012 -0.2493 -0.2078  1.2187
  112OSM    H9F11653   3.701   4.795   9.070 -0.3318 -1.9254  0.8582
  112OSM   C10F11654   3.788   4.755   8.884 -0.5587  0.1538  0.9731
  112OSM   H10F11655   3.701   4.694   8.856 -0.4846  0.3069  0.3986
  112OSM   C11F11656   3.904   4.757   8.783 -0.6150 -0.1327 -0.3956
  112OSM   H11F11657   3.996   4.708   8.823 -0.7836 -1.4306 -1.5173
  112OSM   H11G11658   3.935   4.861   8.760  2.0465 -0.9070 -0.6830
  112OSM   C12F11659   3.880   4.684   8.647  0.2713  0.0615  0.0178
  112OSM   H12F11660   3.951   4.719   8.570 -0.0510  1.2065  0.2105
  112OSM   H12G11661   3.773   4.672   8.621  0.7313  2.2706 -3.5649
  112OSM   C13F11662   3.921   4.537   8.656  0.6934 -0.1367 -0.6319
  112OSM   H13F11663   3.867   4.473   8.729 -0.4390  0.3551 -1.0085
  112OSM   H13G11664   4.028   4.527   8.682  0.8108 -0.5637 -1.2631
  112OSM   C14F11665   3.892   4.457   8.523  0.4484  0.0945 -0.9602
  112OSM   H14F11666   3.966   4.490   8.447  1.1830 -0.2339 -0.3994
  112OSM   H14G11667   3.790   4.484   8.488 -0.1572 -0.0287  0.6447
  112OSM   C15F11668   3.908   4.299   8.526  0.2242  0.3176 -0.2245
  112OSM   H15F11669   3.832   4.254   8.593  1.3025 -1.9664 -0.3995
  112OSM   H15G11670   4.009   4.268   8.562  0.0707 -0.3244 -0.3224
  112OSM   C16F11671   3.877   4.225   8.396 -0.0348  0.1938 -0.3757
  112OSM   H16F11672   3.933   4.259   8.306 -0.5355 -0.3429 -0.8993
  112OSM   H16G11673   3.767   4.231   8.381 -0.4262 -2.4035  0.8527
  112OSM   C17F11674   3.903   4.074   8.420  0.1190 -0.8631 -0.0288
  112OSM   H17F11675   3.823   4.034   8.486 -1.9690  1.3864 -1.0369
  112OSM   H17G11676   4.006   4.062   8.459  0.5196  0.4942 -0.6130
  112OSM   C18F11677   3.898   3.995   8.290  0.7441  0.6487 -0.0528
  112OSM   H18F11678   3.960   4.044   8.212  1.2136 -1.6516 -1.1914
  112OSM   H18G11679   3.795   3.984   8.249  0.9777  0.5088 -0.6107
  112OSM   H18H11680   3.939   3.893   8.304  0.8549  0.6497 -0.3764
  113OSM      N11681   3.660   3.074  10.695 -0.6592  0.2829 -0.4640
  113OSM    C1511682   3.510   3.098  10.716 -0.5513  0.1614  0.0079
  113OSM   H15A11683   3.491   3.136  10.815  0.6369 -2.1314  1.2126
  113OSM   H15B11684   3.464   3.000  10.716  1.0550 -0.6417 -0.1981
  113OSM   H15C11685   3.475   3.155  10.632 -0.9592 -3.9480 -2.9470
  113OSM    C1411686   3.708   3.004  10.820 -0.0841 -0.2060  0.3375
  113OSM   H14A11687   3.813   2.982  10.806  0.2077  0.3343  1.4714
  113OSM   H14B11688   3.651   2.915  10.842  1.3629 -0.8684  1.6018
  113OSM   H14C11689   3.698   3.060  10.912 -0.5754  1.5257 -0.7268
  113OSM    C1311690   3.672   2.988  10.578 -0.5389 -0.4258  0.9353
  113OSM   H13A11691   3.614   3.022  10.493  0.6404  0.3078  0.3961
  113OSM   H13B11692   3.648   2.884  10.594 -2.0317 -0.5809 -1.6760
  113OSM   H13C11693   3.775   2.985  10.545 -0.7882  1.0360 -0.0502
  113OSM    C1211694   3.740   3.206  10.674 -0.2553  0.0207 -0.2272
  113OSM   H12A11695   3.745   3.269  10.762 -3.1930 -1.3871  1.0836
  113OSM   H12B11696   3.685   3.262  10.600 -2.6262  0.4446  1.7141
  113OSM    C1111697   3.881   3.199  10.618 -0.5403 -0.2543 -0.7188
  113OSM   H11A11698   3.916   3.302  10.598  0.2636  0.0120  1.7345
  113OSM   H11B11699   3.882   3.134  10.528  1.7467 -1.7743  0.3303
  113OSM      P11700   4.083   3.186  10.789 -0.5432 -0.4645  0.2199
  113OSM    O1311701   4.055   3.325  10.835  0.0806  0.4025  0.1670
  113OSM    O1411702   4.134   3.095  10.889 -0.7673 -0.5886  0.4332
  113OSM    O1111703   4.191   3.211  10.682 -0.0663  0.7275  0.1975
  113OSM    O1211704   3.963   3.124  10.714  0.3869 -0.9321  0.3301
  113OSM    C1S11705   4.246   3.114  10.589  0.3241 -0.1514  0.1064
  113OSM    H1S11706   4.176   3.027  10.591  1.3898 -1.0398 -0.3939
  113OSM    H1T11707   4.349   3.088  10.620 -0.4173 -1.9632  1.2161
  113OSM     NF11708   4.292   3.077  10.347 -0.4481 -0.2194 -0.4486
  113OSM    HNF11709   4.373   3.116  10.304  0.2357  2.3623  2.7980
  113OSM    C2S11710   4.230   3.164  10.445 -0.0660 -0.1123 -0.0019
  113OSM    H2S11711   4.121   3.156  10.424 -0.1846 -2.3222  1.1591
  113OSM    C3S11712   4.272   3.310  10.429 -0.3270 -0.1054 -0.5379
  113OSM    H3S11713   4.383   3.316  10.427 -0.4017  1.9104 -1.3948
  113OSM     O311714   4.224   3.403  10.530 -0.1403 -0.0104 -0.5354
  113OSM    HO311715   4.205   3.345  10.604 -0.2397  0.6535 -0.0252
  113OSM    C4S11716   4.236   3.356  10.285  0.1045  0.1221 -0.5278
  113OSM    H4S11717   4.318   3.332  10.214  0.3903  0.8334 -0.4453
  113OSM    C5S11718   4.113   3.394  10.227  0.0083 -0.0869 -0.6955
  113OSM    H5S11719   4.029   3.395  10.298 -0.9159 -1.8604 -1.6622
  113OSM    C6S11720   4.085   3.402  10.081  0.0769 -0.5602  0.2767
  113OSM    H6S11721   4.027   3.495  10.061  1.0431  0.2877  1.2530
  113OSM    H6T11722   4.019   3.315  10.061 -1.1382  0.7808 -1.9426
  113OSM    C7S11723   4.201   3.403   9.983  0.0140  0.1772  0.1876
  113OSM    H7S11724   4.259   3.310   9.996  1.5362  1.2736  1.7976
  113OSM    H7T11725   4.275   3.485   9.997 -0.1349  0.5487 -1.0454
  113OSM    C8S11726   4.145   3.414   9.842  0.1675  0.6531 -0.3386
  113OSM    H8S11727   4.090   3.510   9.829  1.0321  1.0674 -1.0223
  113OSM    H8T11728   4.070   3.334   9.823  0.6155  0.3499 -0.8509
  113OSM    C9S11729   4.247   3.412   9.721 -0.4602  0.1516 -0.2963
  113OSM    H9S11730   4.298   3.314   9.713  0.9318  0.9452 -1.3631
  113OSM    H9T11731   4.324   3.490   9.735 -0.4296  0.6401 -2.7739
  113OSM   C10S11732   4.178   3.433   9.592  0.0560 -0.6818  0.4061
  113OSM   H10S11733   4.193   3.540   9.563  1.5291 -0.7013  1.0178
  113OSM   H10T11734   4.073   3.399   9.597 -0.1308 -0.6747 -2.0635
  113OSM   C11S11735   4.248   3.356   9.476 -0.2228 -0.1270 -1.0957
  113OSM   H11S11736   4.248   3.246   9.492 -2.7919  0.0618  0.6836
  113OSM   H11T11737   4.353   3.391   9.459  0.9501 -2.1530  1.3206
  113OSM   C12S11738   4.173   3.381   9.345  0.2500 -0.7863 -0.3756
  113OSM   H12S11739   4.190   3.489   9.324  1.6450 -0.2917  2.8498
  113OSM   H12T11740   4.062   3.370   9.351  0.2719 -0.2325  2.0465
  113OSM   C13S11741   4.228   3.296   9.224  0.0798 -0.0636 -0.2106
  113OSM   H13S11742   4.338   3.286   9.236 -0.3080 -2.3459  2.2792
  113OSM   H13T11743   4.198   3.352   9.133  0.4165  1.4118  0.5481
  113OSM   C14S11744   4.168   3.150   9.220 -0.5527 -0.5045  0.2325
  113OSM   H14S11745   4.062   3.173   9.245 -0.4157 -0.8919  1.2307
  113OSM   H14T11746   4.208   3.083   9.299  2.1832 -0.9054 -1.3652
  113OSM   C15S11747   4.178   3.071   9.094  0.0974  0.4458  0.0311
  113OSM   H15S11748   4.119   2.978   9.107 -0.4796  1.0733  2.5216
  113OSM   H15T11749   4.285   3.045   9.079  0.3710  0.6334  1.5064
  113OSM   C16S11750   4.134   3.136   8.959 -0.2600  0.0090  0.4670
  113OSM   H16S11751   4.195   3.228   8.944  0.5622 -0.8836 -2.0981
  113OSM   H16T11752   4.029   3.170   8.970 -0.6197 -0.0565 -2.2651
  113OSM   C17S11753   4.148   3.037   8.844 -0.4565 -0.1447 -0.2524
  113OSM   H17S11754   4.139   2.935   8.887 -0.1961 -0.3699 -0.7280
  113OSM   H17T11755   4.255   3.045   8.815 -0.5963  0.1017 -0.7019
  113OSM   C18S11756   4.055   3.040   8.720  0.1508  0.4895 -0.5745
  113OSM   H18S11757   4.063   3.122   8.645 -0.2392 -0.5867 -1.8334
  113OSM   H18T11758   3.947   3.024   8.739 -0.0087 -1.8801 -2.9114
  113OSM   H18U11759   4.084   2.946   8.668 -0.6716  0.1166 -0.3772
  113OSM    C1F11760   4.260   2.948  10.326 -0.0390 -0.2264  0.4453
  113OSM     OF11761   4.156   2.898  10.362 -0.0345  0.0028 -0.1775
  113OSM    C2F11762   4.352   2.869  10.238  0.4010  0.1354  0.2751
  113OSM    H2F11763   4.450   2.921  10.240 -0.4603  1.8114  0.4863
  113OSM    H2G11764   4.308   2.880  10.136 -1.7493  1.7812  1.2899
  113OSM    C3F11765   4.374   2.716  10.278 -0.1468 -0.2712 -0.1436
  113OSM    H3F11766   4.277   2.666  10.298  0.8161 -1.6730  1.2171
  113OSM    H3G11767   4.445   2.719  10.363  1.7635 -0.5798 -1.6452
  113OSM    C4F11768   4.447   2.640  10.164 -0.8801  0.1524  0.3750
  113OSM    H4F11769   4.497   2.565  10.228 -1.9823  0.4089  1.5921
  113OSM    H4G11770   4.528   2.694  10.111 -1.0299  0.0123  0.0039
  113OSM    C5F11771   4.355   2.581  10.060 -0.4743  0.4092  0.6562
  113OSM    H5F11772   4.264   2.557  10.118 -0.1524  0.3502  1.1410
  113OSM    H5G11773   4.404   2.485  10.033  0.8870  1.5692 -1.3321
  113OSM    C6F11774   4.333   2.672   9.936 -0.2715 -0.1702 -0.4380
  113OSM    H6F11775   4.312   2.777   9.965 -0.1263 -0.5283  1.0220
  113OSM    H6G11776   4.246   2.627   9.881  0.4840 -3.0661  0.5341
  113OSM    C7F11777   4.445   2.666   9.823  0.7897  1.0800 -0.1137
  113OSM    H7F11778   4.448   2.571   9.764  2.9599 -0.0057  1.5949
  113OSM    H7G11779   4.542   2.657   9.877  1.8390  1.5162 -1.8320
  113OSM    C8F11780   4.449   2.777   9.720 -0.1185  0.4159  0.2209
  113OSM    H8F11781   4.445   2.877   9.769  2.0128  1.0129 -0.7115
  113OSM    H8G11782   4.350   2.768   9.670 -0.3878  1.7548  0.4902
  113OSM    C9F11783   4.568   2.761   9.631  0.4112 -0.6631  0.6078
  113OSM    H9F11784   4.667   2.738   9.673  1.9176  0.5704 -2.0067
  113OSM   C10F11785   4.564   2.761   9.500  0.2678  0.5352 -0.4003
  113OSM   H10F11786   4.655   2.731   9.445  0.5590 -2.0499  1.3113
  113OSM   C11F11787   4.448   2.776   9.406  0.3415 -0.3518  0.2278
  113OSM   H11F11788   4.364   2.822   9.461 -0.9432 -0.0957 -1.8503
  113OSM   H11G11789   4.409   2.674   9.382  0.3386 -0.1760 -0.5574
  113OSM   C12F11790   4.475   2.862   9.280 -0.2118  0.4589  0.3298
  113OSM   H12F11791   4.539   2.949   9.307  0.4123  0.3170 -0.6556
  113OSM   H12G11792   4.385   2.896   9.225 -0.4061 -1.6569 -0.7835
  113OSM   C13F11793   4.539   2.775   9.167  0.8829 -0.1762 -0.5548
  113OSM   H13F11794   4.466   2.694   9.145 -0.6933  1.2044 -0.6180
  113OSM   H13G11795   4.629   2.719   9.199  0.3252 -0.9661 -0.3385
  113OSM   C14F11796   4.556   2.844   9.031 -0.0573  0.3421  0.1442
  113OSM   H14F11797   4.637   2.918   9.048 -0.5525  1.2763 -1.3708
  113OSM   H14G11798   4.465   2.894   8.991 -0.3774  1.1500  1.8003
  113OSM   C15F11799   4.588   2.746   8.913 -0.9670 -0.3713  0.3554
  113OSM   H15F11800   4.499   2.680   8.905 -0.1104 -1.7216  1.4506
  113OSM   H15G11801   4.669   2.677   8.943 -0.5741  0.0628  0.2946
  113OSM   C16F11802   4.617   2.805   8.775 -0.5729  0.0637  0.6362
  113OSM   H16F11803   4.525   2.862   8.748 -2.5796 -2.8085  0.9462
  113OSM   H16G11804   4.627   2.724   8.699 -1.3778 -0.5732  1.1862
  113OSM   C17F11805   4.750   2.900   8.777  0.2678  0.3334  0.1499
  113OSM   H17F11806   4.728   2.979   8.852 -0.4453 -1.5380  1.9878
  113OSM   H17G11807   4.763   2.951   8.678 -0.1085  1.8814  0.8666
  113OSM   C18F11808   4.883   2.828   8.796  0.3297 -0.1311  0.2484
  113OSM   H18F11809   4.964   2.903   8.811  0.4034  0.4164 -2.4031
  113OSM   H18G11810   4.905   2.775   8.701 -0.9660 -2.1501  1.0148
  113OSM   H18H11811   4.878   2.749   8.874  1.8282  0.4129  0.9552
  114OSM      N11812   4.916   2.510  11.115  0.1779  0.0529  0.1425
  114OSM    C1511813   4.809   2.408  11.165  0.0105  0.0476  0.2586
  114OSM   H15A11814   4.758   2.360  11.083 -0.3388  2.0687 -0.7555
  114OSM   H15B11815   4.733   2.463  11.220 -0.2192 -0.4954  0.4970
  114OSM   H15C11816   4.847   2.336  11.237  2.9106  1.0062 -0.1901
  114OSM    C1411817   4.939   2.604  11.231 -1.0366 -0.0825 -0.4900
  114OSM   H14A11818   4.854   2.663  11.262 -0.3160  1.5147 -1.4520
  114OSM   H14B11819   5.014   2.674  11.197 -0.1390 -1.8279 -2.3145
  114OSM   H14C11820   4.986   2.557  11.316 -0.3514  1.4238 -0.0059
  114OSM    C1311821   5.044   2.434  11.083 -0.2489 -0.3411 -0.3573
  114OSM   H13A11822   5.049   2.370  10.996  2.4013 -0.4633 -0.2012
  114OSM   H13B11823   5.067   2.363  11.161  0.0526 -1.0052 -1.0255
  114OSM   H13C11824   5.130   2.496  11.061  2.9302 -4.1896 -0.0122
  114OSM    C1211825   4.859   2.578  11.004 -0.1944  0.1456 -0.0617
  114OSM   H12A11826   4.899   2.674  10.977 -1.4013  0.4834 -0.6998
  114OSM   H12B11827   4.760   2.609  11.035 -0.1759 -0.6706  0.8815
  114OSM    C1111828   4.845   2.489  10.876  0.3503  0.6949  0.2534
  114OSM   H11A11829   4.767   2.530  10.809 -1.7679 -1.3936  1.2948
  114OSM   H11B11830   4.799   2.389  10.891  1.6560 -0.0831 -0.6892
  114OSM      P11831   5.052   2.594  10.753 -0.1357  0.6056  0.2727
  114OSM    O1311832   4.965   2.715  10.748  0.4939 -0.6429 -0.1845
  114OSM    O1411833   5.184   2.596  10.819 -0.4675 -0.3075 -0.0375
  114OSM    O1111834   5.074   2.553  10.603  0.5928  0.0465 -0.0019
  114OSM    O1211835   4.968   2.470  10.811  0.2512 -0.0724  0.7378
  114OSM    C1S11836   4.986   2.464  10.527  0.0856 -0.7076 -0.1290
  114OSM    H1S11837   4.888   2.517  10.528  1.7206  2.6730 -1.8135
  114OSM    H1T11838   4.970   2.363  10.571 -0.1860 -0.1768  1.0062
  114OSM     NF11839   4.919   2.382  10.304  0.1866  0.2060 -0.2855
  114OSM    HNF11840   4.941   2.296  10.258 -1.1638 -1.4083  1.8783
  114OSM    C2S11841   5.018   2.447  10.377 -0.2621 -0.2265 -0.2665
  114OSM    H2S11842   5.026   2.548  10.332  1.0358 -0.5123 -0.7264
  114OSM    C3S11843   5.157   2.376  10.371 -0.1189 -0.2670 -0.1087
  114OSM    H3S11844   5.141   2.271  10.404  0.6182 -1.0752 -2.1483
  114OSM     O311845   5.257   2.427  10.455  0.9513  0.3687  0.1358
  114OSM    HO311846   5.212   2.483  10.519  0.6273 -0.1408  0.3591
  114OSM    C4S11847   5.200   2.370  10.226 -0.1693  0.3974 -0.1211
  114OSM    H4S11848   5.163   2.288  10.164  0.9683  1.8945 -2.9667
  114OSM    C5S11849   5.270   2.467  10.161  0.0116 -0.3130 -0.1556
  114OSM    H5S11850   5.299   2.553  10.223 -1.9910  0.2869  0.0175
  114OSM    C6S11851   5.300   2.469  10.009 -0.2832  0.0928  0.2511
  114OSM    H6S11852   5.409   2.460   9.991 -0.4509 -2.5401  0.1382
  114OSM    H6T11853   5.262   2.565   9.969 -0.3357  1.6734  3.7850
  114OSM    C7S11854   5.243   2.357   9.920  0.3184 -0.2172  0.2371
  114OSM    H7S11855   5.133   2.354   9.935  0.2810 -0.3984 -0.0635
  114OSM    H7T11856   5.291   2.263   9.955  1.3225 -0.2061 -1.0194
  114OSM    C8S11857   5.282   2.365   9.773 -0.0102 -0.5052  0.7491
  114OSM    H8S11858   5.386   2.327   9.766 -0.0770 -0.3811 -1.5463
  114OSM    H8T11859   5.262   2.468   9.736 -1.3909 -0.4013  1.6987
  114OSM    C9S11860   5.202   2.266   9.693  0.0571  0.0226 -0.2474
  114OSM    H9S11861   5.099   2.306   9.695 -0.2318 -0.7258  0.3327
  114OSM    H9T11862   5.209   2.169   9.747  0.5487 -0.3932 -1.0402
  114OSM   C10S11863   5.253   2.243   9.546 -0.9157 -0.8202 -0.2910
  114OSM   H10S11864   5.218   2.141   9.521  0.5049 -1.5303  0.5408
  114OSM   H10T11865   5.364   2.244   9.551 -0.9049 -3.0152  1.1675
  114OSM   C11S11866   5.190   2.352   9.460  0.2879  0.1659 -0.2309
  114OSM   H11S11867   5.202   2.453   9.505  0.7409  1.8629 -3.7774
  114OSM   H11T11868   5.081   2.337   9.449  0.4997 -0.4661 -1.7885
  114OSM   C12S11869   5.254   2.352   9.327 -0.7733 -0.0459  0.7692
  114OSM   H12S11870   5.224   2.263   9.269 -0.9817 -0.9575  2.2283
  114OSM   H12T11871   5.365   2.359   9.335 -0.5743 -0.8514 -0.9682
  114OSM   C13S11872   5.223   2.468   9.226  0.2996  0.0257 -0.6179
  114OSM   H13S11873   5.237   2.572   9.262 -0.8423  0.1868 -0.5991
  114OSM   H13T11874   5.114   2.477   9.208  0.3132  2.0908  0.0601
  114OSM   C14S11875   5.289   2.450   9.090 -0.8293 -0.5238 -0.4931
  114OSM   H14S11876   5.252   2.353   9.050  1.0172 -1.4105 -0.2138
  114OSM   H14T11877   5.397   2.434   9.112 -1.5967 -1.5302  3.2810
  114OSM   C15S11878   5.247   2.551   8.983  0.0040  0.1291 -0.3773
  114OSM   H15S11879   5.284   2.651   9.014  1.5162 -0.1494 -1.1814
  114OSM   H15T11880   5.137   2.560   8.992  0.1249  1.3227  0.1146
  114OSM   C16S11881   5.295   2.505   8.851  0.3829  0.5308  0.6823
  114OSM   H16S11882   5.227   2.422   8.823  0.3240  1.4180 -2.1467
  114OSM   H16T11883   5.397   2.462   8.861 -0.7043 -1.9736  1.7104
  114OSM   C17S11884   5.289   2.618   8.751 -0.3788  0.1350  0.3347
  114OSM   H17S11885   5.326   2.712   8.796 -2.3750  1.0112  0.2438
  114OSM   H17T11886   5.185   2.638   8.717  0.3166  1.1551 -1.2958
  114OSM   C18S11887   5.358   2.593   8.618  0.0485 -0.4192 -0.1706
  114OSM   H18S11888   5.364   2.690   8.565 -2.4461  0.2104  0.5313
  114OSM   H18T11889   5.302   2.518   8.558 -3.8180  0.9802  1.3274
  114OSM   H18U11890   5.459   2.551   8.636  0.4534  0.7152  0.2985
  114OSM    C1F11891   4.795   2.431  10.286 -0.7728  0.0099 -0.0671
  114OSM     OF11892   4.754   2.541  10.329 -0.2401  0.0526 -0.2979
  114OSM    C2F11893   4.708   2.352  10.202 -0.1970 -1.1646 -0.9774
  114OSM    H2F11894   4.603   2.362  10.238  0.1698 -1.8456  0.3120
  114OSM    H2G11895   4.731   2.244  10.207 -1.3686 -1.4146 -0.7427
  114OSM    C3F11896   4.699   2.414  10.058 -0.0799  0.3321  0.4748
  114OSM    H3F11897   4.696   2.525  10.068  1.4725  0.3245  1.4080
  114OSM    H3G11898   4.600   2.387  10.018 -0.7306  0.7641  1.7259
  114OSM    C4F11899   4.816   2.383   9.966  0.2375  0.6390  0.7266
  114OSM    H4F11900   4.911   2.359  10.019  0.2148 -1.5823 -0.1118
  114OSM    H4G11901   4.826   2.475   9.904 -5.9725 -0.0088 -2.0305
  114OSM    C5F11902   4.775   2.257   9.881 -0.2208  0.1023  0.1495
  114OSM    H5F11903   4.723   2.187   9.949  3.1811 -2.0719  0.7894
  114OSM    H5G11904   4.873   2.209   9.860  1.1382  2.7075  0.0937
  114OSM    C6F11905   4.697   2.280   9.758 -0.4387 -0.0182 -0.6803
  114OSM    H6F11906   4.595   2.322   9.772  0.1051  0.7555  1.2089
  114OSM    H6G11907   4.672   2.181   9.714 -1.9909 -0.4514  1.0626
  114OSM    C7F11908   4.769   2.369   9.658  0.3118  0.6078 -0.5933
  114OSM    H7F11909   4.876   2.349   9.640 -0.0634 -0.3272 -1.9507
  114OSM    H7G11910   4.763   2.476   9.686 -0.5202  1.3225 -3.2100
  114OSM    C8F11911   4.701   2.345   9.516  0.1589  0.0580 -0.0051
  114OSM    H8F11912   4.690   2.237   9.490 -4.1349  0.5288 -0.9340
  114OSM    H8G11913   4.770   2.381   9.436 -1.0557  1.5442 -0.4238
  114OSM    C9F11914   4.562   2.403   9.493  0.2303  0.2688  0.0563
  114OSM    H9F11915   4.530   2.474   9.570 -0.1767  0.0823  0.0630
  114OSM   C10F11916   4.477   2.385   9.391 -0.5102  0.3871 -0.0370
  114OSM   H10F11917   4.375   2.425   9.382 -0.2986  0.3858 -4.2586
  114OSM   C11F11918   4.501   2.290   9.274 -0.5176 -0.2897 -0.5689
  114OSM   H11F11919   4.440   2.198   9.289  2.3476 -1.9865  1.6326
  114OSM   H11G11920   4.608   2.262   9.263 -0.9864 -1.8347 -1.5519
  114OSM   C12F11921   4.473   2.368   9.142 -0.1576 -0.6927  0.1605
  114OSM   H12F11922   4.531   2.462   9.135 -0.9280 -0.2885 -1.2597
  114OSM   H12G11923   4.370   2.409   9.136  0.8423  2.1073  0.7083
  114OSM   C13F11924   4.490   2.277   9.017 -0.0708 -0.2939 -0.7688
  114OSM   H13F11925   4.562   2.192   9.024 -1.9578 -1.8889  0.3715
  114OSM   H13G11926   4.529   2.347   8.940  0.3730  0.9298  0.5313
  114OSM   C14F11927   4.358   2.225   8.960 -0.0929  0.4261 -0.3304
  114OSM   H14F11928   4.299   2.314   8.929  1.5768  2.0052  0.8013
  114OSM   H14G11929   4.306   2.172   9.043 -0.9017  1.4677 -0.1527
  114OSM   C15F11930   4.365   2.135   8.838 -0.4564  0.0055 -0.0290
  114OSM   H15F11931   4.420   2.043   8.868 -1.2034 -0.1717  0.8207
  114OSM   H15G11932   4.403   2.191   8.749 -1.3736  5.5258  2.6472
  114OSM   C16F11933   4.226   2.071   8.806  0.0491  0.4526 -0.2069
  114OSM   H16F11934   4.185   2.038   8.904  1.0977 -1.0382 -0.2215
  114OSM   H16G11935   4.244   1.974   8.754  1.5232 -0.0534  1.1440
  114OSM   C17F11936   4.132   2.159   8.737  0.1907  0.3683  0.0701
  114OSM   H17F11937   4.124   2.252   8.797  0.4919 -1.2481  2.7765
  114OSM   H17G11938   4.041   2.096   8.748  0.7658 -0.3958  0.6234
  114OSM   C18F11939   4.167   2.196   8.590  0.0706  1.2705  0.2187
  114OSM   H18F11940   4.102   2.272   8.543  2.2204  2.2823 -1.2729
  114OSM   H18G11941   4.177   2.106   8.526  0.2609  1.8942 -0.6447
  114OSM   H18H11942   4.264   2.249   8.597 -1.5899  4.7267 -0.7737
  115OSM      N11943   6.192   5.740   6.301  0.5744 -0.1684 -0.4236
  115OSM    C1511944   6.145   5.713   6.160 -0.1981  0.3726 -0.1185
  115OSM   H15A11945   6.164   5.794   6.091 -0.1457 -0.0152 -0.5607
  115OSM   H15B11946   6.041   5.685   6.161 -0.1899  0.3041  1.5650
  115OSM   H15C11947   6.192   5.625   6.119 -1.8044 -0.8623  0.5951
  115OSM    C1411948   6.340   5.729   6.297  0.2630  0.3721  0.0517
  115OSM   H14A11949   6.373   5.631   6.266  1.3210  1.0196 -0.9905
  115OSM   H14B11950   6.379   5.762   6.392 -2.1571 -0.7146  1.5266
  115OSM   H14C11951   6.372   5.793   6.216  0.2034  0.4220  0.0673
  115OSM    C1311952   6.151   5.880   6.349 -0.3150  0.3246  0.2608
  115OSM   H13A11953   6.186   5.915   6.444  0.0694  1.1022 -0.1591
  115OSM   H13B11954   6.044   5.871   6.335 -0.2025 -0.3090 -0.2965
  115OSM   H13C11955   6.179   5.952   6.273  0.0268 -1.4742 -1.4275
  115OSM    C1211956   6.141   5.637   6.401 -0.0199  0.2387  0.0635
  115OSM   H12A11957   6.194   5.646   6.495 -1.0323  0.6690  0.6005
  115OSM   H12B11958   6.177   5.541   6.366  3.5660  1.2459  0.5432
  115OSM    C1111959   5.991   5.633   6.432 -0.5206  0.3411 -0.3851
  115OSM   H11A11960   5.950   5.731   6.465 -0.9903 -0.7537  2.5262
  115OSM   H11B11961   5.978   5.558   6.513 -0.4078 -0.1037 -0.7768
  115OSM      P11962   5.910   5.429   6.286 -0.1375  0.0601  0.0059
  115OSM    O1311963   5.817   5.422   6.173  0.2115 -0.2256 -0.2982
  115OSM    O1411964   6.049   5.379   6.261  0.0072  0.2682  0.0162
  115OSM    O1111965   5.842   5.354   6.409 -0.2892  1.1776 -0.2670
  115OSM    O1211966   5.916   5.585   6.328 -0.6083  0.0747 -0.4984
  115OSM    C1S11967   5.927   5.284   6.505 -0.6290 -0.4824  0.8330
  115OSM    H1S11968   6.002   5.352   6.550 -0.5030 -1.2723  1.8418
  115OSM    H1T11969   5.997   5.213   6.456 -1.3610 -0.4481 -0.3020
  115OSM     NF11970   5.912   5.177   6.730 -0.3296  0.1969 -0.2286
  115OSM    HNF11971   5.932   5.080   6.743 -1.2170 -0.4319 -2.8796
  115OSM    C2S11972   5.835   5.210   6.608 -0.0952  0.5502  0.1759
  115OSM    H2S11973   5.756   5.283   6.637 -0.1309  0.0601  1.3441
  115OSM    C3S11974   5.760   5.098   6.535 -0.0689  0.8990  0.3749
  115OSM    H3S11975   5.833   5.019   6.505 -0.7262  1.0361 -1.7799
  115OSM     O311976   5.691   5.132   6.417 -0.0393 -0.6751 -0.5150
  115OSM    HO311977   5.725   5.217   6.388  0.2056 -0.6476 -0.1616
  115OSM    C4S11978   5.669   5.014   6.634  0.0371 -0.1764 -0.4678
  115OSM    H4S11979   5.702   4.910   6.647 -3.0855 -1.2525 -0.3095
  115OSM    C5S11980   5.560   5.056   6.693 -0.4920  0.2358  0.1103
  115OSM    H5S11981   5.519   5.156   6.679 -0.3201  0.6301  2.0489
  115OSM    C6S11982   5.475   4.969   6.787 -0.1049  0.3415 -0.1110
  115OSM    H6S11983   5.531   4.881   6.824 -0.6804  0.2960  0.6784
  115OSM    H6T11984   5.389   4.923   6.734 -0.1565 -0.0322  0.2949
  115OSM    C7S11985   5.424   5.059   6.904  0.3365 -1.4686 -0.8664
  115OSM    H7S11986   5.333   5.013   6.949 -1.3609 -0.1570 -2.8140
  115OSM    H7T11987   5.380   5.154   6.869  1.7274 -0.3955  0.1803
  115OSM    C8S11988   5.524   5.084   7.025  0.5551 -0.2819  0.1301
  115OSM    H8S11989   5.465   5.142   7.099  1.2862 -0.4025  0.8226
  115OSM    H8T11990   5.605   5.148   6.985 -1.4286  1.1227 -1.8952
  115OSM    C9S11991   5.588   4.953   7.083 -0.6265 -0.0750  0.7324
  115OSM    H9S11992   5.635   4.890   7.005  1.7670 -0.2793  2.2134
  115OSM    H9T11993   5.505   4.897   7.131 -1.3373  1.1282  0.9665
  115OSM   C10S11994   5.711   4.986   7.180 -0.8160  0.0094 -0.3825
  115OSM   H10S11995   5.671   5.047   7.264  1.7658  2.4271 -0.7399
  115OSM   H10T11996   5.797   5.043   7.137  0.5162 -0.3043  1.7375
  115OSM   C11S11997   5.762   4.856   7.247  0.1517  0.3554 -0.4408
  115OSM   H11S11998   5.810   4.796   7.168  1.0367  3.9877 -2.8804
  115OSM   H11T11999   5.678   4.798   7.292  2.4292 -1.9951  1.1047
  115OSM   C12S12000   5.873   4.866   7.345 -0.3499 -0.2737 -0.3975
  115OSM   H12S12001   5.944   4.934   7.294 -2.6545  1.6674 -1.2216
  115OSM   H12T12002   5.912   4.762   7.353 -3.0273 -1.3648 -0.2839
  115OSM   C13S12003   5.850   4.907   7.494  0.1875 -0.6538 -0.3552
  115OSM   H13S12004   5.780   4.824   7.519 -1.3469  0.9474  0.8413
  115OSM   H13T12005   5.786   4.997   7.503  0.3147 -0.7020  1.2190
  115OSM   C14S12006   5.965   4.907   7.588  0.2671 -0.2959 -0.3636
  115OSM   H14S12007   6.034   4.980   7.538 -0.9158 -0.5216 -2.4503
  115OSM   H14T12008   6.033   4.819   7.586  3.7150  2.1546 -0.7111
  115OSM   C15S12009   5.943   4.954   7.740  0.3404 -0.0498  0.4910
  115OSM   H15S12010   5.856   4.900   7.782  0.9638 -0.0489  1.8240
  115OSM   H15T12011   5.901   5.056   7.755  0.5554 -0.0196  0.8787
  115OSM   C16S12012   6.078   4.924   7.818  0.0284  0.0883  0.3385
  115OSM   H16S12013   6.154   5.004   7.811 -0.7312  0.8447  0.5949
  115OSM   H16T12014   6.126   4.835   7.772 -2.9466 -1.0061 -0.9255
  115OSM   C17S12015   6.052   4.901   7.966  0.0156 -0.0889  0.1171
  115OSM   H17S12016   6.151   4.875   8.009  0.4870  1.8167  0.2795
  115OSM   H17T12017   5.977   4.822   7.987 -0.3898 -0.1823 -1.5510
  115OSM   C18S12018   6.006   5.033   8.034 -0.2391 -0.8317 -0.0033
  115OSM   H18S12019   6.079   5.117   8.032 -1.1510 -0.0322 -0.6768
  115OSM   H18T12020   5.989   5.018   8.143  2.8340  2.2065  1.0794
  115OSM   H18U12021   5.909   5.061   7.989 -1.6717 -0.9924  2.7658
  115OSM    C1F12022   5.959   5.263   6.814 -0.3643  0.6373  0.4600
  115OSM     OF12023   5.965   5.382   6.796  0.1384  0.2933  0.4416
  115OSM    C2F12024   6.010   5.200   6.943 -0.3127 -0.3954  0.7588
  115OSM    H2F12025   6.085   5.122   6.917 -0.6683  0.2606 -2.6629
  115OSM    H2G12026   5.924   5.148   6.992 -0.5851 -0.0977  0.6008
  115OSM    C3F12027   6.074   5.292   7.046  0.4531 -0.4127 -0.8445
  115OSM    H3F12028   6.008   5.380   7.064 -0.1326 -0.4139 -2.7940
  115OSM    H3G12029   6.178   5.321   7.020  0.0442  2.4854  0.3897
  115OSM    C4F12030   6.076   5.220   7.186 -0.4721  0.0072 -0.2117
  115OSM    H4F12031   6.151   5.138   7.182 -0.3965  0.0963 -0.7270
  115OSM    H4G12032   5.983   5.165   7.213 -0.1503  0.3015  1.6305
  115OSM    C5F12033   6.096   5.314   7.308  0.5748  0.0560 -0.4213
  115OSM    H5F12034   6.014   5.389   7.305 -0.7692 -1.3589 -2.5747
  115OSM    H5G12035   6.190   5.371   7.294 -0.9305  3.0468  0.7996
  115OSM    C6F12036   6.089   5.261   7.450  0.0076  0.4980  0.3855
  115OSM    H6F12037   6.168   5.183   7.449 -0.2940  0.1923 -0.1725
  115OSM    H6G12038   5.991   5.211   7.465  0.5463 -0.9347 -0.5880
  115OSM    C7F12039   6.127   5.357   7.556  0.7491 -1.0464 -0.3870
  115OSM    H7F12040   6.047   5.432   7.577  0.7479 -1.5509  1.6585
  115OSM    H7G12041   6.214   5.410   7.514  0.3590  1.0380  1.2539
  115OSM    C8F12042   6.163   5.296   7.692  0.2227 -0.2031 -0.2496
  115OSM    H8F12043   6.238   5.216   7.674 -0.9018 -1.0151 -1.5569
  115OSM    H8G12044   6.079   5.250   7.749  0.3630  0.8542  0.8645
  115OSM    C9F12045   6.206   5.417   7.777 -0.1588  0.2204  0.1305
  115OSM    H9F12046   6.130   5.496   7.769 -0.2380 -0.0327 -1.9986
  115OSM   C10F12047   6.328   5.431   7.836  0.5121 -0.0032  0.1994
  115OSM   H10F12048   6.341   5.524   7.892  1.8042  0.1718 -0.3608
  115OSM   C11F12049   6.447   5.338   7.852  0.2321 -0.3302  0.3849
  115OSM   H11F12050   6.527   5.387   7.792 -0.0014 -0.0169  0.3281
  115OSM   H11G12051   6.432   5.234   7.816  0.3321 -0.0133 -0.6081
  115OSM   C12F12052   6.503   5.331   8.000  0.0348  0.1721  0.4734
  115OSM   H12F12053   6.519   5.430   8.047 -0.0991 -1.5695  4.5848
  115OSM   H12G12054   6.598   5.274   7.993  0.7240  1.3822 -0.4817
  115OSM   C13F12055   6.407   5.245   8.080  0.1993 -0.1559  0.4830
  115OSM   H13F12056   6.405   5.141   8.041  1.1842 -0.1501  0.3963
  115OSM   H13G12057   6.300   5.273   8.073  0.5837  1.3784  0.4612
  115OSM   C14F12058   6.455   5.238   8.227 -0.4555  0.1503  0.0193
  115OSM   H14F12059   6.379   5.178   8.282 -0.5642  2.1077  2.1403
  115OSM   H14G12060   6.462   5.334   8.282  1.7467 -1.5378  2.9226
  115OSM   C15F12061   6.595   5.161   8.234 -0.1628 -0.4088 -0.1171
  115OSM   H15F12062   6.676   5.233   8.209  3.3497 -3.1227  2.3478
  115OSM   H15G12063   6.595   5.079   8.160 -1.2250  0.4740 -1.1308
  115OSM   C16F12064   6.629   5.116   8.376  0.0357  0.6036  0.2665
  115OSM   H16F12065   6.545   5.061   8.423 -0.8414  0.9804 -0.8236
  115OSM   H16G12066   6.665   5.204   8.434 -0.6393  0.0164  1.6370
  115OSM   C17F12067   6.750   5.016   8.379  0.4187 -0.6088 -0.1517
  115OSM   H17F12068   6.832   5.041   8.309  1.6432 -2.2175  0.6371
  115OSM   H17G12069   6.701   4.921   8.346 -1.9033  0.6777 -0.6500
  115OSM   C18F12070   6.806   5.000   8.518 -0.1799 -0.1518  0.7715
  115OSM   H18F12071   6.738   4.965   8.599 -1.1008  1.7811  0.8783
  115OSM   H18G12072   6.852   5.095   8.553 -0.6852  0.4428 -0.1379
  115OSM   H18H12073   6.894   4.932   8.509 -0.7479 -1.3837  3.5287
  116OSM      N12074   3.549   3.768   5.943  0.0902  0.5026  0.4815
  116OSM    C1512075   3.479   3.780   5.812  0.1780  0.7801 -0.4789
  116OSM   H15A12076   3.496   3.880   5.773  1.2758  1.0320  0.5967
  116OSM   H15B12077   3.378   3.744   5.827  0.8858 -0.3071  2.3200
  116OSM   H15C12078   3.523   3.710   5.743 -0.7687 -0.2322 -0.0879
  116OSM    C1412079   3.500   3.859   6.051  0.7545 -0.8680 -0.1086
  116OSM   H14A12080   3.573   3.845   6.129  0.4139  2.5014  1.0023
  116OSM   H14B12081   3.397   3.837   6.078  0.8317  0.4128  1.3890
  116OSM   H14C12082   3.505   3.963   6.021 -3.6117 -0.5484 -0.4700
  116OSM    C1312083   3.541   3.622   5.988  0.2192 -0.2016  0.3743
  116OSM   H13A12084   3.570   3.545   5.918  0.9975 -0.3154  0.8125
  116OSM   H13B12085   3.445   3.598   6.029 -0.3169 -1.4563 -1.4841
  116OSM   H13C12086   3.614   3.615   6.067  1.1958  1.8164 -0.2695
  116OSM    C1212087   3.700   3.802   5.925 -0.6555  0.0867 -0.4407
  116OSM   H12A12088   3.740   3.742   5.845  0.7743 -0.5749  0.7180
  116OSM   H12B12089   3.758   3.763   6.008 -2.0371 -1.7320 -0.2734
  116OSM    C1112090   3.730   3.958   5.915  0.1988 -0.1468 -0.5611
  116OSM   H11A12091   3.836   3.969   5.884  0.7452  1.8040  1.7446
  116OSM   H11B12092   3.717   4.004   6.015 -2.5337 -0.0784 -0.8800
  116OSM      P12093   3.584   4.162   5.832 -0.1213  0.1388  0.3239
  116OSM    O1312094   3.697   4.261   5.841  0.6239 -0.4511  0.5245
  116OSM    O1412095   3.479   4.181   5.726  0.1044  0.5925 -0.0899
  116OSM    O1112096   3.517   4.164   5.974  0.0446  0.1088 -0.3163
  116OSM    O1212097   3.652   4.025   5.815  0.1965 -0.0302  0.2106
  116OSM    C1S12098   3.559   4.254   6.083  0.2036 -0.2569 -0.8438
  116OSM    H1S12099   3.625   4.336   6.049  1.4048 -1.0575 -0.5086
  116OSM    H1T12100   3.620   4.194   6.154 -2.4766 -1.4464  0.6286
  116OSM     NF12101   3.493   4.385   6.278 -0.0492  0.2984  0.0518
  116OSM    HNF12102   3.487   4.334   6.364 -2.0056  0.5825  0.1312
  116OSM    C2S12103   3.443   4.314   6.161  0.3234  0.1672 -0.0806
  116OSM    H2S12104   3.394   4.380   6.087 -0.7640  1.4448  1.6919
  116OSM    C3S12105   3.328   4.208   6.194 -0.1584  0.0273  0.5335
  116OSM    H3S12106   3.366   4.132   6.266  0.8293 -0.1771 -0.1801
  116OSM     O312107   3.294   4.121   6.088  0.0051  0.3446  0.8968
  116OSM    HO312108   3.376   4.113   6.039  0.1714 -0.5973  1.3053
  116OSM    C4S12109   3.212   4.291   6.256 -0.3876 -0.7384 -0.1599
  116OSM    H4S12110   3.189   4.388   6.210  0.4733 -0.1504  0.6095
  116OSM    C5S12111   3.149   4.263   6.371  0.4889 -0.0257 -0.0372
  116OSM    H5S12112   3.155   4.167   6.426  2.0336  1.0175  1.7545
  116OSM    C6S12113   3.046   4.351   6.433 -0.4488 -0.7317 -0.1235
  116OSM    H6S12114   2.956   4.289   6.452 -1.3607  0.4423 -0.5507
  116OSM    H6T12115   3.027   4.432   6.359 -2.0041  1.1132  2.1605
  116OSM    C7S12116   3.092   4.405   6.572 -0.2313  0.0765  1.0084
  116OSM    H7S12117   3.165   4.488   6.557  0.4248 -0.9237 -2.4067
  116OSM    H7T12118   3.128   4.323   6.637 -1.1361 -1.2741 -0.1274
  116OSM    C8S12119   2.973   4.476   6.638  0.4993 -0.6382 -0.5593
  116OSM    H8S12120   2.897   4.396   6.647 -0.1590  0.1648  1.7171
  116OSM    H8T12121   2.934   4.555   6.570 -1.7964  1.3744  2.8011
  116OSM    C9S12122   3.012   4.528   6.774 -0.3937  0.0377  0.1816
  116OSM    H9S12123   3.097   4.599   6.765 -0.7634  0.2718 -1.8591
  116OSM    H9T12124   3.035   4.444   6.842  0.4776  1.3561  1.5786
  116OSM   C10S12125   2.898   4.614   6.840  0.5681 -0.3724  0.4277
  116OSM   H10S12126   2.829   4.540   6.886  0.6765 -1.7711 -1.5666
  116OSM   H10T12127   2.846   4.679   6.767  0.7133  1.1740  1.6454
  116OSM   C11S12128   2.927   4.714   6.951 -0.2666 -0.7970  0.1576
  116OSM   H11S12129   2.997   4.789   6.908 -0.3090 -0.1030  1.2619
  116OSM   H11T12130   2.980   4.661   7.033 -1.8551 -0.6907  1.3064
  116OSM   C12S12131   2.808   4.782   7.012  0.3242 -0.9267 -1.2497
  116OSM   H12S12132   2.745   4.709   7.068  0.0149  0.8851  0.9183
  116OSM   H12T12133   2.760   4.839   6.930  0.4050 -0.6514 -1.1064
  116OSM   C13S12134   2.864   4.895   7.106 -0.3147  0.3325 -0.4548
  116OSM   H13S12135   2.785   4.965   7.142  1.0898  1.6983  0.0855
  116OSM   H13T12136   2.933   4.954   7.041 -0.3233 -0.3190 -1.0691
  116OSM   C14S12137   2.921   4.832   7.240  0.1301  0.1362  0.2956
  116OSM   H14S12138   2.963   4.730   7.224 -0.1374 -0.0655  0.8551
  116OSM   H14T12139   2.828   4.819   7.299  1.1112 -0.6028  1.7219
  116OSM   C15S12140   3.017   4.920   7.322 -0.4567  0.3269 -0.1348
  116OSM   H15S12141   2.969   5.019   7.339 -0.5954 -0.1584  2.6203
  116OSM   H15T12142   3.108   4.944   7.263 -0.1938 -0.1442  0.0815
  116OSM   C16S12143   3.079   4.856   7.445  0.4312 -0.6273 -0.4694
  116OSM   H16S12144   3.146   4.924   7.502  1.0970 -0.2638 -1.6570
  116OSM   H16T12145   3.145   4.774   7.411  0.1478 -0.4324 -1.5550
  116OSM   C17S12146   2.976   4.790   7.538 -0.3543 -0.3831  0.1846
  116OSM   H17S12147   2.927   4.706   7.483 -3.7956  1.8109 -0.3922
  116OSM   H17T12148   2.893   4.862   7.552  0.6701  0.7003  0.8355
  116OSM   C18S12149   3.035   4.741   7.674  0.6059  0.4760  0.5365
  116OSM   H18S12150   3.092   4.826   7.716  1.9454  0.6357 -1.4677
  116OSM   H18T12151   3.108   4.658   7.663  1.1680  1.0766 -0.2992
  116OSM   H18U12152   2.946   4.710   7.734  0.9712  1.4556  1.6163
  116OSM    C1F12153   3.557   4.507   6.266  0.7721  0.2174  0.3103
  116OSM     OF12154   3.591   4.543   6.155  0.2337 -0.1639 -0.6191
  116OSM    C2F12155   3.581   4.588   6.388  0.3826 -0.5002  0.4768
  116OSM    H2F12156   3.490   4.582   6.451 -1.4110  1.4945 -1.7176
  116OSM    H2G12157   3.569   4.694   6.357 -0.4250 -0.6430  0.2759
  116OSM    C3F12158   3.706   4.552   6.462 -0.4481  0.7021  0.0683
  116OSM    H3F12159   3.793   4.584   6.401  0.0343  0.1247  0.4329
  116OSM    H3G12160   3.718   4.443   6.484 -1.8488  0.2765 -1.0666
  116OSM    C4F12161   3.714   4.612   6.605  0.5142  0.5444  0.3610
  116OSM    H4F12162   3.818   4.598   6.644  0.5242  0.9273  0.4750
  116OSM    H4G12163   3.645   4.553   6.669  2.2288 -0.2480  1.5571
  116OSM    C5F12164   3.666   4.761   6.608  0.2538  0.0023  0.5072
  116OSM    H5F12165   3.556   4.750   6.594  0.7766 -3.8139 -2.1261
  116OSM    H5G12166   3.710   4.812   6.519  1.9696  0.9563  1.8446
  116OSM    C6F12167   3.713   4.828   6.738  0.0584  0.3590  0.2285
  116OSM    H6F12168   3.729   4.937   6.722 -1.3439  0.4268 -0.8530
  116OSM    H6G12169   3.809   4.783   6.772  0.2137  0.8109  0.4078
  116OSM    C7F12170   3.606   4.823   6.847  0.4965 -0.0585 -0.4689
  116OSM    H7F12171   3.511   4.793   6.798  0.4159 -0.4807 -0.0600
  116OSM    H7G12172   3.583   4.928   6.875  0.9196 -0.4349  1.4382
  116OSM    C8F12173   3.634   4.728   6.970 -0.2269  0.5456 -0.2492
  116OSM    H8F12174   3.655   4.625   6.937 -1.6297  0.5989 -1.3908
  116OSM    H8G12175   3.536   4.708   7.019  0.8975 -2.4048  1.0045
  116OSM    C9F12176   3.739   4.767   7.069 -0.1453 -0.0201  0.1635
  116OSM    H9F12177   3.844   4.747   7.044  0.3910  0.2258  2.0777
  116OSM   C10F12178   3.711   4.823   7.191  0.0966 -0.3383  0.3367
  116OSM   H10F12179   3.785   4.851   7.267  0.2111  0.5284 -0.0839
  116OSM   C11F12180   3.568   4.834   7.249 -0.0579  0.1120 -0.1491
  116OSM   H11F12181   3.512   4.742   7.221 -0.2922  0.4522 -0.8154
  116OSM   H11G12182   3.516   4.924   7.207  2.2245  0.9108 -1.4023
  116OSM   C12F12183   3.565   4.834   7.405 -0.4464 -0.3406 -0.3967
  116OSM   H12F12184   3.633   4.759   7.449  0.5332  0.0588 -1.1785
  116OSM   H12G12185   3.460   4.811   7.434 -0.5959  0.3087 -0.4052
  116OSM   C13F12186   3.598   4.965   7.469  0.2024 -0.4646  0.5411
  116OSM   H13F12187   3.518   5.036   7.438  1.2754  0.6380  0.2342
  116OSM   H13G12188   3.692   5.003   7.425  0.3830  0.1561  1.4283
  116OSM   C14F12189   3.612   4.962   7.621  0.0560  0.1048  0.0489
  116OSM   H14F12190   3.652   5.060   7.656  1.3668 -0.7410  0.9943
  116OSM   H14G12191   3.687   4.882   7.634  1.0406  0.4440 -2.7769
  116OSM   C15F12192   3.484   4.944   7.702  0.6307  0.0407 -0.0976
  116OSM   H15F12193   3.418   4.863   7.665 -0.3752  1.1497 -0.8124
  116OSM   H15G12194   3.426   5.038   7.690 -0.5294 -0.5817  0.4694
  116OSM   C16F12195   3.512   4.909   7.848 -1.1414 -0.1610 -0.0594
  116OSM   H16F12196   3.579   4.985   7.893 -2.1684 -0.6303  2.4287
  116OSM   H16G12197   3.561   4.810   7.858 -0.6948  0.0706  0.0710
  116OSM   C17F12198   3.386   4.916   7.940 -0.0977 -0.1743 -0.3000
  116OSM   H17F12199   3.298   4.878   7.883  0.8671 -1.3345 -1.0773
  116OSM   H17G12200   3.371   5.021   7.973  2.2469  0.4419 -0.9914
  116OSM   C18F12201   3.392   4.839   8.069 -0.1662 -0.5696  1.0547
  116OSM   H18F12202   3.420   4.733   8.049  0.8161 -0.1027 -0.1322
  116OSM   H18G12203   3.292   4.836   8.116 -0.0915 -2.1095  1.1728
  116OSM   H18H12204   3.465   4.886   8.138  2.4456 -0.5307 -1.5204
  117OSM      N12205   2.423   1.405   6.512  0.4397  0.4754  0.8882
  117OSM    C1512206   2.278   1.380   6.492  0.0612  0.6003 -0.5496
  117OSM   H15A12207   2.209   1.454   6.528 -0.3017 -0.9704  2.3649
  117OSM   H15B12208   2.244   1.291   6.543  0.3423  0.5762 -0.4002
  117OSM   H15C12209   2.241   1.363   6.392  1.2771  0.9235 -1.0756
  117OSM    C1412210   2.458   1.530   6.434 -0.0501  0.1009  0.1950
  117OSM   H14A12211   2.564   1.530   6.410  0.0015  0.4134  0.4128
  117OSM   H14B12212   2.437   1.616   6.496 -2.7903 -1.1920  1.1968
  117OSM   H14C12213   2.402   1.539   6.342 -0.3964 -0.8482  0.3088
  117OSM    C1312214   2.436   1.428   6.654 -0.0314  0.2938  0.6669
  117OSM   H13A12215   2.382   1.516   6.686 -0.0693 -0.1202  1.8087
  117OSM   H13B12216   2.539   1.438   6.683  0.3112  1.7342 -0.8994
  117OSM   H13C12217   2.398   1.344   6.711  0.8440 -0.2552  0.4545
  117OSM    C1212218   2.498   1.275   6.467 -0.5338 -0.0407 -0.3229
  117OSM   H12A12219   2.449   1.193   6.518  1.9475 -0.3845  1.7037
  117OSM   H12B12220   2.596   1.274   6.511 -2.0987  2.1552  3.8171
  117OSM    C1112221   2.502   1.238   6.316  0.7108 -0.0277 -0.9307
  117OSM   H11A12222   2.398   1.248   6.280 -0.5645 -0.8163  2.1691
  117OSM   H11B12223   2.519   1.129   6.303  1.9577  0.0641 -0.2414
  117OSM      P12224   2.746   1.295   6.254  0.1703 -0.0369 -0.1989
  117OSM    O1312225   2.791   1.214   6.139  0.0722  0.1566 -0.6160
  117OSM    O1412226   2.807   1.429   6.269  0.1820 -0.0284  0.4413
  117OSM    O1112227   2.772   1.224   6.392 -0.4342 -0.0039  0.1890
  117OSM    O1212228   2.590   1.319   6.241 -0.0271 -0.5804 -0.9829
  117OSM    C1S12229   2.913   1.180   6.416  0.4560 -0.9153 -0.0621
  117OSM    H1S12230   2.993   1.228   6.356  0.8894 -0.9406  0.4828
  117OSM    H1T12231   2.926   1.074   6.388 -0.2015 -1.7410  2.4783
  117OSM     NF12232   3.090   1.146   6.589 -0.0759 -0.2495 -0.5230
  117OSM    HNF12233   3.097   1.056   6.632  1.5023  0.0343 -0.1120
  117OSM    C2S12234   2.956   1.194   6.567  0.7864  0.3641  0.6839
  117OSM    H2S12235   2.942   1.302   6.592  1.6685  0.3088  1.5143
  117OSM    C3S12236   2.852   1.115   6.658 -0.0466  0.4786  0.3047
  117OSM    H3S12237   2.867   1.006   6.640 -0.0204  0.2792  1.4630
  117OSM     O312238   2.714   1.146   6.628 -0.0246  0.0749  0.1687
  117OSM    HO312239   2.721   1.159   6.533 -1.9630 -1.1813 -0.2051
  117OSM    C4S12240   2.878   1.140   6.801 -0.4461  0.3476 -0.0778
  117OSM    H4S12241   2.949   1.070   6.848 -1.3565 -0.1135  0.6621
  117OSM    C5S12242   2.821   1.218   6.889  0.6406  0.2499 -0.1275
  117OSM    H5S12243   2.733   1.274   6.852 -0.0604 -1.4651 -1.1570
  117OSM    C6S12244   2.841   1.231   7.039 -0.7719 -0.4467  0.0230
  117OSM    H6S12245   2.743   1.222   7.089 -1.0733 -0.6533 -0.5890
  117OSM    H6T12246   2.890   1.327   7.065 -0.5994 -1.3484  3.4695
  117OSM    C7S12247   2.917   1.111   7.110 -0.7553 -0.4534 -0.3543
  117OSM    H7S12248   3.018   1.089   7.068 -0.5394  0.6048 -0.4099
  117OSM    H7T12249   2.853   1.023   7.088 -1.9050  0.1917  0.3488
  117OSM    C8S12250   2.930   1.118   7.269  0.5265  0.2564 -0.1004
  117OSM    H8S12251   2.984   1.212   7.291  0.5599  0.1738  0.1681
  117OSM    H8T12252   2.996   1.035   7.302  0.2965 -0.5624 -1.5952
  117OSM    C9S12253   2.795   1.121   7.343  0.5165  0.0916  0.4791
  117OSM    H9S12254   2.753   1.018   7.332 -0.4562  0.4367  0.8756
  117OSM    H9T12255   2.734   1.207   7.309  2.0145  0.8306 -0.4799
  117OSM   C10S12256   2.799   1.134   7.495  1.2438  0.6376  0.1932
  117OSM   H10S12257   2.829   1.238   7.519  0.7912  0.2484  2.7123
  117OSM   H10T12258   2.885   1.067   7.517  0.1525 -0.8800  0.0002
  117OSM   C11S12259   2.660   1.101   7.549  0.5575  0.3414  0.2071
  117OSM   H11S12260   2.616   1.008   7.508 -1.7858  0.6434  1.8270
  117OSM   H11T12261   2.593   1.184   7.517 -0.9662 -0.2996  1.6053
  117OSM   C12S12262   2.670   1.089   7.701  0.3908  0.0928  0.1704
  117OSM   H12S12263   2.759   1.029   7.730  1.4458  1.8027  0.6359
  117OSM   H12T12264   2.578   1.037   7.736 -0.0170  1.5041  1.3284
  117OSM   C13S12265   2.701   1.226   7.758  0.1745  1.5502  0.0545
  117OSM   H13S12266   2.614   1.294   7.746 -0.8674  0.2732  0.1420
  117OSM   H13T12267   2.785   1.277   7.708  0.2365  0.0516 -1.4372
  117OSM   C14S12268   2.738   1.220   7.904  0.0347 -0.9090 -0.4732
  117OSM   H14S12269   2.778   1.317   7.941 -0.2031 -0.8817 -0.2855
  117OSM   H14T12270   2.825   1.152   7.906  1.8581  1.2839 -0.7914
  117OSM   C15S12271   2.616   1.185   7.993  0.2108  0.0805  0.3280
  117OSM   H15S12272   2.588   1.083   7.959  2.2807  0.1691 -1.9638
  117OSM   H15T12273   2.539   1.261   7.968  0.6539 -0.2488 -2.3680
  117OSM   C16S12274   2.653   1.198   8.143  0.4380 -0.6576  0.2155
  117OSM   H16S12275   2.566   1.173   8.208  1.9906 -1.6628  2.0236
  117OSM   H16T12276   2.689   1.302   8.162 -2.8285  0.9341 -1.5286
  117OSM   C17S12277   2.770   1.104   8.164 -0.1098  0.1895 -0.3314
  117OSM   H17S12278   2.854   1.175   8.148 -1.0645  0.9657 -2.1793
  117OSM   H17T12279   2.762   1.019   8.092 -0.5106  1.2159 -1.5308
  117OSM   C18S12280   2.780   1.050   8.307  0.4552  0.0992  0.3335
  117OSM   H18S12281   2.693   0.982   8.317 -3.2320  3.9921 -1.9684
  117OSM   H18T12282   2.771   1.133   8.380  2.6043  0.4417  0.2816
  117OSM   H18U12283   2.877   0.998   8.321  0.4582  0.4217  1.6367
  117OSM    C1F12284   3.197   1.225   6.575  1.1180  0.1128  0.1021
  117OSM     OF12285   3.177   1.345   6.541 -0.3674 -0.1574 -0.5902
  117OSM    C2F12286   3.333   1.161   6.598  0.2016 -0.0503  0.3815
  117OSM    H2F12287   3.340   1.088   6.514  0.1305  0.1747  0.1784
  117OSM    H2G12288   3.332   1.105   6.694 -1.2247 -2.2528 -0.8316
  117OSM    C3F12289   3.438   1.275   6.603 -0.1338  0.7280  0.3210
  117OSM    H3F12290   3.417   1.357   6.675  2.2804  0.6509  1.2114
  117OSM    H3G12291   3.441   1.325   6.504 -1.2796 -0.0787 -0.1434
  117OSM    C4F12292   3.577   1.216   6.636  0.5009  0.6625 -0.4018
  117OSM    H4F12293   3.600   1.134   6.565 -0.2876  0.6609 -0.6662
  117OSM    H4G12294   3.570   1.158   6.730  1.5350  0.5068 -0.4021
  117OSM    C5F12295   3.692   1.316   6.662 -0.1503 -0.1978 -0.3076
  117OSM    H5F12296   3.720   1.378   6.575 -0.7322 -0.7376 -0.8846
  117OSM    H5G12297   3.783   1.258   6.693  0.6354  1.5134  0.7042
  117OSM    C6F12298   3.658   1.425   6.769 -0.0076 -0.4086 -0.5943
  117OSM    H6F12299   3.627   1.375   6.863  0.9888  1.7642  0.9582
  117OSM    H6G12300   3.566   1.472   6.729 -1.2847 -1.9378  0.3964
  117OSM    C7F12301   3.766   1.530   6.796  0.3766 -0.0992 -0.2297
  117OSM    H7F12302   3.781   1.583   6.699  1.4851 -1.4810 -0.8544
  117OSM    H7G12303   3.863   1.481   6.819 -0.4352 -1.9931 -0.6879
  117OSM    C8F12304   3.725   1.629   6.913 -0.4246 -0.0641 -0.3054
  117OSM    H8F12305   3.687   1.567   6.997  1.8841 -1.6169 -0.3089
  117OSM    H8G12306   3.634   1.688   6.889  0.4786  1.7127  0.4085
  117OSM    C9F12307   3.838   1.718   6.960  0.1636 -0.0961 -0.3912
  117OSM    H9F12308   3.877   1.783   6.880 -1.1118  0.9883 -0.1599
  117OSM   C10F12309   3.895   1.716   7.081 -0.0205 -0.8350  0.0677
  117OSM   H10F12310   3.984   1.773   7.110 -0.0114  0.4069 -2.1724
  117OSM   C11F12311   3.863   1.626   7.195 -0.5921  0.0696  0.2274
  117OSM   H11F12312   3.947   1.621   7.268 -1.9304 -1.4591  1.7426
  117OSM   H11G12313   3.852   1.524   7.153 -2.4166  0.8554 -1.3539
  117OSM   C12F12314   3.734   1.654   7.279  0.2332 -0.5676  0.0752
  117OSM   H12F12315   3.648   1.676   7.211  1.1834 -1.1564 -1.3587
  117OSM   H12G12316   3.758   1.748   7.334  0.2140 -0.6947  0.3036
  117OSM   C13F12317   3.708   1.539   7.377  0.1678  0.5644 -0.2200
  117OSM   H13F12318   3.720   1.441   7.326 -3.6289 -0.1359 -0.0097
  117OSM   H13G12319   3.600   1.536   7.402  0.4128 -1.1552  0.7324
  117OSM   C14F12320   3.788   1.541   7.502 -0.4560  0.1782  0.4908
  117OSM   H14F12321   3.896   1.541   7.475 -0.4747  0.3422  0.4118
  117OSM   H14G12322   3.762   1.450   7.559 -0.1574 -0.1914  0.0458
  117OSM   C15F12323   3.761   1.665   7.594  0.0843  0.0141 -0.1583
  117OSM   H15F12324   3.651   1.676   7.604  0.4226  3.4056  1.5332
  117OSM   H15G12325   3.799   1.766   7.566  1.4708  0.1168  1.9142
  117OSM   C16F12326   3.830   1.657   7.728  0.7429 -0.1413  0.1542
  117OSM   H16F12327   3.940   1.654   7.712  0.9545  5.3460 -1.4463
  117OSM   H16G12328   3.792   1.568   7.783  0.6313  0.0556  0.3988
  117OSM   C17F12329   3.798   1.786   7.806 -0.2567  0.1599 -0.7741
  117OSM   H17F12330   3.834   1.873   7.746 -1.5918 -0.1261 -2.0542
  117OSM   H17G12331   3.689   1.803   7.799 -0.1865  0.9812 -0.0161
  117OSM   C18F12332   3.854   1.795   7.948  0.1309 -0.5221 -0.1263
  117OSM   H18F12333   3.834   1.892   7.998 -1.2242 -1.9581  2.3234
  117OSM   H18G12334   3.963   1.777   7.956  0.2812 -0.5091 -1.7793
  117OSM   H18H12335   3.807   1.714   8.008 -0.4528  0.6235  1.0285
  118OSM      N12336   5.320   6.021   6.257 -0.2220  0.1069 -0.3242
  118OSM    C1512337   5.332   5.970   6.117 -0.3460  0.5890 -0.2658
  118OSM   H15A12338   5.416   5.903   6.107 -1.2195 -1.2601  3.2883
  118OSM   H15B12339   5.332   6.049   6.042 -2.6802 -0.6012 -1.6369
  118OSM   H15C12340   5.246   5.910   6.090  1.2331 -1.0811 -1.9142
  118OSM    C1412341   5.425   6.127   6.271 -0.4127  0.2632  0.0253
  118OSM   H14A12342   5.526   6.097   6.245 -0.2544  2.4666 -2.2902
  118OSM   H14B12343   5.440   6.155   6.374  1.6082 -0.6964  0.0341
  118OSM   H14C12344   5.404   6.218   6.216 -2.8798  1.6699  2.9933
  118OSM    C1312345   5.189   6.095   6.271 -0.4217 -0.0781 -0.0503
  118OSM   H13A12346   5.192   6.166   6.353 -2.1719  3.1945 -2.5976
  118OSM   H13B12347   5.100   6.035   6.280 -0.9183  0.8025  1.3149
  118OSM   H13C12348   5.180   6.148   6.178  1.8641 -0.1068 -0.3482
  118OSM    C1212349   5.333   5.911   6.363 -0.3820 -0.1245  0.3648
  118OSM   H12A12350   5.421   5.853   6.338  0.5786  1.2679  0.4318
  118OSM   H12B12351   5.250   5.842   6.357 -0.8603  0.5673 -1.3999
  118OSM    C1112352   5.337   5.951   6.511 -0.1377 -0.1455 -0.3535
  118OSM   H11A12353   5.327   5.861   6.576  0.3490  0.3756  0.4694
  118OSM   H11B12354   5.265   6.028   6.544  1.8607  2.2692 -1.2924
  118OSM      P12355   5.610   5.955   6.537  0.1038  0.1415  0.0869
  118OSM    O1312356   5.614   5.848   6.431 -0.6998 -0.8362 -0.3704
  118OSM    O1412357   5.716   6.059   6.533 -0.4514 -0.4436  0.2435
  118OSM    O1112358   5.610   5.880   6.677  0.0263 -0.3324  0.1005
  118OSM    O1212359   5.463   6.022   6.528  0.8091 -0.1046  0.5189
  118OSM    C1S12360   5.733   5.815   6.705 -0.7937  0.1670  0.1886
  118OSM    H1S12361   5.825   5.878   6.708  0.0140 -1.0188  1.5938
  118OSM    H1T12362   5.766   5.742   6.628  1.2320  1.4977 -0.2834
  118OSM     NF12363   5.866   5.693   6.878 -0.0224 -0.5553 -0.8814
  118OSM    HNF12364   5.870   5.595   6.861 -0.0416 -0.7326  0.0894
  118OSM    C2S12365   5.737   5.759   6.852 -1.4088  0.0880 -0.3128
  118OSM    H2S12366   5.730   5.837   6.931 -0.6735 -0.6842  0.5376
  118OSM    C3S12367   5.614   5.669   6.878 -0.3691  0.6209 -0.3085
  118OSM    H3S12368   5.632   5.584   6.809  1.6057  1.3284 -0.7422
  118OSM     O312369   5.487   5.731   6.854  0.5304  0.1746 -0.3821
  118OSM    HO312370   5.506   5.819   6.822 -0.9540  0.6780  0.0026
  118OSM    C4S12371   5.617   5.620   7.026 -0.0905  0.2327 -0.3608
  118OSM    H4S12372   5.651   5.694   7.101  0.1620 -0.2422 -0.0017
  118OSM    C5S12373   5.596   5.491   7.068  0.2698  0.4883  0.0469
  118OSM    H5S12374   5.571   5.412   6.996 -1.9813 -0.1412  1.4156
  118OSM    C6S12375   5.598   5.453   7.217 -0.8881  0.0403  0.5950
  118OSM    H6S12376   5.541   5.360   7.238 -0.1954 -1.5751 -3.7210
  118OSM    H6T12377   5.554   5.539   7.272  0.2052  0.9089  0.1475
  118OSM    C7S12378   5.739   5.443   7.273 -0.1940  0.1596  0.0882
  118OSM    H7S12379   5.788   5.541   7.256  1.4831 -0.3665  1.5423
  118OSM    H7T12380   5.807   5.374   7.218  1.0468  0.5914  1.0503
  118OSM    C8S12381   5.737   5.437   7.429  0.3886  0.2211  0.0933
  118OSM    H8S12382   5.672   5.522   7.461  0.9572 -0.5191  3.5650
  118OSM    H8T12383   5.841   5.448   7.465 -0.4009  1.5164  2.1066
  118OSM    C9S12384   5.676   5.312   7.491  0.1220 -0.5266 -0.6091
  118OSM    H9S12385   5.704   5.227   7.425  1.4713 -1.9802  1.6664
  118OSM    H9T12386   5.565   5.309   7.501  0.1778  1.2507  1.2124
  118OSM   C10S12387   5.739   5.277   7.623  0.1885 -0.2297 -1.4117
  118OSM   H10S12388   5.850   5.276   7.624  0.1953  0.4078 -1.1917
  118OSM   H10T12389   5.707   5.177   7.658 -0.9174  0.7545  0.5486
  118OSM   C11S12390   5.706   5.391   7.732 -0.6297  0.7679  0.1653
  118OSM   H11S12391   5.596   5.405   7.737 -1.1488 -2.6284  1.0777
  118OSM   H11T12392   5.762   5.481   7.700  1.6468  0.0879  1.9093
  118OSM   C12S12393   5.746   5.343   7.873  0.2133  0.5133 -0.8579
  118OSM   H12S12394   5.840   5.283   7.876 -0.6370 -0.8571  0.8132
  118OSM   H12T12395   5.658   5.290   7.916  0.6242  0.1092 -0.4984
  118OSM   C13S12396   5.783   5.457   7.971  0.3299 -0.6072 -0.1903
  118OSM   H13S12397   5.847   5.529   7.915 -2.2382 -0.2178 -2.9023
  118OSM   H13T12398   5.822   5.418   8.067 -1.8905  1.0112  1.4693
  118OSM   C14S12399   5.661   5.546   8.013 -0.7472  0.0194 -0.1334
  118OSM   H14S12400   5.587   5.475   8.057 -0.2639  0.8766  2.2054
  118OSM   H14T12401   5.622   5.600   7.924  0.4376  1.2398  0.0621
  118OSM   C15S12402   5.705   5.655   8.106 -0.1604 -0.0779 -0.6654
  118OSM   H15S12403   5.810   5.684   8.087 -0.4995  1.5883 -0.1602
  118OSM   H15T12404   5.704   5.603   8.204  1.2034  0.0848 -0.5415
  118OSM   C16S12405   5.619   5.779   8.112  0.5772  0.1430  1.1016
  118OSM   H16S12406   5.512   5.748   8.105  0.2180  1.5424 -0.5120
  118OSM   H16T12407   5.647   5.850   8.031 -2.0146  1.1304  0.9719
  118OSM   C17S12408   5.635   5.860   8.243  0.6490  0.4015 -0.2797
  118OSM   H17S12409   5.596   5.791   8.321  0.8084  1.0710  0.3996
  118OSM   H17T12410   5.565   5.946   8.247 -0.5370 -0.3383 -2.9251
  118OSM   C18S12411   5.775   5.904   8.279  0.0475  0.3423  0.1253
  118OSM   H18S12412   5.769   5.964   8.373  0.7672  0.5192  0.0663
  118OSM   H18T12413   5.835   5.964   8.206 -1.6192  2.3603  0.3158
  118OSM   H18U12414   5.838   5.814   8.290 -2.0365 -1.3720 -1.2180
  118OSM    C1F12415   5.972   5.769   6.911  0.6122  0.1534 -0.5915
  118OSM     OF12416   5.970   5.892   6.907  0.4902 -0.6307 -0.2878
  118OSM    C2F12417   6.091   5.694   6.962  0.4498 -0.2018  0.2449
  118OSM    H2F12418   6.185   5.720   6.909  1.1738  3.2504  2.8593
  118OSM    H2G12419   6.066   5.586   6.967 -0.6144 -0.0548 -1.2296
  118OSM    C3F12420   6.129   5.724   7.109 -0.7840 -0.1611 -0.1262
  118OSM    H3F12421   6.145   5.834   7.119  1.0469 -0.4308  0.2171
  118OSM    H3G12422   6.226   5.675   7.133 -0.3647  0.5608 -0.2982
  118OSM    C4F12423   6.015   5.687   7.205  0.3439 -0.0847 -0.1521
  118OSM    H4F12424   5.989   5.580   7.219 -1.1833  0.1477 -0.9376
  118OSM    H4G12425   5.922   5.738   7.171  0.1386 -0.3069  0.0760
  118OSM    C5F12426   6.056   5.741   7.345  0.0990 -0.5442 -0.2681
  118OSM    H5F12427   6.095   5.842   7.320 -0.6699 -0.1463  0.1257
  118OSM    H5G12428   6.138   5.674   7.380 -0.7682 -1.8213 -0.6096
  118OSM    C6F12429   5.943   5.741   7.444 -0.2285 -0.7652 -0.5455
  118OSM    H6F12430   5.931   5.633   7.463  1.8701 -1.4605 -2.6400
  118OSM    H6G12431   5.859   5.791   7.391  0.2278 -0.3536 -0.8960
  118OSM    C7F12432   5.977   5.819   7.573 -0.5548  0.8258  0.1617
  118OSM    H7F12433   6.061   5.765   7.622  1.1335  0.0041 -3.3711
  118OSM    H7G12434   5.882   5.816   7.631 -2.0288 -0.5357 -2.1895
  118OSM    C8F12435   6.005   5.967   7.547  0.9834 -0.1039  0.3186
  118OSM    H8F12436   5.967   5.986   7.445  1.5159  1.5312  0.3861
  118OSM    H8G12437   6.110   5.994   7.523  1.2037  1.8269  3.0366
  118OSM    C9F12438   5.953   6.068   7.640  0.5207 -0.3720 -0.1096
  118OSM    H9F12439   5.844   6.079   7.646  0.3156 -1.3528 -1.5087
  118OSM   C10F12440   6.030   6.130   7.731 -0.1631 -0.2429 -0.3670
  118OSM   H10F12441   5.988   6.209   7.796 -1.0773 -1.4276  0.5149
  118OSM   C11F12442   6.179   6.102   7.755 -0.1994  0.1026 -0.8077
  118OSM   H11F12443   6.237   6.181   7.705 -0.2062  1.4296  1.1768
  118OSM   H11G12444   6.200   6.000   7.717  0.2797  0.6870 -2.1555
  118OSM   C12F12445   6.219   6.108   7.909 -0.9080 -0.1743 -0.3424
  118OSM   H12F12446   6.221   6.213   7.947  0.5219 -0.0648 -0.6539
  118OSM   H12G12447   6.325   6.076   7.923  0.1396  3.4590  1.3298
  118OSM   C13F12448   6.130   6.027   7.993 -0.3227  0.4794 -0.4673
  118OSM   H13F12449   6.020   6.046   7.993 -0.2041  1.1721  0.1887
  118OSM   H13G12450   6.162   6.043   8.098 -0.2273 -2.6678  0.0950
  118OSM   C14F12451   6.156   5.876   7.982  0.3869 -0.1442 -0.3247
  118OSM   H14F12452   6.266   5.862   7.980  0.5898  1.2722 -2.5083
  118OSM   H14G12453   6.116   5.843   7.884 -0.8939 -1.8469  0.7164
  118OSM   C15F12454   6.075   5.795   8.084 -0.8997 -0.3019 -0.2642
  118OSM   H15F12455   5.967   5.815   8.065 -1.0962 -0.1086  0.9711
  118OSM   H15G12456   6.089   5.837   8.186 -0.2894 -1.1960  0.0332
  118OSM   C16F12457   6.094   5.641   8.086  0.1627  0.7557 -0.2942
  118OSM   H16F12458   6.203   5.618   8.078  0.1857  0.2470  1.2109
  118OSM   H16G12459   6.046   5.598   7.995 -0.0184 -1.3947  0.7684
  118OSM   C17F12460   6.048   5.582   8.223 -0.8497  0.2698 -0.0766
  118OSM   H17F12461   5.939   5.600   8.234 -0.6045  2.3388 -0.6572
  118OSM   H17G12462   6.100   5.640   8.301 -1.6779  3.7868 -1.9248
  118OSM   C18F12463   6.077   5.433   8.229 -0.1319  0.4165 -0.5852
  118OSM   H18F12464   6.019   5.381   8.150  0.5023 -2.3355  0.6436
  118OSM   H18G12465   6.038   5.386   8.322  0.4614 -1.8052 -1.3807
  118OSM   H18H12466   6.180   5.398   8.204 -0.2832 -0.7311  0.3057
  119OSM      N12467   6.490   0.394   6.356  0.2115 -0.2509 -0.2819
  119OSM    C1512468   6.577   0.519   6.349 -0.4198  0.5426  0.5527
  119OSM   H15A12469   6.681   0.491   6.355 -0.0346 -0.2574 -4.8402
  119OSM   H15B12470   6.556   0.594   6.423  0.1613 -0.6489  1.9796
  119OSM   H15C12471   6.567   0.559   6.249 -1.1872 -0.0719  0.3752
  119OSM    C1412472   6.350   0.429   6.316  0.7406  0.5169  0.1378
  119OSM   H14A12473   6.285   0.347   6.293  3.2391 -1.3224 -0.8564
  119OSM   H14B12474   6.348   0.498   6.233 -0.7162  1.6427  1.0644
  119OSM   H14C12475   6.301   0.490   6.390 -0.5992  2.9501 -2.5306
  119OSM    C1312476   6.546   0.294   6.257 -0.2995 -0.5640 -0.0962
  119OSM   H13A12477   6.512   0.193   6.279  0.0573 -1.3115 -2.6914
  119OSM   H13B12478   6.653   0.291   6.267 -0.2947  1.2528  0.7694
  119OSM   H13C12479   6.513   0.317   6.157 -0.6484 -1.1435 -0.1216
  119OSM    C1212480   6.486   0.345   6.495 -1.1963  0.3939  0.1805
  119OSM   H12A12481   6.457   0.423   6.563 -0.1368  0.5602  0.4553
  119OSM   H12B12482   6.587   0.314   6.518 -2.0507 -2.2949  0.6133
  119OSM    C1112483   6.402   0.214   6.525 -0.2992  0.4326  0.1682
  119OSM   H11A12484   6.297   0.242   6.504 -0.8599 -0.4989  1.6072
  119OSM   H11B12485   6.399   0.206   6.635 -1.9039 -0.8400  0.0641
  119OSM      P12486   6.567   0.014   6.487  0.1208  0.0242  0.2738
  119OSM    O1312487   6.582  -0.095   6.388  0.4241 -0.0367  0.3855
  119OSM    O1412488   6.681   0.106   6.496  0.2347 -0.2998 -0.1218
  119OSM    O1112489   6.543  -0.046   6.632  0.5668  0.3915 -0.3142
  119OSM    O1212490   6.433   0.093   6.450 -0.4212  0.3298 -0.2627
  119OSM    C1S12491   6.417  -0.116   6.651  0.2257  0.0507 -0.3958
  119OSM    H1S12492   6.416  -0.218   6.606 -1.4749  0.1211 -0.5788
  119OSM    H1T12493   6.336  -0.053   6.610  1.9010  1.0874 -2.2778
  119OSM     NF12494   6.258  -0.220   6.828 -0.1431  0.4699  0.0055
  119OSM    HNF12495   6.184  -0.179   6.881  0.2708 -1.0121  1.8228
  119OSM    C2S12496   6.388  -0.157   6.800  0.4379  0.2965  0.6502
  119OSM    H2S12497   6.464  -0.236   6.815 -1.0862 -0.9578  2.1360
  119OSM    C3S12498   6.416  -0.043   6.895  0.1053 -0.5318  0.1387
  119OSM    H3S12499   6.342   0.038   6.876  0.9889  0.3869  0.5005
  119OSM     O312500   6.546   0.023   6.890 -0.4522  0.2482 -0.0047
  119OSM    HO312501   6.578  -0.015   6.808 -1.1372  1.5778 -0.9317
  119OSM    C4S12502   6.400  -0.078   7.034  0.4225  0.7618  0.3953
  119OSM    H4S12503   6.485  -0.136   7.073  2.2374  1.7951 -1.7571
  119OSM    C5S12504   6.329  -0.015   7.122 -0.6368 -0.0338 -0.4154
  119OSM    H5S12505   6.275   0.077   7.095  0.3994  0.9793  0.7927
  119OSM    C6S12506   6.340  -0.035   7.273  0.3504  0.1237  0.1800
  119OSM    H6S12507   6.424  -0.098   7.309 -1.6196 -0.9144  3.3952
  119OSM    H6T12508   6.250  -0.081   7.318 -0.1035  1.5595  0.7830
  119OSM    C7S12509   6.345   0.105   7.339  1.0667 -0.7224 -0.1116
  119OSM    H7S12510   6.270   0.178   7.302  0.6517  0.1063  2.1989
  119OSM    H7T12511   6.445   0.143   7.307  1.0727  0.5609  1.3464
  119OSM    C8S12512   6.338   0.112   7.493  0.3240  1.2395  0.1496
  119OSM    H8S12513   6.419   0.055   7.543  1.4406  2.7481  0.1125
  119OSM    H8T12514   6.242   0.066   7.527  0.9572  0.6870  1.2632
  119OSM    C9S12515   6.347   0.252   7.551 -0.2921 -0.7928 -0.2745
  119OSM    H9S12516   6.286   0.325   7.494 -1.8134  1.2538  3.5859
  119OSM    H9T12517   6.456   0.274   7.552  0.0055 -2.1177  1.5068
  119OSM   C10S12518   6.305   0.263   7.699  0.0155  0.2617  0.8647
  119OSM   H10S12519   6.201   0.230   7.717  0.2159  0.3315  2.2335
  119OSM   H10T12520   6.300   0.369   7.730 -1.1209 -0.0340  1.7659
  119OSM   C11S12521   6.396   0.197   7.803 -0.5474 -0.0021  0.9177
  119OSM   H11S12522   6.494   0.248   7.802 -0.2581  0.1954 -5.4345
  119OSM   H11T12523   6.415   0.095   7.764  1.3580  0.1863  1.2811
  119OSM   C12S12524   6.346   0.191   7.945  0.6621  0.9800 -0.9893
  119OSM   H12S12525   6.246   0.144   7.956  0.1566  2.2196  0.0331
  119OSM   H12T12526   6.327   0.297   7.974  0.1646  0.5795  0.2066
  119OSM   C13S12527   6.445   0.155   8.063  0.5507  0.7806  0.3770
  119OSM   H13S12528   6.545   0.203   8.058  1.1256 -0.5040 -2.1704
  119OSM   H13T12529   6.465   0.047   8.049 -2.7898  0.1290 -0.1864
  119OSM   C14S12530   6.403   0.177   8.206  0.8901 -0.1929  0.4216
  119OSM   H14S12531   6.412   0.286   8.223 -0.3881  0.2760 -1.5682
  119OSM   H14T12532   6.475   0.123   8.272  1.0881  0.1409  0.4787
  119OSM   C15S12533   6.255   0.127   8.239  0.1711 -0.0114  0.5183
  119OSM   H15S12534   6.253   0.021   8.206 -1.5241 -0.0557  0.7064
  119OSM   H15T12535   6.184   0.177   8.170 -2.0043 -1.7159  1.4115
  119OSM   C16S12536   6.216   0.135   8.386 -0.7820 -0.5036  0.3092
  119OSM   H16S12537   6.214   0.238   8.428 -1.6552 -0.0832 -0.7068
  119OSM   H16T12538   6.305   0.088   8.434  0.3303  0.8400 -0.3629
  119OSM   C17S12539   6.096   0.054   8.420  0.2595  0.8199  0.3487
  119OSM   H17S12540   6.078   0.050   8.530  0.3672  1.5620  0.4010
  119OSM   H17T12541   6.105  -0.050   8.382  1.4639  0.7434  0.8066
  119OSM   C18S12542   5.967   0.112   8.359 -0.1794 -0.4443  0.4902
  119OSM   H18S12543   5.989   0.131   8.252  2.1464 -0.2952  0.9449
  119OSM   H18T12544   5.937   0.210   8.402 -0.3869  1.8681 -4.2768
  119OSM   H18U12545   5.884   0.040   8.376  0.9972 -1.7056  1.0422
  119OSM    C1F12546   6.248  -0.346   6.790  0.0581  0.1964  0.1717
  119OSM     OF12547   6.336  -0.400   6.722 -0.4730  0.0421 -0.0294
  119OSM    C2F12548   6.127  -0.424   6.825 -0.1328 -0.0787 -0.1044
  119OSM    H2F12549   6.099  -0.489   6.739 -3.3686  2.6918 -1.3685
  119OSM    H2G12550   6.042  -0.355   6.845  0.0908 -0.4167  2.2608
  119OSM    C3F12551   6.149  -0.517   6.944  0.5543 -0.9239 -0.2768
  119OSM    H3F12552   6.251  -0.561   6.941  1.0410  0.1734 -0.2876
  119OSM    H3G12553   6.071  -0.594   6.923 -0.4085 -0.5647  1.7370
  119OSM    C4F12554   6.137  -0.454   7.083 -0.6701  0.7471  0.1975
  119OSM    H4F12555   6.058  -0.376   7.086 -1.1952  0.3422 -1.7738
  119OSM    H4G12556   6.225  -0.389   7.099 -0.6670  0.4857  1.3065
  119OSM    C5F12557   6.128  -0.556   7.195  0.0810 -0.2201  0.6292
  119OSM    H5F12558   6.208  -0.632   7.176 -1.0257 -1.2789  0.0589
  119OSM    H5G12559   6.034  -0.614   7.189  0.5820 -1.0433  0.6109
  119OSM    C6F12560   6.169  -0.491   7.333 -0.1597 -0.4145 -0.6647
  119OSM    H6F12561   6.268  -0.445   7.319 -0.8903  1.7046  0.7401
  119OSM    H6G12562   6.184  -0.572   7.407  1.9988 -1.0211 -1.6817
  119OSM    C7F12563   6.061  -0.382   7.376  0.5050  0.8292  0.0187
  119OSM    H7F12564   5.963  -0.431   7.358  0.9398  0.0062 -0.1684
  119OSM    H7G12565   6.081  -0.296   7.308  0.9871  1.2061  0.6204
  119OSM    C8F12566   6.069  -0.352   7.524 -0.7982 -0.5520 -0.6228
  119OSM    H8F12567   6.045  -0.449   7.571  0.0733 -0.7005 -0.4725
  119OSM    H8G12568   5.988  -0.289   7.567 -3.5458 -4.8756  1.2436
  119OSM    C9F12569   6.210  -0.302   7.561  0.2436 -0.5154  0.4365
  119OSM    H9F12570   6.290  -0.350   7.503 -0.3292 -1.0418  0.0620
  119OSM   C10F12571   6.235  -0.211   7.653 -0.4640 -0.5194  0.8517
  119OSM   H10F12572   6.340  -0.187   7.677 -0.2082 -2.7803  2.3246
  119OSM   C11F12573   6.141  -0.148   7.744 -0.3140 -0.3235  0.1258
  119OSM   H11F12574   6.039  -0.143   7.700  0.4794  0.0130 -1.7773
  119OSM   H11G12575   6.167  -0.041   7.759 -1.1871 -0.1652  0.6289
  119OSM   C12F12576   6.130  -0.229   7.874 -0.5499  0.1077  0.1812
  119OSM   H12F12577   6.236  -0.229   7.906 -0.4814  1.5231  0.0045
  119OSM   H12G12578   6.093  -0.330   7.846  2.2176 -0.8109 -0.4074
  119OSM   C13F12579   6.044  -0.163   7.983 -0.3446  0.4902  0.0895
  119OSM   H13F12580   5.947  -0.128   7.943  0.8157  1.6794 -1.8059
  119OSM   H13G12581   6.093  -0.072   8.023 -0.1450  0.7076 -0.6320
  119OSM   C14F12582   6.015  -0.263   8.094  0.2124  0.3260 -0.0090
  119OSM   H14F12583   5.966  -0.352   8.047 -0.3110  0.9469 -0.6653
  119OSM   H14G12584   5.947  -0.216   8.168 -0.3623  1.5524 -1.2799
  119OSM   C15F12585   6.141  -0.302   8.170  0.1714 -0.5832 -0.1992
  119OSM   H15F12586   6.198  -0.210   8.191 -0.9747  0.2107 -0.4603
  119OSM   H15G12587   6.202  -0.375   8.112  0.4855  0.6870 -1.5171
  119OSM   C16F12588   6.123  -0.334   8.324  0.5114  0.0608 -0.0186
  119OSM   H16F12589   6.040  -0.270   8.359 -0.2383 -0.9712  0.1375
  119OSM   H16G12590   6.214  -0.300   8.378  1.1288 -0.8202 -0.4693
  119OSM   C17F12591   6.095  -0.484   8.357  0.6931 -0.3492  0.1063
  119OSM   H17F12592   6.118  -0.502   8.464  3.8217  1.6948 -0.0942
  119OSM   H17G12593   6.165  -0.540   8.290 -0.0738 -0.8326 -0.3036
  119OSM   C18F12594   5.947  -0.530   8.323 -0.7636  0.3634 -0.3897
  119OSM   H18F12595   5.920  -0.607   8.399 -0.7751  0.6725 -0.0811
  119OSM   H18G12596   5.942  -0.569   8.218  1.1788 -0.7358 -0.1371
  119OSM   H18H12597   5.870  -0.451   8.324 -0.1888  0.9202  0.7951
  120OSM      N12598   4.858   3.334   6.509 -0.5412 -0.4505  0.1730
  120OSM    C1512599   4.950   3.345   6.389 -0.2774  0.3139 -0.1644
  120OSM   H15A12600   4.981   3.445   6.362 -2.7137  0.8060 -1.4567
  120OSM   H15B12601   4.901   3.312   6.299  3.0436 -1.8139 -1.3962
  120OSM   H15C12602   5.038   3.286   6.411  0.4358  0.6317 -1.9350
  120OSM    C1412603   4.803   3.194   6.494  0.6777  0.2898  0.3675
  120OSM   H14A12604   4.751   3.190   6.399 -1.5221  1.2487  1.4656
  120OSM   H14B12605   4.729   3.174   6.570 -0.0231 -1.7555 -0.7935
  120OSM   H14C12606   4.881   3.119   6.489 -0.3956 -0.7969 -0.7861
  120OSM    C1312607   4.917   3.358   6.641 -0.3222  0.2979 -0.1559
  120OSM   H13A12608   4.948   3.460   6.654 -2.6681  0.8551  1.8571
  120OSM   H13B12609   5.007   3.301   6.658  0.7180  1.3858 -1.7485
  120OSM   H13C12610   4.843   3.333   6.716  0.2891 -0.3874  0.2356
  120OSM    C1212611   4.749   3.441   6.488  0.6496  0.3817 -0.9679
  120OSM   H12A12612   4.703   3.429   6.392  0.7800 -0.9117 -0.8868
  120OSM   H12B12613   4.795   3.538   6.475 -0.7378  1.2438  0.1775
  120OSM    C1112614   4.633   3.452   6.593 -0.4704 -0.1085  1.3645
  120OSM   H11A12615   4.575   3.540   6.558  2.4971  1.0940 -1.0026
  120OSM   H11B12616   4.675   3.471   6.694  0.2162  2.3964  0.6600
  120OSM      P12617   4.465   3.299   6.465  0.2392  0.2771 -0.1541
  120OSM    O1312618   4.515   3.387   6.355 -0.3243 -0.9403 -0.3746
  120OSM    O1412619   4.462   3.159   6.424 -0.7687 -0.7572 -0.4385
  120OSM    O1112620   4.323   3.334   6.516  0.1544 -0.2239 -0.6163
  120OSM    O1212621   4.557   3.329   6.589  0.4111 -0.1002 -0.4543
  120OSM    C1S12622   4.275   3.255   6.619  0.9163  1.3578 -0.6731
  120OSM    H1S12623   4.315   3.152   6.620  2.3847  1.9070 -0.0615
  120OSM    H1T12624   4.164   3.249   6.616  0.9341  0.3740  0.1236
  120OSM     NF12625   4.251   3.215   6.870  0.4525 -0.2656  0.4476
  120OSM    HNF12626   4.156   3.214   6.902 -0.2780 -0.6927 -1.6018
  120OSM    C2S12627   4.288   3.319   6.767  0.1745  0.2980  0.4743
  120OSM    H2S12628   4.396   3.344   6.776  0.9117 -2.1922 -0.3773
  120OSM    C3S12629   4.215   3.456   6.781  0.6096  0.0401 -0.6328
  120OSM    H3S12630   4.105   3.440   6.769  0.5343  0.1642 -0.1410
  120OSM     O312631   4.236   3.540   6.669 -0.1856  0.1613  0.3017
  120OSM    HO312632   4.272   3.479   6.604  1.5556 -0.2060  1.5452
  120OSM    C4S12633   4.226   3.531   6.907  0.0131 -0.1931  0.2402
  120OSM    H4S12634   4.166   3.488   6.988  0.1279  0.9272  0.9483
  120OSM    C5S12635   4.304   3.642   6.930  0.1063  0.1990 -1.1441
  120OSM    H5S12636   4.350   3.698   6.847  0.5783 -0.5299 -1.3932
  120OSM    C6S12637   4.312   3.714   7.067 -0.3153  0.2838 -0.2281
  120OSM    H6S12638   4.254   3.809   7.071 -0.7571  0.0195 -0.3656
  120OSM    H6T12639   4.419   3.744   7.073 -0.1069 -0.2041 -1.2718
  120OSM    C7S12640   4.259   3.627   7.183  0.4351 -0.4544 -0.7221
  120OSM    H7S12641   4.331   3.545   7.200 -1.2231 -1.7664  0.3613
  120OSM    H7T12642   4.157   3.587   7.160 -0.2446 -0.6039  2.2401
  120OSM    C8S12643   4.231   3.710   7.307 -0.4672  0.1430 -0.1551
  120OSM    H8S12644   4.145   3.776   7.283  0.6012  2.0101  0.9366
  120OSM    H8T12645   4.316   3.778   7.326 -1.7665  2.1829 -1.3222
  120OSM    C9S12646   4.194   3.626   7.433 -0.5942  0.1327  0.5588
  120OSM    H9S12647   4.286   3.580   7.477 -1.8542 -0.7036  2.4773
  120OSM    H9T12648   4.124   3.546   7.400  0.4728  0.5948 -3.2821
  120OSM   C10S12649   4.139   3.715   7.542 -0.1006 -0.2775 -0.0536
  120OSM   H10S12650   4.044   3.760   7.504  1.6300  2.5381 -1.3957
  120OSM   H10T12651   4.217   3.793   7.557  1.3629 -1.6089 -0.5250
  120OSM   C11S12652   4.119   3.641   7.675  0.1404  0.3150  0.6665
  120OSM   H11S12653   4.215   3.599   7.714 -1.2857 -0.3341  3.8614
  120OSM   H11T12654   4.052   3.555   7.655  0.6347  0.0746 -0.0225
  120OSM   C12S12655   4.043   3.722   7.778 -0.9440  0.0285 -0.1404
  120OSM   H12S12656   3.950   3.754   7.727 -0.6851  0.2768 -0.4629
  120OSM   H12T12657   4.104   3.809   7.813  0.3102 -1.2066  0.8597
  120OSM   C13S12658   4.004   3.634   7.902  0.4560 -0.4760  0.1118
  120OSM   H13S12659   4.091   3.580   7.945  0.0917 -0.6907  0.5857
  120OSM   H13T12660   3.930   3.553   7.887  0.3255 -0.2379 -0.5478
  120OSM   C14S12661   3.938   3.728   8.014 -0.6770  0.6714  0.5597
  120OSM   H14S12662   3.875   3.804   7.963 -1.8454 -0.4279  0.3337
  120OSM   H14T12663   4.024   3.776   8.065  1.5206 -0.7529 -1.5675
  120OSM   C15S12664   3.858   3.648   8.109 -0.8174  0.6056  0.7353
  120OSM   H15S12665   3.772   3.600   8.057 -0.0896 -3.3699  2.7999
  120OSM   H15T12666   3.817   3.717   8.185  0.5847  3.1719 -0.6873
  120OSM   C16S12667   3.937   3.536   8.180  0.1123  1.1244  0.4683
  120OSM   H16S12668   3.994   3.601   8.250  1.3638 -0.8610  1.3838
  120OSM   H16T12669   4.005   3.480   8.113  0.1468 -0.0310  1.4283
  120OSM   C17S12670   3.850   3.436   8.256  0.6851 -0.0888  0.0018
  120OSM   H17S12671   3.800   3.478   8.345  1.0191  1.8579 -0.6915
  120OSM   H17T12672   3.926   3.368   8.300 -0.3496  0.1976  2.3602
  120OSM   C18S12673   3.745   3.356   8.164  0.2190  0.5283 -0.4791
  120OSM   H18S12674   3.697   3.279   8.228  2.4853 -1.1535 -0.6933
  120OSM   H18T12675   3.795   3.322   8.071  2.3695  1.2524  0.3436
  120OSM   H18U12676   3.679   3.434   8.119 -0.4730 -0.2530 -0.8362
  120OSM    C1F12677   4.324   3.102   6.886 -1.2449 -0.1890 -0.9134
  120OSM     OF12678   4.440   3.105   6.843  0.7112  0.1733 -0.0366
  120OSM    C2F12679   4.265   2.991   6.955  0.8529  0.2124  0.0393
  120OSM    H2F12680   4.312   2.973   7.055 -1.7251 -2.6245  0.9015
  120OSM    H2G12681   4.290   2.907   6.887  0.6672 -0.6402  0.9887
  120OSM    C3F12682   4.112   2.995   6.989  0.1551 -0.9535 -0.2267
  120OSM    H3F12683   4.059   3.003   6.891 -0.3150 -1.8746 -0.0558
  120OSM    H3G12684   4.092   3.078   7.061 -0.4416 -1.8815  0.6991
  120OSM    C4F12685   4.061   2.858   7.037  0.6382  0.1500 -0.2632
  120OSM    H4F12686   4.075   2.776   6.963  0.8238 -0.0071 -0.0527
  120OSM    H4G12687   3.951   2.871   7.039  0.4764 -1.1900  1.2850
  120OSM    C5F12688   4.119   2.809   7.167  0.3446  0.1308  0.6111
  120OSM    H5F12689   4.105   2.878   7.253 -2.3321 -0.5052  0.7469
  120OSM    H5G12690   4.228   2.787   7.155  0.7709  2.4404 -0.2452
  120OSM    C6F12691   4.067   2.670   7.208 -0.2068  0.5166  0.3229
  120OSM    H6F12692   4.046   2.610   7.117 -1.5459  0.2670  0.7649
  120OSM    H6G12693   3.973   2.693   7.263 -0.6188 -0.7216  0.1621
  120OSM    C7F12694   4.178   2.597   7.292  0.6915  0.2805 -0.3301
  120OSM    H7F12695   4.238   2.669   7.351  0.6585 -0.6325  0.8433
  120OSM    H7G12696   4.243   2.551   7.214 -0.4568  1.0583 -1.8126
  120OSM    C8F12697   4.128   2.492   7.397 -0.3305  0.2580  0.8349
  120OSM    H8F12698   4.205   2.422   7.436 -3.1753 -2.7599  1.4732
  120OSM    H8G12699   4.058   2.429   7.337 -1.6125  1.5175  0.9307
  120OSM    C9F12700   4.041   2.545   7.500 -0.6742 -0.1914 -0.0616
  120OSM    H9F12701   3.936   2.561   7.471 -0.4414 -0.2629 -0.9691
  120OSM   C10F12702   4.090   2.590   7.616 -0.8558 -0.4367  0.1508
  120OSM   H10F12703   4.017   2.622   7.693 -0.2378  4.0152 -0.8288
  120OSM   C11F12704   4.236   2.593   7.652  0.5295  0.0733  0.2222
  120OSM   H11F12705   4.266   2.698   7.672  1.3373  0.0469 -0.7376
  120OSM   H11G12706   4.292   2.566   7.560 -0.6613 -0.3799 -0.3899
  120OSM   C12F12707   4.286   2.499   7.762 -0.6182  0.6889  0.1916
  120OSM   H12F12708   4.395   2.515   7.757 -0.5892  1.0246  1.5452
  120OSM   H12G12709   4.246   2.399   7.735 -2.9179  1.2824  1.1487
  120OSM   C13F12710   4.232   2.526   7.903 -0.1658  0.1998 -0.2420
  120OSM   H13F12711   4.122   2.519   7.917 -0.0325  0.4944  1.1108
  120OSM   H13G12712   4.258   2.630   7.929  1.1479 -0.0107 -0.6602
  120OSM   C14F12713   4.291   2.424   8.006 -0.3897  0.1965 -0.1292
  120OSM   H14F12714   4.395   2.414   7.967  0.5844  1.0415  2.0758
  120OSM   H14G12715   4.252   2.321   7.997 -0.4382  0.2153 -0.1368
  120OSM   C15F12716   4.300   2.469   8.149 -0.4036 -0.0262  0.0641
  120OSM   H15F12717   4.201   2.505   8.186 -0.9749 -1.4452 -0.0267
  120OSM   H15G12718   4.369   2.556   8.145 -1.0495  0.4735 -0.5278
  120OSM   C16F12719   4.362   2.362   8.248  0.2835 -0.5114  0.1374
  120OSM   H16F12720   4.304   2.268   8.249 -0.2338 -0.1983  0.3986
  120OSM   H16G12721   4.373   2.409   8.349 -0.5855  0.5698 -0.2477
  120OSM   C17F12722   4.500   2.305   8.200  0.4657 -0.4954 -0.0070
  120OSM   H17F12723   4.566   2.386   8.161  2.6355 -1.9446  0.4693
  120OSM   H17G12724   4.481   2.250   8.105  2.4670 -1.2689 -0.0073
  120OSM   C18F12725   4.568   2.210   8.286 -0.3688 -0.5312  0.7779
  120OSM   H18F12726   4.633   2.146   8.223  0.8016 -0.3786  1.7861
  120OSM   H18G12727   4.501   2.137   8.335  0.7089 -1.7189  0.5533
  120OSM   H18H12728   4.628   2.274   8.354  1.7649 -0.8462 -0.6935
  121OSM      N12729   0.346   4.236   5.671 -0.2223  0.0927  0.1079
  121OSM    C1512730   0.217   4.226   5.596  0.2666 -0.3650  0.7623
  121OSM   H15A12731   0.200   4.120   5.579 -0.8620 -0.0202 -0.4090
  121OSM   H15B12732   0.215   4.277   5.501 -1.9635 -2.1682 -0.2316
  121OSM   H15C12733   0.133   4.262   5.652  1.3070  1.8570  1.0068
  121OSM    C1412734   0.457   4.209   5.575  0.1743 -0.1568 -0.2599
  121OSM   H14A12735   0.451   4.112   5.528  0.2955 -0.1223 -0.3469
  121OSM   H14B12736   0.548   4.229   5.631 -0.3074  0.0260  0.4858
  121OSM   H14C12737   0.447   4.281   5.495 -1.9941 -0.8689 -0.6899
  121OSM    C1312738   0.364   4.383   5.708  0.1652  0.1150 -0.1342
  121OSM   H13A12739   0.383   4.448   5.624 -2.1763  0.2196 -0.6658
  121OSM   H13B12740   0.443   4.406   5.777 -0.4363  1.4853  0.1272
  121OSM   H13C12741   0.275   4.412   5.763 -0.6686 -0.7651 -0.9645
  121OSM    C1212742   0.347   4.145   5.792 -0.0672 -0.5218  0.1536
  121OSM   H12A12743   0.367   4.043   5.763  2.5652 -0.2788  0.8649
  121OSM   H12B12744   0.244   4.137   5.822 -0.2749 -0.3834 -0.5054
  121OSM    C1112745   0.445   4.176   5.906 -0.7559  0.0517 -0.6994
  121OSM   H11A12746   0.429   4.096   5.981 -0.1269  2.0531  1.7230
  121OSM   H11B12747   0.424   4.274   5.955  1.5957 -0.6496  1.9084
  121OSM      P12748   0.653   4.041   5.843  0.1991 -0.0644  0.0056
  121OSM    O1312749   0.579   3.955   5.751 -0.1335 -0.4971  0.3368
  121OSM    O1412750   0.789   4.074   5.807 -0.3759 -0.5044  0.0216
  121OSM    O1112751   0.642   3.972   5.986 -0.1269 -1.0316 -0.2885
  121OSM    O1212752   0.580   4.179   5.861 -0.6422 -0.3267 -0.5631
  121OSM    C1S12753   0.755   3.930   6.052  0.3128 -0.6657  0.1633
  121OSM    H1S12754   0.829   4.012   6.059 -1.4592  1.1066 -1.0322
  121OSM    H1T12755   0.794   3.841   5.998 -1.7482 -1.1688 -0.5728
  121OSM     NF12756   0.838   3.821   6.262  0.7435  0.0579 -0.0509
  121OSM    HNF12757   0.822   3.723   6.273 -1.8439  0.2835 -1.1269
  121OSM    C2S12758   0.721   3.892   6.205 -0.3258  0.1227 -0.3831
  121OSM    H2S12759   0.717   3.994   6.249  0.7246 -0.3726  0.9135
  121OSM    C3S12760   0.603   3.807   6.221 -0.0406  0.7478  0.1204
  121OSM    H3S12761   0.619   3.713   6.164 -0.1339  0.2873  0.8363
  121OSM     O312762   0.488   3.863   6.161  0.0931  0.1645  0.4927
  121OSM    HO312763   0.532   3.911   6.091  1.6683 -0.2814  1.1360
  121OSM    C4S12764   0.578   3.769   6.374  0.0856 -1.0030 -0.5668
  121OSM    H4S12765   0.662   3.719   6.425  1.3185  2.4904  1.0805
  121OSM    C5S12766   0.486   3.818   6.459 -0.3339 -0.3325 -0.1290
  121OSM    H5S12767   0.401   3.866   6.407 -2.0777 -1.9146  1.1501
  121OSM    C6S12768   0.480   3.807   6.610 -0.4607 -0.2344  0.6863
  121OSM    H6S12769   0.581   3.797   6.657 -1.2635  2.5299  3.3244
  121OSM    H6T12770   0.406   3.727   6.631 -0.7360 -0.0021  0.6066
  121OSM    C7S12771   0.442   3.944   6.667 -0.3995  0.3692 -0.0342
  121OSM    H7S12772   0.338   3.971   6.637 -0.3106 -0.9371 -1.6498
  121OSM    H7T12773   0.519   4.017   6.636  1.6718 -1.2787  0.9838
  121OSM    C8S12774   0.460   3.940   6.818 -0.1220 -0.2793 -0.3171
  121OSM    H8S12775   0.557   3.889   6.840  0.2298  0.1811 -0.7628
  121OSM    H8T12776   0.389   3.872   6.869  1.2901  0.1445  2.3941
  121OSM    C9S12777   0.462   4.073   6.888 -0.0950 -0.1686  0.2312
  121OSM    H9S12778   0.361   4.120   6.896 -0.2668 -0.5676  0.4635
  121OSM    H9T12779   0.516   4.140   6.819  2.3063  0.4198  2.5185
  121OSM   C10S12780   0.547   4.075   7.020 -0.7357  0.0633  0.4223
  121OSM   H10S12781   0.576   4.181   7.038 -0.7954 -0.0594  1.2856
  121OSM   H10T12782   0.643   4.024   6.999 -1.0629 -0.6057  0.5053
  121OSM   C11S12783   0.487   4.007   7.141 -0.3976  0.0487  0.2654
  121OSM   H11S12784   0.477   3.898   7.121 -2.5987  0.1692  0.4558
  121OSM   H11T12785   0.384   4.045   7.159 -0.9530 -2.1178  2.0088
  121OSM   C12S12786   0.564   4.026   7.269 -0.0469  0.0620  0.1417
  121OSM   H12S12787   0.578   4.133   7.296 -1.1726  0.3541 -0.3807
  121OSM   H12T12788   0.657   3.967   7.259  0.2105  0.4111  0.4480
  121OSM   C13S12789   0.483   3.968   7.392 -0.0091  0.1268 -0.7614
  121OSM   H13S12790   0.446   3.874   7.347 -1.1107  1.8942 -3.8556
  121OSM   H13T12791   0.397   4.037   7.403 -0.6250 -0.6368 -0.7121
  121OSM   C14S12792   0.564   3.959   7.519 -0.0389  0.4992  0.0613
  121OSM   H14S12793   0.635   4.044   7.516 -0.2204  0.6266 -1.2717
  121OSM   H14T12794   0.629   3.868   7.510  1.0306  1.0903  1.4522
  121OSM   C15S12795   0.482   3.962   7.651 -0.5516 -0.1420 -0.0096
  121OSM   H15S12796   0.407   3.881   7.652 -1.6018  0.7273  2.7210
  121OSM   H15T12797   0.432   4.061   7.653 -1.5414 -0.6398  1.6359
  121OSM   C16S12798   0.577   3.953   7.777  0.2868  0.0133  0.2991
  121OSM   H16S12799   0.641   4.045   7.776 -0.8410  0.8193  0.4495
  121OSM   H16T12800   0.647   3.868   7.760  0.3477  0.3790 -1.4468
  121OSM   C17S12801   0.512   3.961   7.913 -0.1568  0.4138 -0.8168
  121OSM   H17S12802   0.439   3.878   7.922  0.7554 -0.4503 -1.0723
  121OSM   H17T12803   0.452   4.054   7.911  0.4139  0.7888 -2.9586
  121OSM   C18S12804   0.609   3.964   8.034 -0.0134  0.3696  0.2737
  121OSM   H18S12805   0.563   4.019   8.119  1.0743  0.1263  1.0486
  121OSM   H18T12806   0.711   4.000   8.009  0.1252  1.4518  2.1537
  121OSM   H18U12807   0.634   3.859   8.061  0.4376  0.3512 -0.2016
  121OSM    C1F12808   0.962   3.875   6.279 -0.4300 -0.3690 -0.5888
  121OSM     OF12809   0.985   3.992   6.245 -0.2092 -0.1907  0.0038
  121OSM    C2F12810   1.066   3.774   6.341  0.8954 -0.3601  0.3405
  121OSM    H2F12811   1.155   3.836   6.362  0.7542 -0.4629  1.2958
  121OSM    H2G12812   1.093   3.695   6.268 -1.3715  0.5405 -1.6284
  121OSM    C3F12813   1.018   3.699   6.468  0.1561 -0.1238  0.0906
  121OSM    H3F12814   1.113   3.665   6.513  0.5878 -2.8073 -2.4890
  121OSM    H3G12815   0.950   3.614   6.443 -0.2236  0.4891 -1.0222
  121OSM    C4F12816   0.957   3.790   6.566  0.3752  0.3075 -0.4145
  121OSM    H4F12817   0.855   3.825   6.540  0.1846  1.0331  1.1566
  121OSM    H4G12818   1.028   3.875   6.576 -0.3345  0.9830 -0.9792
  121OSM    C5F12819   0.938   3.701   6.689 -0.1896 -0.5168  0.2989
  121OSM    H5F12820   1.035   3.659   6.722  0.6185 -0.9337 -2.3878
  121OSM    H5G12821   0.871   3.620   6.650 -1.1245 -0.5855  1.9323
  121OSM    C6F12822   0.858   3.768   6.803  0.5056  0.2895 -1.0351
  121OSM    H6F12823   0.845   3.686   6.877  1.5702 -0.2090 -1.3671
  121OSM    H6G12824   0.759   3.800   6.765 -0.0364 -0.9414 -0.7160
  121OSM    C7F12825   0.925   3.888   6.871 -0.3591 -0.1340  0.1462
  121OSM    H7F12826   0.851   3.927   6.943  1.4259  0.9666  1.4689
  121OSM    H7G12827   0.934   3.962   6.788 -1.4603 -1.1956 -0.9741
  121OSM    C8F12828   1.063   3.866   6.935 -0.1402 -0.0050  0.3983
  121OSM    H8F12829   1.084   3.964   6.983  0.4016 -0.3212  0.8192
  121OSM    H8G12830   1.125   3.853   6.844 -1.3089 -0.7715 -0.3231
  121OSM    C9F12831   1.066   3.753   7.029 -0.4281 -0.1616  0.5035
  121OSM    H9F12832   1.064   3.652   6.986  0.4880  0.0995 -0.1760
  121OSM   C10F12833   1.081   3.764   7.162  0.1746  0.0742  0.4944
  121OSM   H10F12834   1.073   3.666   7.211 -0.3516 -1.1204 -1.8469
  121OSM   C11F12835   1.092   3.889   7.242 -0.0846  0.1600 -0.3915
  121OSM   H11F12836   1.057   3.975   7.181  3.0448  0.2092 -2.3314
  121OSM   H11G12837   1.194   3.909   7.280 -0.2740  1.5809 -0.5661
  121OSM   C12F12838   0.997   3.879   7.368 -0.1413 -0.1295  0.5032
  121OSM   H12F12839   0.892   3.873   7.333 -0.7628  0.1690  2.2243
  121OSM   H12G12840   1.013   3.974   7.424 -0.6154  0.5951 -0.5461
  121OSM   C13F12841   1.026   3.765   7.468 -0.0109  0.8432  0.7351
  121OSM   H13F12842   1.014   3.665   7.421 -0.1792  2.5687 -3.2551
  121OSM   H13G12843   0.945   3.780   7.542 -2.3157  0.3627 -1.5542
  121OSM   C14F12844   1.174   3.763   7.535  0.9241 -0.4761  0.2512
  121OSM   H14F12845   1.247   3.758   7.451  1.3870  1.4502  0.4825
  121OSM   H14G12846   1.183   3.671   7.596 -1.5007  0.7342  2.6270
  121OSM   C15F12847   1.192   3.879   7.628 -0.1040  0.1265  0.0721
  121OSM   H15F12848   1.117   3.880   7.709  0.2357 -1.6171  0.4482
  121OSM   H15G12849   1.180   3.975   7.573  2.9981  0.5330 -0.0719
  121OSM   C16F12850   1.328   3.882   7.700  0.1145  0.0891  0.2478
  121OSM   H16F12851   1.401   3.925   7.629  0.3622  0.8100  0.9240
  121OSM   H16G12852   1.357   3.778   7.724  2.4834  0.7516  0.4683
  121OSM   C17F12853   1.323   3.975   7.818  0.0659  0.0640 -0.8462
  121OSM   H17F12854   1.249   3.931   7.888  1.5235 -2.6828 -0.9031
  121OSM   H17G12855   1.297   4.076   7.779  0.8059  0.7141  0.2540
  121OSM   C18F12856   1.457   3.992   7.891 -0.6328  0.6792  0.2982
  121OSM   H18F12857   1.458   4.082   7.957 -0.4237  2.2185 -1.7156
  121OSM   H18G12858   1.537   4.006   7.816 -0.2716 -0.1931  0.5143
  121OSM   H18H12859   1.484   3.900   7.947  1.0452 -0.1932 -1.7869
  122OSM      N12860   4.836   5.533   6.158  0.0549 -0.0131  0.5920
  122OSM    C1512861   4.696   5.527   6.107  0.5763  0.5922 -0.2004
  122OSM   H15A12862   4.656   5.627   6.108  1.3491  0.9224 -1.1243
  122OSM   H15B12863   4.629   5.470   6.170  0.7909 -0.0353 -0.5263
  122OSM   H15C12864   4.690   5.482   6.009  0.8097 -1.5237  0.7032
  122OSM    C1412865   4.897   5.399   6.172 -0.1647  0.5473  0.3514
  122OSM   H14A12866   4.844   5.339   6.244  0.2661  3.3264  3.2090
  122OSM   H14B12867   5.001   5.407   6.201  0.1389  1.3136 -0.8555
  122OSM   H14C12868   4.904   5.361   6.071 -1.0467  0.7142  0.2183
  122OSM    C1312869   4.918   5.607   6.059  0.1042 -0.6564  0.4018
  122OSM   H13A12870   4.916   5.551   5.966 -0.1673  0.1445 -0.0843
  122OSM   H13B12871   5.017   5.607   6.103 -0.2760 -1.5086  1.2927
  122OSM   H13C12872   4.883   5.706   6.033  2.2433  1.2745  3.9786
  122OSM    C1212873   4.841   5.594   6.296 -0.4336 -0.1877  0.7452
  122OSM   H12A12874   4.843   5.521   6.375  1.5097 -0.4215  0.5126
  122OSM   H12B12875   4.752   5.654   6.310 -1.0102 -0.7365 -0.4046
  122OSM    C1112876   4.949   5.697   6.338  0.7348  0.4454  0.2200
  122OSM   H11A12877   4.933   5.735   6.441 -1.1134 -1.0837  0.5436
  122OSM   H11B12878   4.929   5.784   6.272  2.1038  0.7415  0.1511
  122OSM      P12879   5.170   5.558   6.383  0.0521  0.0598 -0.5358
  122OSM    O1312880   5.157   5.422   6.330 -0.3002 -0.2422  0.1583
  122OSM    O1412881   5.308   5.605   6.385  0.2075 -0.1788  0.8479
  122OSM    O1112882   5.111   5.564   6.527  0.5470 -0.0685  0.2202
  122OSM    O1212883   5.080   5.660   6.302  0.2042 -0.3075  0.1025
  122OSM    C1S12884   5.159   5.663   6.617  0.4495  0.5712 -0.4492
  122OSM    H1S12885   5.106   5.758   6.592 -2.0823 -0.6017  0.1314
  122OSM    H1T12886   5.269   5.670   6.606  0.5956  0.0506  0.5996
  122OSM     NF12887   5.197   5.724   6.856 -0.0656  0.3588  0.5852
  122OSM    HNF12888   5.287   5.691   6.883 -0.3847 -1.6876 -0.6464
  122OSM    C2S12889   5.129   5.623   6.769 -0.0215  0.5297  0.4901
  122OSM    H2S12890   5.018   5.622   6.780 -0.2159  1.7170 -1.0250
  122OSM    C3S12891   5.178   5.482   6.791  0.3112 -0.5608 -0.7838
  122OSM    H3S12892   5.286   5.492   6.765  0.6135 -0.1997  0.5292
  122OSM     O312893   5.120   5.384   6.708 -0.2240  0.3015 -0.6486
  122OSM    HO312894   5.097   5.440   6.633  0.5567  0.0133 -1.1229
  122OSM    C4S12895   5.166   5.453   6.939  0.0060 -0.2817 -0.1280
  122OSM    H4S12896   5.074   5.491   6.986  1.5255  2.2549  0.9873
  122OSM    C5S12897   5.258   5.392   7.010  0.2004  0.3035 -0.3508
  122OSM    H5S12898   5.342   5.343   6.960 -1.1686 -2.7149  0.0971
  122OSM    C6S12899   5.255   5.360   7.161 -0.5044 -0.5045 -0.3080
  122OSM    H6S12900   5.320   5.418   7.230 -1.5392 -0.2688  0.4908
  122OSM    H6T12901   5.297   5.258   7.173 -1.0877 -0.6785  0.3278
  122OSM    C7S12902   5.119   5.373   7.241 -0.0159  0.5026 -0.6021
  122OSM    H7S12903   5.031   5.321   7.196  0.2539 -0.0809 -0.4716
  122OSM    H7T12904   5.098   5.482   7.241  0.4255  0.5884 -0.8680
  122OSM    C8S12905   5.119   5.347   7.397  0.4960 -0.2734  0.2797
  122OSM    H8S12906   5.204   5.402   7.443  0.5739 -1.3774  1.5115
  122OSM    H8T12907   5.148   5.241   7.417  2.1458  0.1278  0.2139
  122OSM    C9S12908   4.976   5.367   7.465  0.3741 -0.1296 -0.0567
  122OSM    H9S12909   4.905   5.300   7.412  0.2206  1.5136 -2.0733
  122OSM    H9T12910   4.935   5.467   7.439  4.4887  2.4963  2.4001
  122OSM   C10S12911   4.962   5.348   7.624  0.5586 -0.1045 -0.3215
  122OSM   H10S12912   5.055   5.390   7.669  0.4162  0.0541 -0.1727
  122OSM   H10T12913   4.983   5.239   7.613  0.1616 -0.2043 -0.1042
  122OSM   C11S12914   4.829   5.390   7.678  0.3468  0.2120  0.2994
  122OSM   H11S12915   4.754   5.324   7.629 -0.0060  1.0186 -0.2660
  122OSM   H11T12916   4.800   5.489   7.637 -2.1561 -0.0370  1.3308
  122OSM   C12S12917   4.818   5.367   7.828 -0.0966 -0.3199  0.7210
  122OSM   H12S12918   4.890   5.437   7.875  0.3001  1.4082 -2.2325
  122OSM   H12T12919   4.832   5.264   7.867  1.4044 -0.0695  0.9078
  122OSM   C13S12920   4.673   5.413   7.878 -0.7260  0.5566  0.5386
  122OSM   H13S12921   4.589   5.358   7.830 -1.1713 -0.2279  2.1436
  122OSM   H13T12922   4.672   5.522   7.859 -1.6531  0.7862  1.8230
  122OSM   C14S12923   4.672   5.405   8.031  0.2754 -0.0507  0.1893
  122OSM   H14S12924   4.727   5.487   8.081 -1.2550 -0.9295  3.5942
  122OSM   H14T12925   4.715   5.307   8.062 -1.0306  0.1537  3.0065
  122OSM   C15S12926   4.530   5.404   8.090 -0.5580  0.0688 -0.5437
  122OSM   H15S12927   4.458   5.346   8.028 -1.5689  1.3502 -0.6217
  122OSM   H15T12928   4.496   5.510   8.081  1.1612  0.6083 -1.0038
  122OSM   C16S12929   4.514   5.361   8.237 -0.2706 -0.0956  0.5203
  122OSM   H16S12930   4.519   5.250   8.238 -0.0892 -0.1053 -0.5503
  122OSM   H16T12931   4.410   5.388   8.266  0.0054 -0.0489  1.5319
  122OSM   C17S12932   4.603   5.436   8.336  0.3597  0.6643  0.6783
  122OSM   H17S12933   4.606   5.541   8.302  0.8949  0.1333 -1.0208
  122OSM   H17T12934   4.710   5.407   8.324 -0.0598 -0.7708  0.1045
  122OSM   C18S12935   4.571   5.416   8.483 -0.0660 -0.0342  0.5107
  122OSM   H18S12936   4.461   5.426   8.500 -0.1953 -0.1031 -0.2599
  122OSM   H18T12937   4.621   5.480   8.559 -2.5817  0.3946  1.9397
  122OSM   H18U12938   4.598   5.312   8.512 -1.0981 -0.7863 -1.1238
  122OSM    C1F12939   5.140   5.846   6.860 -0.9454 -0.4520  0.2798
  122OSM     OF12940   5.043   5.876   6.793  0.3851  0.2388  0.1467
  122OSM    C2F12941   5.216   5.944   6.947 -1.1890  0.3216  0.1734
  122OSM    H2F12942   5.254   6.029   6.887 -1.4453  1.7796  1.9607
  122OSM    H2G12943   5.292   5.895   7.011 -0.8928  0.0729 -0.3649
  122OSM    C3F12944   5.116   6.009   7.045  0.1186 -0.0518  0.3182
  122OSM    H3F12945   5.061   5.925   7.093  1.6031  0.8014  3.8114
  122OSM    H3G12946   5.047   6.064   6.979  0.4248  0.2377  0.2352
  122OSM    C4F12947   5.172   6.089   7.166 -0.1989 -0.1789 -0.3023
  122OSM    H4F12948   5.239   6.173   7.139 -2.2696  1.0971 -1.8282
  122OSM    H4G12949   5.234   6.023   7.230  0.0088  1.1473  0.9166
  122OSM    C5F12950   5.061   6.139   7.264 -0.2587  0.8685 -0.4496
  122OSM    H5F12951   5.011   6.058   7.320 -0.8202  1.1550 -0.5359
  122OSM    H5G12952   4.988   6.196   7.203  0.5449  1.9135 -0.4737
  122OSM    C6F12953   5.117   6.242   7.365  0.2397 -0.7002  0.2122
  122OSM    H6F12954   5.161   6.328   7.310 -0.3547 -0.6897 -0.2565
  122OSM    H6G12955   5.180   6.189   7.439  1.1787 -0.4100 -0.3639
  122OSM    C7F12956   5.014   6.292   7.464 -0.2879 -0.8997  0.2043
  122OSM    H7F12957   4.972   6.206   7.521  1.8956 -0.2834  2.9372
  122OSM    H7G12958   4.938   6.349   7.407 -0.2762 -0.6934  0.3961
  122OSM    C8F12959   5.083   6.389   7.567 -0.1140 -0.4477  0.0476
  122OSM    H8F12960   5.128   6.476   7.515  1.4275  0.8381  3.1938
  122OSM    H8G12961   5.174   6.346   7.616  0.6872 -0.0124 -1.0340
  122OSM    C9F12962   4.983   6.434   7.670 -0.4789 -0.1899 -0.4325
  122OSM    H9F12963   4.921   6.521   7.641 -0.7813  0.0617  0.8841
  122OSM   C10F12964   4.974   6.398   7.801 -0.2037 -0.2954 -1.0085
  122OSM   H10F12965   4.901   6.440   7.871 -1.0669  0.7192 -2.4725
  122OSM   C11F12966   5.057   6.295   7.871  1.1244 -0.2967  0.2807
  122OSM   H11F12967   5.090   6.214   7.802 -0.3685  0.5423 -1.5131
  122OSM   H11G12968   5.001   6.251   7.956  0.8852  0.9701  0.7892
  122OSM   C12F12969   5.175   6.356   7.931  0.4022  0.6074 -0.6508
  122OSM   H12F12970   5.157   6.454   7.979  1.3445  1.6022 -2.2468
  122OSM   H12G12971   5.253   6.357   7.851  2.3568 -1.2528  1.0895
  122OSM   C13F12972   5.228   6.265   8.043 -0.2442 -0.0285 -0.4821
  122OSM   H13F12973   5.207   6.158   8.019 -0.3915 -0.0011 -0.4775
  122OSM   H13G12974   5.175   6.288   8.137  3.2281  0.9067  1.4002
  122OSM   C14F12975   5.381   6.274   8.070 -0.4945 -0.1873 -0.2523
  122OSM   H14F12976   5.413   6.378   8.094 -0.6438 -0.1123 -0.3783
  122OSM   H14G12977   5.435   6.243   7.979 -1.5242  4.2021 -2.6487
  122OSM   C15F12978   5.416   6.185   8.191 -0.0927  0.0153  0.5622
  122OSM   H15F12979   5.515   6.134   8.182  0.2337  0.3897  1.7473
  122OSM   H15G12980   5.347   6.100   8.209  0.3105 -0.1883  1.2182
  122OSM   C16F12981   5.432   6.268   8.323  0.1790 -0.1534 -1.0069
  122OSM   H16F12982   5.334   6.321   8.328  1.3205  1.9737  0.1195
  122OSM   H16G12983   5.504   6.351   8.309 -0.4738  0.2451 -2.1512
  122OSM   C17F12984   5.466   6.178   8.443  0.6549 -0.5269  0.2357
  122OSM   H17F12985   5.556   6.118   8.416  1.2969  0.3370  0.3781
  122OSM   H17G12986   5.387   6.106   8.471 -0.9295  0.7786 -0.6415
  122OSM   C18F12987   5.499   6.269   8.559  0.7991 -0.1519 -0.5137
  122OSM   H18F12988   5.578   6.339   8.526  0.7164 -0.8689 -2.3394
  122OSM   H18G12989   5.542   6.209   8.642  1.0596 -0.7850 -1.0938
  122OSM   H18H12990   5.412   6.328   8.596  1.5530  1.5167 -1.3333
  123OSM      N12991   2.779   4.038   5.642 -0.4037 -0.4125  0.3755
  123OSM    C1512992   2.902   4.052   5.554 -0.0319 -0.2787  0.2738
  123OSM   H15A12993   2.994   4.030   5.606  0.9911  0.8869 -0.9832
  123OSM   H15B12994   2.908   4.154   5.519 -1.3038 -0.2041  0.2106
  123OSM   H15C12995   2.885   4.001   5.460 -1.2651  0.8108 -0.1267
  123OSM    C1412996   2.669   4.081   5.557 -0.0890  0.1881 -0.0460
  123OSM   H14A12997   2.695   4.172   5.505 -0.8420  1.0269  0.9910
  123OSM   H14B12998   2.579   4.098   5.615  1.6425 -0.6135  3.1405
  123OSM   H14C12999   2.641   4.014   5.477 -0.7723  0.5334 -0.1013
  123OSM    C1313000   2.763   3.892   5.684  0.7292 -0.4936  0.1001
  123OSM   H13A13001   2.672   3.885   5.741  0.1569 -0.7397 -0.8211
  123OSM   H13B13002   2.850   3.863   5.741 -0.1480 -0.7457  1.3501
  123OSM   H13C13003   2.751   3.836   5.592 -3.4920  2.5878 -1.5552
  123OSM    C1213004   2.793   4.132   5.762 -0.0604  0.4455  0.2641
  123OSM   H12A13005   2.808   4.234   5.730  0.4270 -0.2089 -1.7462
  123OSM   H12B13006   2.872   4.094   5.825  0.6912  0.9954 -0.3313
  123OSM    C1113007   2.671   4.128   5.859 -0.3517  0.1496 -0.0452
  123OSM   H11A13008   2.709   4.162   5.957  1.4811 -0.3301 -0.5561
  123OSM   H11B13009   2.640   4.022   5.872  1.1594 -0.2112  0.7783
  123OSM      P13010   2.527   4.343   5.837  0.0612 -0.2555 -0.1216
  123OSM    O1313011   2.588   4.424   5.728 -0.0604  0.2405 -0.1143
  123OSM    O1413012   2.379   4.356   5.848 -0.4597  0.2593  0.0513
  123OSM    O1113013   2.594   4.375   5.976 -0.4932 -0.5012 -0.2982
  123OSM    O1213014   2.554   4.193   5.807  0.1695  0.7444  0.1033
  123OSM    C1S13015   2.566   4.492   6.047  0.4675  0.3719  0.1063
  123OSM    H1S13016   2.503   4.472   6.136 -0.5150  2.1365 -0.1333
  123OSM    H1T13017   2.519   4.572   5.985 -0.3592 -0.3746 -0.2427
  123OSM     NF13018   2.663   4.608   6.247  0.6408  0.1206  0.6044
  123OSM    HNF13019   2.647   4.705   6.265  1.5446  0.0879  1.6332
  123OSM    C2S13020   2.691   4.559   6.115 -0.3852 -0.6736 -0.1106
  123OSM    H2S13021   2.764   4.475   6.123  1.5358  0.9553  0.0099
  123OSM    C3S13022   2.756   4.664   6.016 -0.4524  0.0808 -0.0364
  123OSM    H3S13023   2.668   4.727   5.991  0.3353  0.6723 -1.4729
  123OSM     O313024   2.815   4.605   5.895  0.1232  0.0898 -0.0580
  123OSM    HO313025   2.746   4.547   5.861  0.0291 -1.1807  2.1230
  123OSM    C4S13026   2.860   4.738   6.088  0.5433 -0.4507 -0.3867
  123OSM    H4S13027   2.817   4.819   6.148  1.5038 -1.2953  1.5094
  123OSM    C5S13028   2.993   4.729   6.098  0.2054  0.6606  0.8229
  123OSM    H5S13029   3.039   4.656   6.028  2.0319  2.0007  0.5416
  123OSM    C6S13030   3.082   4.812   6.185 -0.0647 -0.2073  0.3127
  123OSM    H6S13031   3.137   4.883   6.119 -3.3488  0.6613 -1.7114
  123OSM    H6T13032   3.172   4.754   6.216  1.3478  2.6615  1.9258
  123OSM    C7S13033   3.019   4.890   6.300  1.0073  0.0120  0.3630
  123OSM    H7S13034   2.980   4.805   6.360  3.5638 -2.2589 -0.9486
  123OSM    H7T13035   2.935   4.953   6.264 -0.3934 -0.2387  2.9914
  123OSM    C8S13036   3.126   4.968   6.386  0.0984  0.0443  0.0520
  123OSM    H8S13037   3.151   5.068   6.345  0.1140 -0.5542 -1.4398
  123OSM    H8T13038   3.219   4.909   6.376  1.5222  1.8606  1.7417
  123OSM    C9S13039   3.107   4.972   6.543 -0.3907  0.3959  0.2144
  123OSM    H9S13040   3.115   4.869   6.583 -0.5937 -0.4256 -1.7606
  123OSM    H9T13041   3.003   5.008   6.559 -0.7914  0.0060 -1.3861
  123OSM   C10S13042   3.218   5.049   6.618  0.2654  0.3149  0.1596
  123OSM   H10S13043   3.206   5.155   6.589 -2.5998  0.7010  2.2786
  123OSM   H10T13044   3.315   5.010   6.581  0.0286 -0.9541  0.7992
  123OSM   C11S13045   3.221   5.027   6.771  0.3970  0.3659 -0.5332
  123OSM   H11S13046   3.261   4.925   6.790 -0.1777  0.1415 -0.5010
  123OSM   H11T13047   3.118   5.026   6.812  0.0815  1.5302 -1.2580
  123OSM   C12S13048   3.293   5.139   6.834 -0.8607 -0.5009 -0.1938
  123OSM   H12S13049   3.275   5.235   6.781  0.9414  0.4301  0.8037
  123OSM   H12T13050   3.403   5.131   6.834 -0.8866 -2.1243  2.4198
  123OSM   C13S13051   3.232   5.160   6.973  0.0849 -1.1340 -1.1503
  123OSM   H13S13052   3.202   5.061   7.014 -0.1443  0.0523  1.8056
  123OSM   H13T13053   3.136   5.213   6.957 -1.7102 -4.0668 -0.7590
  123OSM   C14S13054   3.320   5.237   7.075 -0.0491 -0.0420  0.7918
  123OSM   H14S13055   3.327   5.345   7.051  0.6477 -0.5151 -1.4283
  123OSM   H14T13056   3.419   5.187   7.066  0.0765  0.3365  0.0279
  123OSM   C15S13057   3.268   5.223   7.213  0.2834  0.1815  0.2981
  123OSM   H15S13058   3.251   5.118   7.245 -1.0563  0.9864  2.4632
  123OSM   H15T13059   3.183   5.295   7.214 -1.9305 -2.1967 -1.7994
  123OSM   C16S13060   3.374   5.285   7.310 -0.3118  0.8405  0.6350
  123OSM   H16S13061   3.387   5.391   7.278  1.7154  0.5816  0.4487
  123OSM   H16T13062   3.461   5.222   7.281 -2.1866 -1.6713  0.0812
  123OSM   C17S13063   3.344   5.284   7.463  0.2945  0.3273  0.2969
  123OSM   H17S13064   3.442   5.298   7.515  2.0630  1.2286 -3.0260
  123OSM   H17T13065   3.321   5.179   7.488  1.3261  0.3333  1.3687
  123OSM   C18S13066   3.247   5.393   7.504 -0.3814 -0.0633  0.1680
  123OSM   H18S13067   3.295   5.488   7.472 -2.1459  0.6048 -0.6316
  123OSM   H18T13068   3.226   5.397   7.613  0.3626  0.3030  0.3036
  123OSM   H18U13069   3.151   5.394   7.448 -0.6611  1.4220  0.6117
  123OSM    C1F13070   2.653   4.531   6.356 -0.0296 -0.1034 -0.0820
  123OSM     OF13071   2.684   4.411   6.354 -0.6170 -0.3934  0.1124
  123OSM    C2F13072   2.592   4.586   6.477 -0.2186 -0.2613  0.3626
  123OSM    H2F13073   2.543   4.678   6.440 -1.1912 -0.9517 -0.0843
  123OSM    H2G13074   2.676   4.621   6.542  0.9572  1.1745 -1.8146
  123OSM    C3F13075   2.489   4.494   6.545 -0.7540 -0.4877 -0.0787
  123OSM    H3F13076   2.545   4.406   6.581 -1.0961 -1.0139 -0.8176
  123OSM    H3G13077   2.404   4.470   6.477 -0.8745  2.4330 -1.1246
  123OSM    C4F13078   2.442   4.565   6.671  0.5933 -0.3838  0.7509
  123OSM    H4F13079   2.367   4.495   6.713 -0.6206  0.0920 -0.5308
  123OSM    H4G13080   2.388   4.659   6.644  1.1116 -0.7279 -1.7021
  123OSM    C5F13081   2.543   4.605   6.782  0.0323 -0.7165 -0.4499
  123OSM    H5F13082   2.618   4.678   6.743  0.4660 -0.0215  1.5891
  123OSM    H5G13083   2.593   4.510   6.810 -2.2830 -1.8854 -0.0683
  123OSM    C6F13084   2.474   4.653   6.903 -0.5828 -0.0312  0.3978
  123OSM    H6F13085   2.543   4.661   6.989  1.4878  0.3978 -1.2097
  123OSM    H6G13086   2.393   4.582   6.931  0.5209 -0.5519  2.4209
  123OSM    C7F13087   2.405   4.794   6.905  0.0552 -0.0244  0.2258
  123OSM    H7F13088   2.326   4.795   6.827  1.3054  0.7814 -1.1089
  123OSM    H7G13089   2.483   4.867   6.874  2.3182 -1.4092  2.2606
  123OSM    C8F13090   2.344   4.837   7.040 -0.2089  0.0533 -0.9599
  123OSM    H8F13091   2.294   4.745   7.078 -3.7086  1.9664 -0.5292
  123OSM    H8G13092   2.264   4.914   7.034  0.2820  0.6226 -0.3543
  123OSM    C9F13093   2.457   4.875   7.141 -0.3862 -1.2585 -0.5450
  123OSM    H9F13094   2.550   4.918   7.102  0.3338 -2.5869 -0.3266
  123OSM   C10F13095   2.445   4.845   7.273 -0.3795  0.1755  0.6457
  123OSM   H10F13096   2.529   4.850   7.344 -1.1804 -0.3409  1.6637
  123OSM   C11F13097   2.335   4.776   7.344  0.2386 -0.6555  0.3737
  123OSM   H11F13098   2.381   4.718   7.427 -3.3123 -1.7492  1.7332
  123OSM   H11G13099   2.286   4.701   7.278 -1.0009 -0.1787  0.7290
  123OSM   C12F13100   2.237   4.861   7.426 -0.3114  0.2842 -0.1910
  123OSM   H12F13101   2.182   4.783   7.484  1.9991 -1.9423 -0.7638
  123OSM   H12G13102   2.182   4.926   7.355  0.6060  0.7689 -0.4751
  123OSM   C13F13103   2.306   4.950   7.530 -0.4362 -0.1838  0.3908
  123OSM   H13F13104   2.355   5.034   7.476  1.3082 -1.9171 -0.8657
  123OSM   H13G13105   2.384   4.892   7.584 -2.0914 -0.6091  2.4551
  123OSM   C14F13106   2.212   5.009   7.627  0.3961  0.3240 -0.1587
  123OSM   H14F13107   2.178   4.940   7.707  0.5940  0.3910 -0.0134
  123OSM   H14G13108   2.123   5.047   7.573  0.0250  0.1007  0.2908
  123OSM   C15F13109   2.284   5.127   7.691  0.0207 -0.4784  0.6272
  123OSM   H15F13110   2.301   5.206   7.616 -0.1785 -0.2834  0.7847
  123OSM   H15G13111   2.386   5.093   7.719  0.0825 -1.4205 -0.6254
  123OSM   C16F13112   2.209   5.185   7.804 -0.0447  0.2994  0.3229
  123OSM   H16F13113   2.099   5.170   7.791  0.2244 -1.1556 -0.3741
  123OSM   H16G13114   2.230   5.294   7.801 -0.1553  0.2966 -2.4825
  123OSM   C17F13115   2.253   5.127   7.941 -0.4763  0.3307 -0.1491
  123OSM   H17F13116   2.357   5.152   7.974  0.7141  2.0340 -4.5031
  123OSM   H17G13117   2.254   5.020   7.911  1.0570  0.6981 -1.5363
  123OSM   C18F13118   2.152   5.134   8.065 -0.3499 -0.2089 -0.1421
  123OSM   H18F13119   2.197   5.082   8.153 -2.2228  0.8897  1.5512
  123OSM   H18G13120   2.051   5.092   8.044 -1.3380  1.6188  0.7697
  123OSM   H18H13121   2.137   5.240   8.095 -0.6225 -0.8682  2.2956
  124OSM      N13122   4.069   6.498   6.228 -0.2949 -0.1782 -0.4611
  124OSM    C1513123   3.984   6.454   6.342  0.4913 -0.2214 -0.1703
  124OSM   H15A13124   4.026   6.383   6.412 -0.6922 -0.1665  0.6270
  124OSM   H15B13125   3.892   6.414   6.302 -0.7854  1.3880  1.0001
  124OSM   H15C13126   3.950   6.533   6.407 -3.2552 -1.5585 -0.2625
  124OSM    C1413127   4.104   6.377   6.144  0.5374  0.4105  0.8731
  124OSM   H14A13128   4.173   6.306   6.188 -0.3170  0.7318  2.8137
  124OSM   H14B13129   4.151   6.423   6.059 -0.8965  2.0038  0.8954
  124OSM   H14C13130   4.011   6.330   6.118 -0.1069  0.5982  2.6744
  124OSM    C1313131   3.978   6.591   6.151 -0.5537  0.2309 -0.2006
  124OSM   H13A13132   3.977   6.689   6.195  1.1983 -0.2870  1.1285
  124OSM   H13B13133   3.876   6.557   6.142 -0.9866  1.3644  0.2907
  124OSM   H13C13134   4.023   6.593   6.053  0.6807  0.1954  0.3475
  124OSM    C1213135   4.192   6.560   6.280 -0.1732 -0.9370  0.1574
  124OSM   H12A13136   4.247   6.603   6.198 -2.7919 -0.7566 -1.6308
  124OSM   H12B13137   4.261   6.495   6.332  2.1402  0.9984 -0.2691
  124OSM    C1113138   4.171   6.683   6.361 -0.2290  0.5041 -0.3352
  124OSM   H11A13139   4.258   6.716   6.422 -0.6322 -0.1794  0.6425
  124OSM   H11B13140   4.091   6.671   6.437 -1.9303 -0.4800 -2.1843
  124OSM      P13141   4.137   6.942   6.319 -0.2933  0.0186 -0.1723
  124OSM    O1313142   4.274   6.975   6.353  0.5841 -0.9434 -0.3142
  124OSM    O1413143   4.069   7.019   6.210 -0.5547  0.3686 -0.0904
  124OSM    O1113144   4.045   6.937   6.455  0.3041  0.7122  0.7782
  124OSM    O1213145   4.123   6.792   6.279  0.0131  0.5984 -0.1056
  124OSM    C1S13146   3.912   6.894   6.443 -0.3834 -0.1562  0.1138
  124OSM    H1S13147   3.899   6.784   6.432  0.4541 -0.3007  0.5082
  124OSM    H1T13148   3.858   6.939   6.356 -0.5990 -1.3008 -0.3579
  124OSM     NF13149   3.702   6.873   6.587  0.3153  0.3375  0.6129
  124OSM    HNF13150   3.636   6.948   6.587  1.2818  1.2171 -0.3583
  124OSM    C2S13151   3.831   6.922   6.581 -0.0231 -0.6077 -0.0461
  124OSM    H2S13152   3.896   6.875   6.659 -1.2779  0.8153  1.9711
  124OSM    C3S13153   3.834   7.074   6.618 -0.1088  0.5040  0.4563
  124OSM    H3S13154   3.769   7.124   6.543 -0.5571 -0.7546 -0.0115
  124OSM     O313155   3.963   7.140   6.609  0.2571  0.3917  0.0489
  124OSM    HO313156   4.019   7.081   6.557  1.0617  0.3399  0.9406
  124OSM    C4S13157   3.777   7.105   6.754  0.3734 -0.2611  0.0392
  124OSM    H4S13158   3.681   7.159   6.749  1.5867  1.9516 -0.9021
  124OSM    C5S13159   3.838   7.095   6.874  0.6272  0.1399 -0.1461
  124OSM    H5S13160   3.934   7.043   6.884  0.2668 -0.3795  0.7737
  124OSM    C6S13161   3.779   7.137   7.003 -0.2401 -0.7321 -0.7056
  124OSM    H6S13162   3.670   7.112   7.005 -0.5104  0.4168  0.0811
  124OSM    H6T13163   3.785   7.248   7.009  0.0394 -0.7521 -0.6088
  124OSM    C7S13164   3.852   7.070   7.125  0.5668 -0.8398  0.2241
  124OSM    H7S13165   3.962   7.086   7.120  0.4725 -0.4835 -1.5160
  124OSM    H7T13166   3.833   6.961   7.126 -2.6110 -0.4032 -1.1336
  124OSM    C8S13167   3.793   7.115   7.263 -0.3285 -0.7387 -0.4228
  124OSM    H8S13168   3.694   7.064   7.271 -0.0973 -1.4706 -1.8335
  124OSM    H8T13169   3.782   7.225   7.264  0.8343 -0.5198 -3.0076
  124OSM    C9S13170   3.878   7.066   7.379  0.0550 -0.1448 -0.4102
  124OSM    H9S13171   3.985   7.078   7.351  0.3141 -2.7631 -0.8272
  124OSM    H9T13172   3.870   6.955   7.374  0.6488 -0.1368 -3.3352
  124OSM   C10S13173   3.849   7.117   7.519 -0.6456 -0.0934  0.2439
  124OSM   H10S13174   3.743   7.093   7.544 -0.1930 -2.0730  0.4014
  124OSM   H10T13175   3.854   7.228   7.513 -0.8465 -0.1307 -0.7239
  124OSM   C11S13176   3.939   7.071   7.634  0.4090  0.2824  0.4451
  124OSM   H11S13177   4.047   7.097   7.626  0.2307  2.0286  2.5239
  124OSM   H11T13178   3.931   6.961   7.626  2.4145 -0.0428  1.8224
  124OSM   C12S13179   3.880   7.123   7.766  0.1307  0.6566  0.4180
  124OSM   H12S13180   3.777   7.084   7.779  0.2834  1.0280  3.2318
  124OSM   H12T13181   3.864   7.233   7.760 -1.1736  0.4564  0.0644
  124OSM   C13S13182   3.970   7.077   7.885  0.3835  0.1021 -0.0861
  124OSM   H13S13183   4.075   7.112   7.882  0.8395 -0.8167  2.5668
  124OSM   H13T13184   3.990   6.968   7.888 -0.2013 -0.0483 -1.0175
  124OSM   C14S13185   3.905   7.114   8.018  0.0048  0.0016 -0.8014
  124OSM   H14S13186   3.825   7.043   8.048 -0.3010  0.8129  0.4217
  124OSM   H14T13187   3.858   7.215   8.010 -0.9291 -0.3509 -0.0324
  124OSM   C15S13188   4.004   7.122   8.140 -0.6356 -0.5661  0.6896
  124OSM   H15S13189   3.959   7.191   8.215 -0.2707 -1.4715  1.7795
  124OSM   H15T13190   4.091   7.183   8.107 -0.6075  1.0979  3.4451
  124OSM   C16S13191   4.036   6.987   8.204 -0.6926 -1.2149 -0.1541
  124OSM   H16S13192   4.132   6.978   8.258 -0.5980  2.8734  0.6634
  124OSM   H16T13193   4.034   6.917   8.118  0.3515 -0.3269 -0.9374
  124OSM   C17S13194   3.915   6.939   8.291 -0.3653  0.7026 -0.5551
  124OSM   H17S13195   3.829   6.926   8.221 -0.6416  2.0598 -0.4897
  124OSM   H17T13196   3.886   7.018   8.363  2.0550 -0.5645  1.9882
  124OSM   C18S13197   3.951   6.806   8.361  0.9221  0.0507 -0.5052
  124OSM   H18S13198   3.990   6.734   8.286  0.3217 -0.5438 -0.2558
  124OSM   H18T13199   3.858   6.772   8.412  0.3653  1.8499 -0.2395
  124OSM   H18U13200   4.042   6.825   8.422  1.4896 -0.4263 -1.1996
  124OSM    C1F13201   3.672   6.746   6.571  0.2293  0.5547 -0.1263
  124OSM     OF13202   3.749   6.653   6.567  0.2191  0.7829  1.3005
  124OSM    C2F13203   3.524   6.724   6.543 -0.9387  0.1713  0.5475
  124OSM    H2F13204   3.511   6.695   6.437 -0.0127  1.0878  0.1614
  124OSM    H2G13205   3.460   6.813   6.559 -1.0260  0.4471 -1.2002
  124OSM    C3F13206   3.460   6.611   6.628 -0.0591  0.6920 -0.1390
  124OSM    H3F13207   3.481   6.625   6.736 -1.4916 -1.1260  0.4209
  124OSM    H3G13208   3.510   6.519   6.590 -0.0672  0.4030  0.5413
  124OSM    C4F13209   3.309   6.601   6.603 -0.3159 -0.2473 -0.2205
  124OSM    H4F13210   3.303   6.624   6.494  1.5784 -0.7614 -0.4688
  124OSM    H4G13211   3.253   6.678   6.660  0.9523  1.4631 -1.1729
  124OSM    C5F13212   3.253   6.462   6.629 -0.7657 -0.1730 -0.2405
  124OSM    H5F13213   3.292   6.430   6.729  0.8436  0.0541 -0.7605
  124OSM    H5G13214   3.304   6.395   6.557 -1.3852 -1.3938  0.4169
  124OSM    C6F13215   3.101   6.438   6.620  0.1902  0.4735  0.1219
  124OSM    H6F13216   3.078   6.335   6.656  1.2563 -0.2713 -1.2396
  124OSM    H6G13217   3.055   6.440   6.519 -3.1416 -0.9543  1.4460
  124OSM    C7F13218   3.015   6.539   6.702 -0.0702  1.2943 -0.0684
  124OSM    H7F13219   2.990   6.621   6.632  1.1157  0.6696 -1.2552
  124OSM    H7G13220   3.083   6.578   6.781  3.1446  0.9041 -2.4854
  124OSM    C8F13221   2.876   6.493   6.758 -0.0095  0.4542 -0.7136
  124OSM    H8F13222   2.889   6.401   6.820  0.3963  0.0376 -1.3932
  124OSM    H8G13223   2.809   6.466   6.673  0.5094 -1.9362 -0.4601
  124OSM    C9F13224   2.810   6.605   6.842 -0.0548  0.3408  0.3123
  124OSM    H9F13225   2.771   6.687   6.779  1.4282  1.4366  0.7561
  124OSM   C10F13226   2.807   6.624   6.977 -0.6620 -0.1004 -0.2772
  124OSM   H10F13227   2.746   6.706   7.017 -0.0097  0.1844  0.1460
  124OSM   C11F13228   2.860   6.530   7.078  0.7249 -0.4489 -0.5168
  124OSM   H11F13229   2.939   6.465   7.034 -0.3994 -0.8590 -1.9863
  124OSM   H11G13230   2.790   6.447   7.102  2.2029 -1.7193 -0.4211
  124OSM   C12F13231   2.901   6.601   7.213 -0.0949 -0.1042  0.1983
  124OSM   H12F13232   2.938   6.526   7.286  2.4806  1.8581  1.0546
  124OSM   H12G13233   2.813   6.651   7.258 -0.6655 -1.6477  0.8592
  124OSM   C13F13234   3.019   6.693   7.184 -0.0233 -0.1055  0.2041
  124OSM   H13F13235   2.981   6.787   7.139 -1.3685 -0.4791  0.5119
  124OSM   H13G13236   3.094   6.651   7.114 -0.2774 -1.1954  0.5663
  124OSM   C14F13237   3.108   6.725   7.303 -0.2807 -0.3203 -0.2932
  124OSM   H14F13238   3.142   6.634   7.356  0.9656 -1.2064 -2.5121
  124OSM   H14G13239   3.058   6.796   7.373  3.6018  3.0834 -0.5986
  124OSM   C15F13240   3.239   6.804   7.254  0.1317  0.4679  0.1106
  124OSM   H15F13241   3.273   6.856   7.346 -4.4172  1.3369  1.5711
  124OSM   H15G13242   3.202   6.869   7.172 -2.2519 -1.4967 -0.4823
  124OSM   C16F13243   3.350   6.714   7.203 -0.1666 -0.7020 -0.3535
  124OSM   H16F13244   3.308   6.644   7.127  1.1160  0.4645 -2.2211
  124OSM   H16G13245   3.398   6.673   7.295  2.0343  1.4218 -0.4469
  124OSM   C17F13246   3.450   6.801   7.118  0.2449 -0.2807 -0.1793
  124OSM   H17F13247   3.469   6.894   7.176 -3.0576  0.3400  0.1027
  124OSM   H17G13248   3.384   6.822   7.032 -0.5807 -0.3398  0.4261
  124OSM   C18F13249   3.571   6.734   7.071 -0.1685  0.2502 -1.1190
  124OSM   H18F13250   3.555   6.632   7.028 -0.1996 -0.7612  1.1638
  124OSM   H18G13251   3.637   6.723   7.160 -1.7149  0.7102  0.1239
  124OSM   H18H13252   3.623   6.790   6.990  0.0994 -1.6075 -2.3115
  125OSM      N13253   0.202   5.203   5.807  0.1611 -0.1408 -0.3830
  125OSM    C1513254   0.349   5.237   5.824  0.1298 -0.2153  0.4086
  125OSM   H15A13255   0.377   5.284   5.730  1.6968 -0.4419  0.7255
  125OSM   H15B13256   0.405   5.146   5.838 -1.4519 -1.0504  1.5764
  125OSM   H15C13257   0.354   5.317   5.897  1.1883  1.2214 -1.1477
  125OSM    C1413258   0.123   5.321   5.770  0.0857 -0.4743  0.3356
  125OSM   H14A13259   0.020   5.309   5.740 -0.2865  1.5323  0.6799
  125OSM   H14B13260   0.161   5.375   5.685 -1.5454  1.2393  0.6273
  125OSM   H14C13261   0.119   5.394   5.850  0.6510  1.4277 -1.3105
  125OSM    C1313262   0.195   5.116   5.680  0.2903 -0.0675  0.0253
  125OSM   H13A13263   0.111   5.050   5.659  1.4313 -0.8641 -2.4763
  125OSM   H13B13264   0.284   5.056   5.683 -0.0090 -0.4660  1.4080
  125OSM   H13C13265   0.210   5.181   5.594 -0.0232 -0.8540 -0.6393
  125OSM    C1213266   0.139   5.124   5.926 -0.2928  0.0025  0.0202
  125OSM   H12A13267   0.179   5.024   5.921  1.2127  0.6258 -2.5922
  125OSM   H12B13268   0.033   5.107   5.910 -0.8037  1.0995  1.9908
  125OSM    C1113269   0.162   5.166   6.078  0.0210 -0.0629  0.3468
  125OSM   H11A13270   0.271   5.169   6.100  0.2849 -1.2015 -0.7057
  125OSM   H11B13271   0.123   5.083   6.141 -0.7298 -0.5454 -0.7173
  125OSM      P13272  -0.046   5.299   6.165 -0.0385 -0.3083 -0.0901
  125OSM    O1313273  -0.076   5.438   6.204 -0.1838 -0.6279  0.5974
  125OSM    O1413274  -0.138   5.222   6.083 -0.3996  0.3610 -0.3911
  125OSM    O1113275  -0.017   5.224   6.303 -0.3191 -0.2740  0.6159
  125OSM    O1213276   0.098   5.292   6.098  0.0627 -0.0316 -0.4718
  125OSM    C1S13277   0.085   5.274   6.389 -0.2241  0.8082  0.0711
  125OSM    H1S13278   0.101   5.383   6.389  1.2993  0.6085 -0.4447
  125OSM    H1T13279   0.184   5.250   6.346  0.8076  2.0020  1.6605
  125OSM     NF13280   0.168   5.281   6.618 -0.0786  0.1497 -0.0953
  125OSM    HNF13281   0.257   5.237   6.625  0.7356  1.9307  2.0200
  125OSM    C2S13282   0.073   5.214   6.534 -0.0127  0.3354 -0.3485
  125OSM    H2S13283  -0.023   5.237   6.585  0.3764 -2.0082  1.6499
  125OSM    C3S13284   0.091   5.057   6.529  0.3766  0.2991 -0.3612
  125OSM    H3S13285   0.193   5.031   6.494  0.4687  0.3301 -0.1195
  125OSM     O313286  -0.017   4.997   6.449 -0.5612  0.5110  0.0162
  125OSM    HO313287  -0.059   5.073   6.410  0.2292  1.6844  1.3566
  125OSM    C4S13288   0.086   5.005   6.674  0.8459  0.4869 -0.4771
  125OSM    H4S13289  -0.016   4.987   6.711  1.6623  0.3601  1.8626
  125OSM    C5S13290   0.176   4.942   6.749 -0.5466  0.1500 -0.2569
  125OSM    H5S13291   0.279   4.929   6.712 -1.0293  1.9634 -2.5142
  125OSM    C6S13292   0.134   4.879   6.876 -0.7733  0.3238 -0.0735
  125OSM    H6S13293   0.144   4.769   6.867 -0.5819  0.5192 -2.7754
  125OSM    H6T13294   0.028   4.901   6.904 -0.3171  0.0416  2.0324
  125OSM    C7S13295   0.230   4.931   6.991 -0.4076 -0.2545 -0.5006
  125OSM    H7S13296   0.220   5.041   7.005  1.6711 -0.0507 -0.4032
  125OSM    H7T13297   0.333   4.907   6.959  0.6205  1.8452  1.0637
  125OSM    C8S13298   0.187   4.872   7.133 -0.1572  0.4297  0.1531
  125OSM    H8S13299   0.183   4.763   7.114  0.5978  0.1352  1.5290
  125OSM    H8T13300   0.083   4.908   7.147  0.6721  3.1568 -0.0899
  125OSM    C9S13301   0.284   4.893   7.248 -0.8870  0.3950  0.5291
  125OSM    H9S13302   0.386   4.858   7.220 -1.6544 -1.1119 -0.5330
  125OSM    H9T13303   0.243   4.836   7.333 -0.2671 -1.6939 -0.5012
  125OSM   C10S13304   0.301   5.042   7.288 -0.6473  0.4263  0.5787
  125OSM   H10S13305   0.200   5.082   7.309 -0.4542  1.4251 -0.2826
  125OSM   H10T13306   0.346   5.102   7.205  3.2415 -3.5730 -0.5770
  125OSM   C11S13307   0.398   5.073   7.399  0.8589 -0.4424  0.0648
  125OSM   H11S13308   0.501   5.043   7.372  0.4820  0.8317 -3.1390
  125OSM   H11T13309   0.358   5.012   7.483 -0.4995 -0.4391 -0.5536
  125OSM   C12S13310   0.393   5.227   7.427  0.2194  0.1833 -0.0579
  125OSM   H12S13311   0.291   5.257   7.458  0.9370  2.2132  0.5355
  125OSM   H12T13312   0.413   5.281   7.331 -2.5191 -1.0175 -1.3962
  125OSM   C13S13313   0.487   5.263   7.536 -0.2688  0.1358 -0.0826
  125OSM   H13S13314   0.588   5.239   7.496  0.2533  0.0250  1.2757
  125OSM   H13T13315   0.477   5.196   7.624  3.3585 -1.2883 -0.5607
  125OSM   C14S13316   0.483   5.419   7.570  0.2828  0.7643  0.5524
  125OSM   H14S13317   0.373   5.431   7.586 -0.0095  2.8644 -2.3174
  125OSM   H14T13318   0.518   5.470   7.478  2.1093 -1.7937 -0.3038
  125OSM   C15S13319   0.555   5.482   7.690 -0.1397  0.4696 -0.6325
  125OSM   H15S13320   0.537   5.591   7.697 -0.3225  0.3432  2.2618
  125OSM   H15T13321   0.664   5.465   7.680  0.1737  1.2963  1.0359
  125OSM   C16S13322   0.505   5.415   7.812  0.5300 -0.4826 -0.0086
  125OSM   H16S13323   0.500   5.304   7.806 -1.1264 -0.4471  0.2720
  125OSM   H16T13324   0.405   5.454   7.839  0.7167  1.3236 -1.7317
  125OSM   C17S13325   0.608   5.437   7.923  0.1168  0.7410 -0.2113
  125OSM   H17S13326   0.603   5.547   7.936 -3.1612  0.9901 -2.2420
  125OSM   H17T13327   0.709   5.394   7.906  0.2096 -0.9643  3.5596
  125OSM   C18S13328   0.550   5.367   8.045  0.3542 -0.0228 -0.0708
  125OSM   H18S13329   0.462   5.430   8.072  0.3568  0.0190 -0.1633
  125OSM   H18T13330   0.617   5.368   8.134 -0.3698 -2.0797  0.5709
  125OSM   H18U13331   0.519   5.263   8.020 -0.1566  0.4784 -1.6294
  125OSM    C1F13332   0.164   5.411   6.646 -0.0249  0.4867  0.1211
  125OSM     OF13333   0.066   5.487   6.622 -0.6107 -0.7131  0.4746
  125OSM    C2F13334   0.300   5.445   6.708  0.1675  0.1335 -0.3905
  125OSM    H2F13335   0.343   5.532   6.655  0.7737  0.7153  1.0149
  125OSM    H2G13336   0.377   5.369   6.682  0.3387 -0.8201  2.5081
  125OSM    C3F13337   0.288   5.471   6.862 -0.3044  0.1392  0.2370
  125OSM    H3F13338   0.227   5.562   6.884 -0.6083 -0.4231  1.8494
  125OSM    H3G13339   0.389   5.503   6.895  0.9164 -0.7203 -2.3761
  125OSM    C4F13340   0.242   5.358   6.955  0.5030 -0.4691 -0.0810
  125OSM    H4F13341   0.304   5.267   6.938  1.3329  0.1932 -0.7154
  125OSM    H4G13342   0.135   5.342   6.932  0.1025  0.5216  1.0226
  125OSM    C5F13343   0.262   5.394   7.096  0.5424  0.5188  0.1584
  125OSM    H5F13344   0.369   5.423   7.107  0.5067  1.3957 -1.5827
  125OSM    H5G13345   0.243   5.305   7.159  0.6970 -0.3775 -1.0314
  125OSM    C6F13346   0.166   5.489   7.164  0.8270 -0.0191 -0.0198
  125OSM    H6F13347   0.061   5.454   7.164  1.2558 -1.3442  1.0441
  125OSM    H6G13348   0.162   5.586   7.108  0.9791 -1.1968 -2.1969
  125OSM    C7F13349   0.209   5.508   7.314  0.0123 -0.5433  0.6786
  125OSM    H7F13350   0.312   5.548   7.320 -0.1754  0.7076 -2.4921
  125OSM    H7G13351   0.220   5.408   7.361  1.4352 -0.3599  0.7823
  125OSM    C8F13352   0.112   5.582   7.411 -0.3243 -0.3639  0.2433
  125OSM    H8F13353   0.011   5.540   7.429 -1.0124  0.9390 -0.4566
  125OSM    H8G13354   0.085   5.675   7.357  1.4536 -0.3982 -0.7709
  125OSM    C9F13355   0.173   5.609   7.556  0.1927 -0.6773  0.4065
  125OSM    H9F13356   0.251   5.687   7.562  0.4023 -0.7058 -1.3631
  125OSM   C10F13357   0.135   5.558   7.673 -0.5735 -0.9372  0.2666
  125OSM   H10F13358   0.179   5.598   7.765 -2.3152 -1.2276  1.2892
  125OSM   C11F13359   0.027   5.454   7.696 -0.2363  0.1520 -0.4673
  125OSM   H11F13360  -0.029   5.429   7.604  0.1340 -0.5609 -0.5097
  125OSM   H11G13361  -0.052   5.489   7.766  0.3544 -1.7457  1.2724
  125OSM   C12F13362   0.094   5.331   7.747 -0.0505 -0.1494 -0.0405
  125OSM   H12F13363   0.162   5.354   7.832  1.0187  0.1563 -0.9484
  125OSM   H12G13364   0.148   5.270   7.671 -0.7129  0.3574 -0.9325
  125OSM   C13F13365  -0.018   5.243   7.810  0.2935  0.0763 -0.2269
  125OSM   H13F13366  -0.113   5.256   7.754  1.6667  0.9546 -2.4639
  125OSM   H13G13367  -0.037   5.279   7.914 -2.2274 -0.7619 -0.3346
  125OSM   C14F13368   0.009   5.094   7.836 -0.7389  0.5194 -0.4104
  125OSM   H14F13369   0.013   5.042   7.738 -2.9433  1.0434 -0.8273
  125OSM   H14G13370  -0.081   5.058   7.890  1.4406 -0.9266  2.5790
  125OSM   C15F13371   0.140   5.077   7.925 -0.0878  0.9191 -0.1166
  125OSM   H15F13372   0.152   5.172   7.981  2.0792  0.4424  0.3168
  125OSM   H15G13373   0.224   5.072   7.852 -2.4787  4.1118 -3.4492
  125OSM   C16F13374   0.132   4.963   8.027 -0.1348 -0.3945  0.3660
  125OSM   H16F13375   0.108   4.871   7.969  1.3862 -0.8098  0.3452
  125OSM   H16G13376   0.043   4.974   8.092  0.1340 -1.4232  0.9344
  125OSM   C17F13377   0.249   4.935   8.116  0.2997 -0.5670 -0.3687
  125OSM   H17F13378   0.330   4.890   8.054  0.2985 -0.9607 -0.0881
  125OSM   H17G13379   0.223   4.861   8.195  2.4394  0.1913  1.1626
  125OSM   C18F13380   0.303   5.063   8.195 -0.0848 -0.0065  0.6410
  125OSM   H18F13381   0.220   5.136   8.197  1.0657  1.9025 -4.6297
  125OSM   H18G13382   0.388   5.106   8.138 -0.4305  1.4063  1.1719
  125OSM   H18H13383   0.334   5.040   8.299  1.1050 -2.8099 -0.2210
  126OSM      N13384   4.004   3.263   6.204 -0.1658 -0.1344  0.6339
  126OSM    C1513385   4.105   3.178   6.283 -0.5981  0.5705  0.1267
  126OSM   H15A13386   4.177   3.244   6.327  0.8123 -0.1458 -1.0334
  126OSM   H15B13387   4.144   3.096   6.224 -0.7287 -0.5070  1.4707
  126OSM   H15C13388   4.049   3.137   6.366  2.3342 -0.3180  1.8194
  126OSM    C1413389   4.065   3.297   6.068 -0.1988  0.1592  0.0993
  126OSM   H14A13390   3.999   3.360   6.010  0.4208 -0.2972 -1.1398
  126OSM   H14B13391   4.072   3.210   6.004 -2.9426  0.8226 -1.2396
  126OSM   H14C13392   4.161   3.345   6.081  0.2078 -0.9196  1.3246
  126OSM    C1313393   3.882   3.178   6.174 -0.2545 -0.4546 -0.7330
  126OSM   H13A13394   3.856   3.122   6.263 -0.7195 -0.4239 -0.8495
  126OSM   H13B13395   3.909   3.102   6.102  0.7069 -3.7979  2.7901
  126OSM   H13C13396   3.791   3.229   6.146 -0.0897  0.9282  1.0811
  126OSM    C1213397   3.956   3.391   6.276  0.8904  0.2172 -0.5138
  126OSM   H12A13398   3.868   3.420   6.220  0.8537  0.6883 -0.2223
  126OSM   H12B13399   4.031   3.469   6.271 -0.6091  2.0050  2.1942
  126OSM    C1113400   3.909   3.384   6.424  0.1073  0.0227 -0.2162
  126OSM   H11A13401   3.891   3.484   6.471  0.8429 -0.1690  0.4972
  126OSM   H11B13402   3.985   3.344   6.495  0.2236  0.6879  0.0432
  126OSM      P13403   3.774   3.178   6.520 -0.2304 -0.0677  0.1958
  126OSM    O1313404   3.635   3.115   6.506  0.1889  0.0320  0.2376
  126OSM    O1413405   3.889   3.099   6.470  0.6818  0.0444  0.4118
  126OSM    O1113406   3.805   3.230   6.675  0.6521 -0.2782  0.8804
  126OSM    O1213407   3.787   3.313   6.433 -0.2380  0.0234  0.1892
  126OSM    C1S13408   3.766   3.362   6.710 -0.0282 -0.4392 -0.3634
  126OSM    H1S13409   3.676   3.393   6.653 -0.0357  0.9202  0.3580
  126OSM    H1T13410   3.837   3.438   6.670  1.6753 -2.0351 -0.5033
  126OSM     NF13411   3.681   3.513   6.903  0.0455 -0.3082  0.5018
  126OSM    HNF13412   3.736   3.595   6.917  1.4817 -0.8730 -1.4961
  126OSM    C2S13413   3.749   3.377   6.870  0.4886 -0.6349  0.4603
  126OSM    H2S13414   3.687   3.287   6.891  1.0582 -1.4604 -1.2207
  126OSM    C3S13415   3.879   3.367   6.946  1.0376  0.5063  0.1124
  126OSM    H3S13416   3.936   3.461   6.929 -1.4211  1.7194 -2.1123
  126OSM     O313417   3.959   3.263   6.885 -0.6711  0.8203  0.4442
  126OSM    HO313418   3.901   3.232   6.815 -0.3495  1.5803 -0.1723
  126OSM    C4S13419   3.862   3.331   7.089  0.0780  0.1405 -0.2477
  126OSM    H4S13420   3.834   3.227   7.109 -0.3410  0.5885  1.6237
  126OSM    C5S13421   3.875   3.417   7.191  0.3180 -0.1052 -0.2182
  126OSM    H5S13422   3.921   3.515   7.170 -0.2184  0.4053  0.9021
  126OSM    C6S13423   3.830   3.379   7.331  0.1838 -0.2538 -0.1818
  126OSM    H6S13424   3.926   3.342   7.373  0.5925 -2.4251 -2.7283
  126OSM    H6T13425   3.761   3.292   7.329 -0.3795  0.1894 -0.3041
  126OSM    C7S13426   3.766   3.487   7.417  0.7401 -0.5336  0.4086
  126OSM    H7S13427   3.664   3.512   7.384  0.4827  1.2129  2.2863
  126OSM    H7T13428   3.844   3.566   7.414  2.5222 -2.0989  1.9253
  126OSM    C8S13429   3.751   3.451   7.561  0.2136  0.1966 -0.5739
  126OSM    H8S13430   3.712   3.543   7.611  0.0741 -1.5234  2.7658
  126OSM    H8T13431   3.845   3.432   7.617 -0.9626 -1.6125  0.9011
  126OSM    C9S13432   3.640   3.344   7.597 -0.8416  0.2121 -0.2707
  126OSM    H9S13433   3.668   3.256   7.536  2.1127  0.3202  0.7879
  126OSM    H9T13434   3.548   3.391   7.553  0.0342  1.2297 -1.0841
  126OSM   C10S13435   3.649   3.312   7.747 -0.4137 -0.3085 -0.2900
  126OSM   H10S13436   3.641   3.398   7.816  1.5313 -0.6657  0.4578
  126OSM   H10T13437   3.750   3.270   7.767  0.0996  0.9820 -0.0900
  126OSM   C11S13438   3.540   3.215   7.789  0.5910 -0.3097 -0.4623
  126OSM   H11S13439   3.571   3.112   7.764 -0.6985 -0.4617 -1.5255
  126OSM   H11T13440   3.452   3.243   7.728 -0.5891  1.4826  1.8540
  126OSM   C12S13441   3.501   3.225   7.938  0.6590  0.4528  0.3545
  126OSM   H12S13442   3.454   3.321   7.967  0.1699 -0.1881  1.7747
  126OSM   H12T13443   3.594   3.206   7.997  1.0377 -0.7533 -0.5997
  126OSM   C13S13444   3.398   3.122   7.988 -0.0826 -0.3181  0.4574
  126OSM   H13S13445   3.418   3.022   7.944  1.7298 -0.2969  1.1737
  126OSM   H13T13446   3.299   3.154   7.949  0.4544  0.4942 -0.2783
  126OSM   C14S13447   3.403   3.117   8.142 -0.7291 -0.4415 -0.0554
  126OSM   H14S13448   3.413   3.221   8.180  2.6450 -1.2951  1.8304
  126OSM   H14T13449   3.496   3.067   8.176 -0.1704  0.9022  0.4714
  126OSM   C15S13450   3.278   3.056   8.202  0.3319  0.1901 -0.0107
  126OSM   H15S13451   3.277   2.947   8.183  3.0546 -0.2669  1.9162
  126OSM   H15T13452   3.185   3.099   8.159  0.1134 -0.1619  0.1104
  126OSM   C16S13453   3.265   3.090   8.352  0.1612  0.0465 -0.6782
  126OSM   H16S13454   3.233   3.195   8.372 -0.1428 -0.4490  1.6469
  126OSM   H16T13455   3.359   3.071   8.408  0.1780 -1.3293 -1.1518
  126OSM   C17S13456   3.164   3.011   8.434  0.1920 -0.4966 -0.1249
  126OSM   H17S13457   3.190   2.906   8.460  0.3764 -0.5300 -0.4321
  126OSM   H17T13458   3.062   3.017   8.390  0.3049  0.0106 -0.3203
  126OSM   C18S13459   3.159   3.070   8.579 -0.5166  0.0283 -0.3582
  126OSM   H18S13460   3.085   3.011   8.638 -2.7312 -1.1086 -3.9681
  126OSM   H18T13461   3.129   3.175   8.561  1.6904  1.1784  2.0837
  126OSM   H18U13462   3.263   3.066   8.617 -0.4548 -1.5009 -0.6283
  126OSM    C1F13463   3.560   3.524   6.854 -0.1851 -0.3515 -0.6581
  126OSM     OF13464   3.490   3.424   6.843 -0.0577 -0.1509 -0.4252
  126OSM    C2F13465   3.513   3.668   6.810 -0.9228  0.9563  0.1873
  126OSM    H2F13466   3.460   3.655   6.713 -1.7046 -0.2353  0.7558
  126OSM    H2G13467   3.603   3.733   6.802  0.4251 -0.8907 -0.2301
  126OSM    C3F13468   3.421   3.741   6.910 -0.1822 -0.6055  0.4373
  126OSM    H3F13469   3.316   3.705   6.910 -0.4559  0.1619 -0.0987
  126OSM    H3G13470   3.418   3.847   6.875  0.2053 -0.3213  1.2312
  126OSM    C4F13471   3.472   3.753   7.058 -0.1801 -0.3776 -0.8943
  126OSM    H4F13472   3.576   3.790   7.059  0.4614 -2.0991 -0.5404
  126OSM    H4G13473   3.482   3.647   7.090 -0.4092  0.0493  0.6698
  126OSM    C5F13474   3.367   3.819   7.147  0.0232  0.2764 -0.2306
  126OSM    H5F13475   3.270   3.765   7.146  0.8071 -1.2165 -2.1325
  126OSM    H5G13476   3.349   3.924   7.117 -0.1071  0.6923  1.2308
  126OSM    C6F13477   3.419   3.827   7.294  0.7037 -0.8918 -0.1543
  126OSM    H6F13478   3.342   3.876   7.357  1.6362 -0.7898  0.9335
  126OSM    H6G13479   3.500   3.902   7.307 -0.5230  0.7108 -1.3342
  126OSM    C7F13480   3.448   3.694   7.359 -0.1833 -0.6267 -0.5394
  126OSM    H7F13481   3.529   3.642   7.303  2.1560  2.2975 -0.1414
  126OSM    H7G13482   3.356   3.632   7.355 -0.2343 -0.5196 -3.9155
  126OSM    C8F13483   3.491   3.714   7.505  0.1619 -0.4681 -0.0863
  126OSM    H8F13484   3.493   3.616   7.558  3.0748 -0.5769 -0.2502
  126OSM    H8G13485   3.406   3.771   7.548 -0.1204  0.7897 -2.1565
  126OSM    C9F13486   3.619   3.788   7.523 -0.1387  0.3241 -0.3206
  126OSM    H9F13487   3.679   3.798   7.431  0.8035 -0.6962  0.1609
  126OSM   C10F13488   3.676   3.826   7.635 -0.3429  0.0802  0.1287
  126OSM   H10F13489   3.760   3.896   7.639  1.8338 -2.3320 -0.5670
  126OSM   C11F13490   3.606   3.820   7.768  0.5804 -1.0740 -0.0654
  126OSM   H11F13491   3.682   3.794   7.846 -0.4106  0.3161  1.4254
  126OSM   H11G13492   3.539   3.732   7.779 -1.2632 -0.0064 -2.0348
  126OSM   C12F13493   3.539   3.944   7.811  0.0125 -0.0102  0.1363
  126OSM   H12F13494   3.451   3.971   7.748 -1.0605 -1.2150  1.0513
  126OSM   H12G13495   3.608   4.031   7.811  0.3715 -0.2768 -1.1044
  126OSM   C13F13496   3.472   3.926   7.947  0.1482  0.4625 -0.1333
  126OSM   H13F13497   3.545   3.912   8.028 -0.9568 -2.1568  0.5129
  126OSM   H13G13498   3.411   3.833   7.951 -0.1973  0.6126 -1.2946
  126OSM   C14F13499   3.392   4.055   7.986  0.4765  0.3941 -0.2403
  126OSM   H14F13500   3.323   4.075   7.902 -0.9786  0.3025  0.8956
  126OSM   H14G13501   3.451   4.148   7.997 -2.1427  2.1741 -0.4280
  126OSM   C15F13502   3.307   4.036   8.107  0.3141  0.4309 -0.2030
  126OSM   H15F13503   3.248   3.944   8.089 -1.8113  2.0215 -1.8384
  126OSM   H15G13504   3.233   4.116   8.126  0.8424  0.9584 -0.3293
  126OSM   C16F13505   3.380   4.027   8.242  0.0015  0.1343  0.0017
  126OSM   H16F13506   3.433   4.121   8.268 -1.6957  0.5926  2.0641
  126OSM   H16G13507   3.467   3.959   8.234 -0.0293  0.0054  0.6902
  126OSM   C17F13508   3.289   3.991   8.358 -0.3971  0.5188  0.1188
  126OSM   H17F13509   3.252   3.890   8.327  3.2115 -0.7638 -0.5082
  126OSM   H17G13510   3.208   4.067   8.363 -0.1272  0.7866  0.4949
  126OSM   C18F13511   3.367   3.978   8.487  0.5522  0.7959  0.5867
  126OSM   H18F13512   3.450   3.907   8.467 -1.7369 -1.3704 -2.2755
  126OSM   H18G13513   3.301   3.922   8.557  2.4013 -0.0940  1.7122
  126OSM   H18H13514   3.403   4.074   8.529  0.4988  1.7453 -1.4069
  127OSM      N13515   2.487   5.348   5.951  0.1753  0.2203 -0.1585
  127OSM    C1513516   2.396   5.321   5.840 -0.7716 -0.0716  0.3887
  127OSM   H15A13517   2.343   5.410   5.808  1.0867  1.3167  0.9806
  127OSM   H15B13518   2.324   5.243   5.855  1.1120 -1.5409  2.4759
  127OSM   H15C13519   2.452   5.294   5.752  1.5188 -1.6406  2.1842
  127OSM    C1413520   2.560   5.222   5.985 -0.2099 -0.2226 -0.0578
  127OSM   H14A13521   2.488   5.163   6.038  0.7329 -1.0177  0.3709
  127OSM   H14B13522   2.646   5.231   6.049 -0.4705 -1.7170  0.5466
  127OSM   H14C13523   2.596   5.171   5.896  1.6521  2.8879 -1.2809
  127OSM    C1313524   2.588   5.447   5.896  0.0885  0.7093 -0.5056
  127OSM   H13A13525   2.529   5.528   5.857 -1.0055 -0.0183 -0.3801
  127OSM   H13B13526   2.647   5.412   5.813  0.9797  1.3661 -0.1677
  127OSM   H13C13527   2.659   5.487   5.968  1.6320 -2.3915 -0.1453
  127OSM    C1213528   2.408   5.402   6.070  0.0990  0.6674  0.2924
  127OSM   H12A13529   2.484   5.431   6.141 -0.6063  1.2888  0.8016
  127OSM   H12B13530   2.357   5.314   6.106  0.4953  0.6654  0.8624
  127OSM    C1113531   2.304   5.511   6.047 -0.2156  0.0288 -0.0391
  127OSM   H11A13532   2.256   5.520   6.147 -0.5815  2.7028 -0.3714
  127OSM   H11B13533   2.219   5.472   5.986 -1.8099  1.3443  1.2514
  127OSM      P13534   2.446   5.727   6.094 -0.2173  0.2261  0.3562
  127OSM    O1313535   2.583   5.741   6.036 -0.2822  0.0998  0.0798
  127OSM    O1413536   2.374   5.850   6.135  0.5483  0.5601  0.3332
  127OSM    O1113537   2.469   5.637   6.221  0.1997  0.3363  0.1893
  127OSM    O1213538   2.361   5.638   5.998 -0.2612  0.3082  0.0840
  127OSM    C1S13539   2.591   5.642   6.305  0.1233 -0.1075  0.3688
  127OSM    H1S13540   2.638   5.742   6.296  0.5288 -0.4406 -1.5594
  127OSM    H1T13541   2.657   5.557   6.278 -0.2354 -0.0071 -0.8523
  127OSM     NF13542   2.641   5.663   6.557  0.0155  0.9351 -0.2253
  127OSM    HNF13543   2.691   5.591   6.605  1.9896  2.1845 -0.2553
  127OSM    C2S13544   2.543   5.624   6.457  0.5752 -0.2729 -0.0825
  127OSM    H2S13545   2.453   5.687   6.474  0.0571 -1.4256  1.6579
  127OSM    C3S13546   2.487   5.475   6.479 -0.4335 -0.1081 -0.7824
  127OSM    H3S13547   2.572   5.406   6.459 -2.3648 -1.8382 -3.9585
  127OSM     O313548   2.400   5.432   6.379  0.4229  0.0545  0.3722
  127OSM    HO313549   2.396   5.506   6.318 -0.7214  0.9575  1.4989
  127OSM    C4S13550   2.419   5.449   6.615 -0.1860  0.2923 -0.1077
  127OSM    H4S13551   2.325   5.504   6.626 -0.8590 -0.7353 -0.5379
  127OSM    C5S13552   2.471   5.358   6.699  0.9090  0.1764  0.6173
  127OSM    H5S13553   2.564   5.308   6.667 -0.1879 -1.1756 -0.5922
  127OSM    C6S13554   2.433   5.320   6.840 -0.1095 -0.4824 -0.2144
  127OSM    H6S13555   2.392   5.217   6.847  3.5246 -1.9182  2.3909
  127OSM    H6T13556   2.350   5.384   6.877  1.4715  2.1843 -1.0168
  127OSM    C7S13557   2.547   5.331   6.941  0.3822  0.3637  0.3160
  127OSM    H7S13558   2.593   5.432   6.948 -1.9247  1.6230 -1.2870
  127OSM    H7T13559   2.633   5.264   6.918  0.1914  0.3631 -0.4115
  127OSM    C8S13560   2.497   5.298   7.087 -0.0054 -0.0553  0.2106
  127OSM    H8S13561   2.444   5.201   7.083  1.7690 -1.0444 -0.3267
  127OSM    H8T13562   2.432   5.382   7.121  1.6069  0.5665  1.9542
  127OSM    C9S13563   2.604   5.272   7.180 -0.3663  0.6276  0.2491
  127OSM    H9S13564   2.670   5.360   7.191 -2.6845  2.4203  0.4965
  127OSM    H9T13565   2.665   5.185   7.147 -2.0569  0.1916 -1.9331
  127OSM   C10S13566   2.564   5.241   7.331  0.6313 -0.2675 -0.0024
  127OSM   H10S13567   2.518   5.140   7.327 -0.3225  0.1923 -1.4181
  127OSM   H10T13568   2.502   5.325   7.370  0.7485 -0.0146 -0.3509
  127OSM   C11S13569   2.670   5.225   7.439 -0.8647 -0.5434 -0.0757
  127OSM   H11S13570   2.759   5.291   7.429 -0.4901 -0.7197  1.7312
  127OSM   H11T13571   2.721   5.129   7.419 -0.3907 -0.3926  0.4036
  127OSM   C12S13572   2.613   5.232   7.576 -0.0490 -0.4166 -0.3314
  127OSM   H12S13573   2.529   5.159   7.580  1.3348 -2.0890 -0.7535
  127OSM   H12T13574   2.572   5.333   7.595  0.7132 -0.4525  1.8330
  127OSM   C13S13575   2.717   5.218   7.693  0.3037  0.2733  0.6980
  127OSM   H13S13576   2.753   5.113   7.692 -2.5986 -1.0243 -4.5451
  127OSM   H13T13577   2.681   5.230   7.797  2.8943 -2.3101  2.0284
  127OSM   C14S13578   2.824   5.322   7.678 -0.7192  0.1939 -0.5541
  127OSM   H14S13579   2.777   5.423   7.675 -2.3712 -0.5452 -0.8457
  127OSM   H14T13580   2.888   5.305   7.589 -1.1308 -1.7910 -0.5306
  127OSM   C15S13581   2.932   5.326   7.797 -0.2771  0.4239 -0.5623
  127OSM   H15S13582   2.864   5.342   7.883  0.8174  0.7920  0.2536
  127OSM   H15T13583   3.005   5.409   7.790  0.9250 -0.2545  2.2643
  127OSM   C16S13584   3.017   5.198   7.821  0.7112 -0.0895 -0.6513
  127OSM   H16S13585   3.103   5.200   7.750 -0.1739 -2.9388 -1.9738
  127OSM   H16T13586   2.964   5.108   7.784 -1.0908  0.4669  0.5033
  127OSM   C17S13587   3.071   5.176   7.956 -0.0931  1.1044  0.1144
  127OSM   H17S13588   3.103   5.071   7.969  1.8073  1.4281 -1.4860
  127OSM   H17T13589   2.997   5.197   8.036 -1.1272 -0.6311 -0.3406
  127OSM   C18S13590   3.194   5.266   7.986 -0.4273 -0.4539 -0.1573
  127OSM   H18S13591   3.244   5.235   8.081  0.5761 -3.2010 -1.4820
  127OSM   H18T13592   3.164   5.372   7.976  0.0328 -0.4946 -2.4132
  127OSM   H18U13593   3.257   5.263   7.895 -3.3711 -1.2371 -2.3204
  127OSM    C1F13594   2.680   5.784   6.562  0.3534 -0.5213 -0.1902
  127OSM     OF13595   2.616   5.876   6.513  0.5959 -0.0490  0.8353
  127OSM    C2F13596   2.796   5.817   6.647 -0.3579  0.6245 -0.0203
  127OSM    H2F13597   2.850   5.723   6.673 -1.4582  0.0742  0.3599
  127OSM    H2G13598   2.747   5.842   6.744  0.5967  1.7371  0.1973
  127OSM    C3F13599   2.883   5.930   6.596  0.3952 -0.3461  0.8387
  127OSM    H3F13600   2.826   6.025   6.588 -0.6290 -0.9763  0.3401
  127OSM    H3G13601   2.914   5.901   6.493  2.3554 -0.8861  1.5461
  127OSM    C4F13602   3.011   5.955   6.668  0.4843  0.7744  0.3908
  127OSM    H4F13603   3.081   6.020   6.611 -0.1339 -0.1343 -1.4856
  127OSM    H4G13604   3.064   5.858   6.663 -2.5925 -0.9737 -1.2733
  127OSM    C5F13605   3.002   6.020   6.803 -0.2246 -0.1948 -0.3526
  127OSM    H5F13606   2.953   5.957   6.880 -2.6504  1.6679 -0.2507
  127OSM    H5G13607   2.941   6.112   6.795 -2.6387 -1.2550  3.3253
  127OSM    C6F13608   3.147   6.066   6.856 -0.2227  0.5655  0.2823
  127OSM    H6F13609   3.207   6.105   6.771  0.2237 -0.0703  0.2954
  127OSM    H6G13610   3.190   5.978   6.907 -3.3658 -1.5695 -0.4611
  127OSM    C7F13611   3.133   6.187   6.958 -0.0908 -0.0802  0.1844
  127OSM    H7F13612   3.075   6.139   7.040  0.6063 -2.2933 -0.5303
  127OSM    H7G13613   3.066   6.264   6.915  0.5724  1.2897  1.5339
  127OSM    C8F13614   3.270   6.251   7.013  1.0157 -0.2776  0.6197
  127OSM    H8F13615   3.333   6.295   6.932 -1.4158  3.4018  0.5093
  127OSM    H8G13616   3.316   6.161   7.060 -0.9610 -1.1307  1.0050
  127OSM    C9F13617   3.229   6.367   7.106 -0.1234 -0.0698 -0.7095
  127OSM    H9F13618   3.202   6.458   7.051 -0.8570  1.1149  1.5095
  127OSM   C10F13619   3.213   6.365   7.239 -0.2938 -0.2617 -0.2550
  127OSM   H10F13620   3.181   6.459   7.286 -3.0386 -0.5492 -1.3583
  127OSM   C11F13621   3.236   6.251   7.330 -0.0203  0.1918  0.0566
  127OSM   H11F13622   3.344   6.226   7.342  0.3323  1.4624 -0.3025
  127OSM   H11G13623   3.204   6.166   7.267 -1.6245  0.5414  0.3653
  127OSM   C12F13624   3.170   6.255   7.466 -0.6853 -0.3375 -0.0804
  127OSM   H12F13625   3.136   6.155   7.501  0.5847 -0.2910  1.4116
  127OSM   H12G13626   3.072   6.306   7.460 -0.5292  0.3501  2.2843
  127OSM   C13F13627   3.263   6.299   7.583  1.1442 -0.3562 -0.0956
  127OSM   H13F13628   3.278   6.408   7.570  1.4794 -0.2008  1.3473
  127OSM   H13G13629   3.354   6.236   7.588  1.0721 -0.4605 -0.0955
  127OSM   C14F13630   3.186   6.284   7.722 -0.0495 -0.3559  0.5500
  127OSM   H14F13631   3.147   6.180   7.724 -0.1383 -0.4005 -1.4499
  127OSM   H14G13632   3.104   6.359   7.725  0.6346  0.4852 -0.8108
  127OSM   C15F13633   3.270   6.307   7.852  0.4874 -0.1114  0.0855
  127OSM   H15F13634   3.296   6.415   7.861  1.1185 -0.1658 -0.9019
  127OSM   H15G13635   3.360   6.245   7.833  1.0306  0.2732  1.3182
  127OSM   C16F13636   3.191   6.264   7.980  0.3116 -0.4447  0.0037
  127OSM   H16F13637   3.194   6.153   7.974  3.1188 -0.5203  0.9781
  127OSM   H16G13638   3.099   6.323   7.962  0.1852 -1.1397 -1.7282
  127OSM   C17F13639   3.263   6.295   8.117  0.8743 -0.8682 -0.0764
  127OSM   H17F13640   3.293   6.402   8.122 -2.2479  0.2039 -1.6154
  127OSM   H17G13641   3.350   6.228   8.100  0.9633 -0.8955  0.4865
  127OSM   C18F13642   3.171   6.253   8.239 -0.2867 -0.1662 -0.2034
  127OSM   H18F13643   3.094   6.330   8.261  1.6751  1.7372  0.3081
  127OSM   H18G13644   3.242   6.232   8.321 -1.2706 -3.4481 -0.0458
  127OSM   H18H13645   3.122   6.159   8.206  2.2768 -1.5532 -0.2928
  128OSM      N13646   1.520   1.578   6.098 -0.2935  0.2972 -0.4325
  128OSM    C1513647   1.398   1.487   6.097 -0.3985 -0.7338 -0.0997
  128OSM   H15A13648   1.306   1.532   6.131 -0.2145 -1.3449  1.2765
  128OSM   H15B13649   1.422   1.397   6.152  2.3063  0.2424  0.4769
  128OSM   H15C13650   1.376   1.468   5.993 -0.8196 -0.5278 -0.0502
  128OSM    C1413651   1.634   1.496   6.044 -0.0455 -0.0366  0.6004
  128OSM   H14A13652   1.613   1.455   5.946  2.2660  0.0148  0.0382
  128OSM   H14B13653   1.670   1.423   6.115  0.3920 -0.1823  0.2349
  128OSM   H14C13654   1.723   1.557   6.042  0.8721 -1.3701 -0.3997
  128OSM    C1313655   1.495   1.689   5.997  0.4344 -1.0153  1.3069
  128OSM   H13A13656   1.557   1.777   6.013 -2.3473  0.8514  2.5484
  128OSM   H13B13657   1.396   1.730   6.010  0.3635 -0.2730 -1.0571
  128OSM   H13C13658   1.495   1.658   5.893  0.4484  0.6778  0.7712
  128OSM    C1213659   1.549   1.622   6.239 -0.2016 -0.2724 -0.0624
  128OSM   H12A13660   1.535   1.542   6.310  0.6276 -2.2329 -1.9807
  128OSM   H12B13661   1.472   1.689   6.273  0.8224  1.5420 -1.1470
  128OSM    C1113662   1.690   1.692   6.261  1.2151 -0.3064 -0.4944
  128OSM   H11A13663   1.770   1.622   6.227  0.8311 -0.7548 -0.4836
  128OSM   H11B13664   1.713   1.711   6.368 -0.7810 -0.0394 -0.0633
  128OSM      P13665   1.612   1.940   6.261 -0.2375 -0.3894 -0.0248
  128OSM    O1313666   1.613   2.050   6.164 -0.2238 -0.5988  0.8568
  128OSM    O1413667   1.479   1.891   6.303  0.3488 -0.0899  0.4946
  128OSM    O1113668   1.686   1.991   6.390 -0.0230 -0.1862 -0.0622
  128OSM    O1213669   1.697   1.825   6.201 -0.5053  0.2069 -0.3209
  128OSM    C1S13670   1.635   2.096   6.469 -0.9226 -0.1926  0.3773
  128OSM    H1S13671   1.542   2.143   6.430 -1.3608  0.2161  1.8525
  128OSM    H1T13672   1.715   2.173   6.470  2.0638 -3.0051 -2.1172
  128OSM     NF13673   1.571   2.148   6.701  0.5823  0.4832 -0.1093
  128OSM    HNF13674   1.635   2.181   6.769  0.7593  0.4215 -0.2470
  128OSM    C2S13675   1.617   2.044   6.609 -0.0251 -0.1416 -0.4053
  128OSM    H2S13676   1.528   1.977   6.608 -2.7243  3.0085 -4.2302
  128OSM    C3S13677   1.741   1.964   6.662  0.5528  0.0147  0.8324
  128OSM    H3S13678   1.828   2.034   6.669  0.4221  0.1078  1.5979
  128OSM     O313679   1.791   1.854   6.584 -0.4157 -0.3276  0.1354
  128OSM    HO313680   1.770   1.877   6.493 -1.3362 -3.0663 -0.4389
  128OSM    C4S13681   1.716   1.907   6.799  0.2701  0.0496 -0.3924
  128OSM    H4S13682   1.648   1.822   6.808 -0.3384  0.2232 -2.8727
  128OSM    C5S13683   1.782   1.944   6.909 -0.1877 -0.0357  0.1382
  128OSM    H5S13684   1.859   2.022   6.910  1.6811 -1.7864 -0.6669
  128OSM    C6S13685   1.741   1.896   7.047 -0.3535 -0.0322 -0.0984
  128OSM    H6S13686   1.792   1.798   7.061 -2.2691 -0.7621  2.7041
  128OSM    H6T13687   1.632   1.872   7.048 -0.5734  0.8382  2.0996
  128OSM    C7S13688   1.764   1.980   7.174  0.3569 -0.7512  0.8335
  128OSM    H7S13689   1.868   2.019   7.181  1.0364 -2.5432  1.3396
  128OSM    H7T13690   1.751   1.911   7.260  0.8568  0.4662  1.9234
  128OSM    C8S13691   1.667   2.098   7.175  0.5644  0.0490 -0.3103
  128OSM    H8S13692   1.568   2.049   7.183  0.8091 -0.3006  0.6840
  128OSM    H8T13693   1.683   2.168   7.090 -0.3311  0.0759 -0.4668
  128OSM    C9S13694   1.684   2.178   7.299 -0.1505 -0.7822  0.1195
  128OSM    H9S13695   1.617   2.267   7.293  1.0831  0.1719  0.0838
  128OSM    H9T13696   1.793   2.196   7.308 -0.2213 -0.0802 -0.3636
  128OSM   C10S13697   1.635   2.106   7.424 -0.2900  0.2130 -0.8452
  128OSM   H10S13698   1.695   2.017   7.450  1.7295  1.5331 -0.7331
  128OSM   H10T13699   1.528   2.076   7.422 -0.4863  0.9174 -1.3293
  128OSM   C11S13700   1.669   2.208   7.537  0.1527  0.1910  0.0619
  128OSM   H11S13701   1.630   2.307   7.507 -0.8738  0.1794  1.2728
  128OSM   H11T13702   1.780   2.209   7.543  0.0802  0.5394  1.9288
  128OSM   C12S13703   1.608   2.168   7.666  0.3311  0.3326 -0.0050
  128OSM   H12S13704   1.647   2.069   7.696  0.5157  0.7006  1.0060
  128OSM   H12T13705   1.499   2.190   7.662  0.0173 -1.1210  0.1755
  128OSM   C13S13706   1.654   2.266   7.773 -0.0525 -0.3612 -1.1247
  128OSM   H13S13707   1.635   2.370   7.737 -1.1411  0.0725  0.5589
  128OSM   H13T13708   1.763   2.254   7.788 -0.3282 -1.5096  0.2689
  128OSM   C14S13709   1.596   2.259   7.915  0.4281  0.4373  0.1152
  128OSM   H14S13710   1.567   2.153   7.931  0.0586  0.3622 -1.0085
  128OSM   H14T13711   1.503   2.318   7.926 -0.2844 -0.9216  1.7426
  128OSM   C15S13712   1.716   2.307   8.010 -0.3429 -0.3456  0.1592
  128OSM   H15S13713   1.771   2.390   7.961  1.2413 -0.0205  2.3386
  128OSM   H15T13714   1.772   2.216   8.039  0.7087  0.2425  0.0002
  128OSM   C16S13715   1.657   2.366   8.147 -0.2539  0.1165  0.7159
  128OSM   H16S13716   1.724   2.339   8.232 -2.1876  0.1100  2.2971
  128OSM   H16T13717   1.565   2.306   8.166  0.1482 -1.7502 -2.3590
  128OSM   C17S13718   1.628   2.514   8.167  0.2989 -0.5574 -0.2016
  128OSM   H17S13719   1.539   2.527   8.101 -0.1709 -2.3181  0.0286
  128OSM   H17T13720   1.713   2.583   8.154 -0.3228  0.7308  1.9616
  128OSM   C18S13721   1.573   2.535   8.315 -0.2990 -0.3819  0.0047
  128OSM   H18S13722   1.648   2.502   8.390 -0.7441 -1.1715  0.1114
  128OSM   H18T13723   1.472   2.494   8.337 -1.0260  1.4033  0.1812
  128OSM   H18U13724   1.568   2.644   8.336 -0.4316 -0.2803 -0.5259
  128OSM    C1F13725   1.453   2.216   6.677 -0.5893 -0.1363 -0.5170
  128OSM     OF13726   1.370   2.178   6.597  0.3021 -0.2431  0.2047
  128OSM    C2F13727   1.432   2.335   6.769 -0.6699  0.1086 -0.2042
  128OSM    H2F13728   1.367   2.407   6.714 -2.0839 -1.8258 -1.1936
  128OSM    H2G13729   1.528   2.387   6.786 -0.7676  0.4093 -0.5792
  128OSM    C3F13730   1.364   2.289   6.899 -0.0867  0.7241  0.4215
  128OSM    H3F13731   1.415   2.195   6.930 -0.6574 -0.3213 -1.6200
  128OSM    H3G13732   1.255   2.272   6.887  0.3173 -2.6189  0.3215
  128OSM    C4F13733   1.386   2.396   7.012  0.0233  0.4871  0.4162
  128OSM    H4F13734   1.338   2.493   6.986  1.6260  1.3720  0.6367
  128OSM    H4G13735   1.496   2.408   7.009  0.2008 -1.1564 -1.7053
  128OSM    C5F13736   1.344   2.358   7.154 -0.3866  0.0338  0.5124
  128OSM    H5F13737   1.402   2.267   7.181 -1.0774 -1.4630 -2.6287
  128OSM    H5G13738   1.236   2.331   7.159 -0.1567 -0.6691  3.2311
  128OSM    C6F13739   1.378   2.476   7.249 -0.0363  1.0085  0.1485
  128OSM    H6F13740   1.313   2.565   7.229 -0.5080  1.0243  1.6368
  128OSM    H6G13741   1.485   2.507   7.247  0.3825 -0.2440 -3.0718
  128OSM    C7F13742   1.355   2.438   7.401 -0.7481 -0.1231 -0.6227
  128OSM    H7F13743   1.404   2.340   7.417  2.0642  1.5365  2.1101
  128OSM    H7G13744   1.250   2.410   7.424 -0.0940 -0.7496  1.9416
  128OSM    C8F13745   1.429   2.537   7.488 -0.4091  0.1834 -0.1885
  128OSM    H8F13746   1.427   2.638   7.441  1.5807  0.3752  0.0731
  128OSM    H8G13747   1.533   2.501   7.496 -0.0324  1.1332 -0.6022
  128OSM    C9F13748   1.376   2.533   7.630  0.6142  0.1685 -0.4461
  128OSM    H9F13749   1.270   2.502   7.637 -0.2211  1.7937 -3.9209
  128OSM   C10F13750   1.435   2.581   7.743 -0.1570  0.0152  0.3093
  128OSM   H10F13751   1.387   2.575   7.842  2.3086 -1.8229  1.4978
  128OSM   C11F13752   1.568   2.651   7.753  1.5274  0.0758 -0.4478
  128OSM   H11F13753   1.585   2.704   7.657 -0.8544 -0.7864 -1.4342
  128OSM   H11G13754   1.659   2.593   7.781  1.4711 -0.4781 -1.3577
  128OSM   C12F13755   1.550   2.764   7.861  0.5442  0.1586  0.5616
  128OSM   H12F13756   1.651   2.798   7.894  0.9224 -0.3848  0.0176
  128OSM   H12G13757   1.498   2.726   7.951 -2.4574  0.4376 -0.9428
  128OSM   C13F13758   1.479   2.896   7.808  0.1904  0.2276 -0.2962
  128OSM   H13F13759   1.377   2.876   7.768  0.3246  0.6569 -0.8673
  128OSM   H13G13760   1.525   2.929   7.713 -1.2807 -0.3199 -1.2207
  128OSM   C14F13761   1.467   3.022   7.901 -0.0394 -0.0877  0.4916
  128OSM   H14F13762   1.572   3.053   7.921  0.6225  0.2480 -2.9152
  128OSM   H14G13763   1.412   2.992   7.993  1.7966 -1.2819  1.2652
  128OSM   C15F13764   1.410   3.148   7.829  0.4049  0.0747 -0.5345
  128OSM   H15F13765   1.321   3.119   7.768 -1.6002  2.5087  1.0507
  128OSM   H15G13766   1.489   3.185   7.761 -0.0973 -0.3079 -1.3452
  128OSM   C16F13767   1.380   3.269   7.927 -0.7523  0.3090  0.0562
  128OSM   H16F13768   1.363   3.356   7.860 -1.3764 -0.2972 -0.6021
  128OSM   H16G13769   1.463   3.296   7.995  1.1421 -1.5231 -1.3943
  128OSM   C17F13770   1.249   3.240   8.008  0.4726 -0.2205 -0.2701
  128OSM   H17F13771   1.264   3.159   8.083  1.1108 -0.2594 -0.4320
  128OSM   H17G13772   1.169   3.209   7.937 -1.8022  1.2722  1.4874
  128OSM   C18F13773   1.205   3.366   8.081 -0.4313  1.1767 -0.0370
  128OSM   H18F13774   1.165   3.442   8.010  0.6148  0.0219 -1.9677
  128OSM   H18G13775   1.294   3.410   8.132 -0.8504  2.1353 -0.1115
  128OSM   H18H13776   1.130   3.349   8.160 -0.9331  1.9494 -0.3394
  129OSM      N13777   0.353   3.493   5.948 -0.0665 -0.5327  0.0890
  129OSM    C1513778   0.239   3.402   5.978  0.1705 -0.3040  0.0849
  129OSM   H15A13779   0.276   3.302   5.961  0.8581  0.2172 -1.7304
  129OSM   H15B13780   0.155   3.423   5.915 -0.8332 -1.1617  1.0992
  129OSM   H15C13781   0.195   3.411   6.076  0.4087  1.6910  0.0418
  129OSM    C1413782   0.294   3.625   5.955  0.4239 -0.4422  0.3490
  129OSM   H14A13783   0.374   3.696   5.967  0.7248 -0.7675  0.3086
  129OSM   H14B13784   0.240   3.648   6.046 -1.6756  2.2635 -1.4479
  129OSM   H14C13785   0.224   3.653   5.878 -1.3390  0.2006  2.1003
  129OSM    C1313786   0.470   3.499   6.048  0.1301  0.2400 -0.2527
  129OSM   H13A13787   0.550   3.442   6.003  1.3431  2.4713 -1.1144
  129OSM   H13B13788   0.457   3.462   6.148  1.1552 -0.5551 -0.4029
  129OSM   H13C13789   0.520   3.595   6.042  0.3474  0.0425 -3.6816
  129OSM    C1213790   0.388   3.473   5.803  0.0815 -0.1167  0.1775
  129OSM   H12A13791   0.435   3.562   5.765 -0.4307  0.9705  1.9321
  129OSM   H12B13792   0.294   3.461   5.751  0.9695 -1.3351 -1.2084
  129OSM    C1113793   0.465   3.346   5.767  0.4574  0.1643  0.6274
  129OSM   H11A13794   0.507   3.347   5.664  0.7459 -0.2547  0.7370
  129OSM   H11B13795   0.387   3.268   5.773 -1.3142  1.9387  1.9607
  129OSM      P13796   0.670   3.194   5.833  0.6584 -0.5270  0.6742
  129OSM    O1313797   0.645   3.134   5.695 -0.1458 -0.6473 -0.3435
  129OSM    O1413798   0.807   3.235   5.869 -0.7741  0.1689 -0.3253
  129OSM    O1113799   0.624   3.098   5.952  0.5674  0.1568  0.2450
  129OSM    O1213800   0.572   3.321   5.860 -0.2191  0.1566 -0.4171
  129OSM    C1S13801   0.637   3.122   6.090  0.3206 -0.3100  0.0212
  129OSM    H1S13802   0.709   3.205   6.111  1.2508 -1.1809  0.3696
  129OSM    H1T13803   0.696   3.037   6.131  0.8465  0.5721  1.1417
  129OSM     NF13804   0.538   3.153   6.312 -0.1231 -0.3986  0.0036
  129OSM    HNF13805   0.529   3.080   6.379 -1.5840  1.3153  1.8198
  129OSM    C2S13806   0.501   3.130   6.171 -0.3315 -0.1210 -0.0776
  129OSM    H2S13807   0.449   3.219   6.130 -1.0179 -0.9403 -1.0316
  129OSM    C3S13808   0.413   3.008   6.146 -0.0653 -0.0202  0.6731
  129OSM    H3S13809   0.469   2.916   6.175  2.4116  0.4386 -2.2100
  129OSM     O313810   0.390   2.982   6.007  0.5033 -0.1953  0.0268
  129OSM    HO313811   0.450   3.041   5.961  0.8476  0.6629  1.4809
  129OSM    C4S13812   0.274   3.014   6.207  0.5582  0.5510  0.4456
  129OSM    H4S13813   0.205   3.078   6.150  1.0429  3.5843  3.0101
  129OSM    C5S13814   0.231   2.953   6.315  0.3474 -0.3747  0.2680
  129OSM    H5S13815   0.305   2.899   6.375  1.1354  0.1669 -0.2073
  129OSM    C6S13816   0.097   2.976   6.375  0.0379 -0.5620 -0.1227
  129OSM    H6S13817   0.048   3.057   6.317  1.9137 -0.4472 -1.6207
  129OSM    H6T13818   0.099   3.021   6.476  1.0951  1.2545 -0.9174
  129OSM    C7S13819   0.000   2.858   6.361  0.8782  0.5619  0.0104
  129OSM    H7S13820   0.051   2.770   6.406  1.2457 -0.1881 -1.7761
  129OSM    H7T13821  -0.007   2.819   6.257  0.8773 -0.2198  0.2958
  129OSM    C8S13822  -0.141   2.866   6.422 -0.0742 -0.1280  0.3622
  129OSM    H8S13823  -0.196   2.772   6.400 -1.0556 -0.1847  2.7093
  129OSM    H8T13824  -0.175   2.959   6.373  2.2830  0.5240 -0.1542
  129OSM    C9S13825  -0.144   2.876   6.573  0.4417 -0.6404 -0.0075
  129OSM    H9S13826  -0.057   2.932   6.614 -0.2066 -0.5962  1.3736
  129OSM    H9T13827  -0.133   2.767   6.595  0.6817 -0.6118  0.0245
  129OSM   C10S13828  -0.274   2.937   6.623 -0.0773  0.0924  0.5239
  129OSM   H10S13829  -0.333   2.853   6.664 -1.8300  0.2157 -1.5202
  129OSM   H10T13830  -0.339   2.970   6.538 -1.5673  0.0147  1.6016
  129OSM   C11S13831  -0.262   3.040   6.734  0.4997 -0.4916  0.3377
  129OSM   H11S13832  -0.203   3.125   6.693 -0.4230 -0.4905 -1.0641
  129OSM   H11T13833  -0.216   2.997   6.825 -0.4869 -0.6236  0.7855
  129OSM   C12S13834  -0.391   3.098   6.789  0.2607 -0.1832 -0.2656
  129OSM   H12S13835  -0.454   3.131   6.703  1.0355 -0.2237 -0.8664
  129OSM   H12T13836  -0.366   3.187   6.851 -0.7619 -1.0583  1.4709
  129OSM   C13S13837  -0.462   3.001   6.882 -0.1496  0.2416  0.2296
  129OSM   H13S13838  -0.402   2.917   6.922 -0.3380  0.1723  0.3696
  129OSM   H13T13839  -0.549   2.966   6.822  0.6254 -1.6315  0.1550
  129OSM   C14S13840  -0.510   3.068   7.008 -0.1397  0.0527 -0.1782
  129OSM   H14S13841  -0.590   3.142   6.986 -1.7058 -0.6695  2.6617
  129OSM   H14T13842  -0.415   3.112   7.046  1.0276 -0.2857 -2.5294
  129OSM   C15S13843  -0.575   2.973   7.105  0.6362 -0.2319  0.1234
  129OSM   H15S13844  -0.671   2.930   7.069  0.1034  1.1511 -0.1703
  129OSM   H15T13845  -0.609   3.028   7.196 -0.3705 -0.9258  0.1828
  129OSM   C16S13846  -0.487   2.859   7.173  0.6073 -0.3884 -0.2341
  129OSM   H16S13847  -0.466   2.784   7.094  1.4657 -0.1994 -0.1948
  129OSM   H16T13848  -0.553   2.816   7.252 -1.5934  0.9234 -1.2451
  129OSM   C17S13849  -0.358   2.919   7.232  0.0038 -0.2746  0.0854
  129OSM   H17S13850  -0.384   3.022   7.265 -0.2005 -1.0472  2.5234
  129OSM   H17T13851  -0.279   2.931   7.155  0.0795 -0.1241  0.1853
  129OSM   C18S13852  -0.299   2.849   7.353  0.1478  0.3083 -0.6544
  129OSM   H18S13853  -0.219   2.911   7.399 -0.3436 -0.0776  0.7904
  129OSM   H18T13854  -0.237   2.760   7.330  0.7155  0.8115 -1.0966
  129OSM   H18U13855  -0.370   2.815   7.431  1.9368 -1.7463  0.1779
  129OSM    C1F13856   0.580   3.274   6.360 -0.0947 -0.1120  0.1194
  129OSM     OF13857   0.578   3.378   6.300  0.6721 -0.0230 -0.4017
  129OSM    C2F13858   0.640   3.265   6.502 -0.0512  0.7609 -0.0459
  129OSM    H2F13859   0.751   3.272   6.500 -0.0827  1.4442 -2.2954
  129OSM    H2G13860   0.609   3.168   6.547  2.0344 -0.4859 -1.1137
  129OSM    C3F13861   0.609   3.396   6.585 -0.5449 -0.2470  0.4957
  129OSM    H3F13862   0.503   3.425   6.572  0.0826  1.5768 -0.9541
  129OSM    H3G13863   0.666   3.481   6.542  1.8092 -2.2782 -0.6591
  129OSM    C4F13864   0.644   3.386   6.735 -0.9936  0.0556  0.7473
  129OSM    H4F13865   0.752   3.409   6.744 -0.8602 -0.2335 -0.0555
  129OSM    H4G13866   0.614   3.289   6.780 -1.7064  0.3996  1.0295
  129OSM    C5F13867   0.567   3.493   6.815 -0.8822 -0.6684  0.3457
  129OSM    H5F13868   0.458   3.472   6.810 -0.7941 -1.1953  0.5537
  129OSM    H5G13869   0.601   3.594   6.783  0.9777 -1.4545 -0.3161
  129OSM    C6F13870   0.603   3.478   6.964  0.3445  0.0688 -0.2565
  129OSM    H6F13871   0.712   3.464   6.979  0.4523 -0.1625 -1.2064
  129OSM    H6G13872   0.552   3.383   6.990  1.3134 -0.1973  0.7719
  129OSM    C7F13873   0.551   3.582   7.059  0.8970 -0.5066  0.5024
  129OSM    H7F13874   0.442   3.603   7.050  0.6086 -1.1806  2.0537
  129OSM    H7G13875   0.608   3.675   7.041 -0.9464  0.7223  0.7774
  129OSM    C8F13876   0.586   3.540   7.205  0.1151  0.4293 -0.5066
  129OSM    H8F13877   0.536   3.613   7.272  1.8261  0.9663  0.2439
  129OSM    H8G13878   0.695   3.559   7.206  0.0872  0.9637 -2.8170
  129OSM    C9F13879   0.565   3.393   7.247  1.1807 -0.0619  0.0158
  129OSM    H9F13880   0.606   3.313   7.184  1.4271  0.0869 -0.0140
  129OSM   C10F13881   0.513   3.355   7.365  1.0134 -0.4073 -0.1783
  129OSM   H10F13882   0.504   3.248   7.389 -0.0288 -0.3309 -0.1892
  129OSM   C11F13883   0.439   3.443   7.466 -0.3438  0.0234 -0.3506
  129OSM   H11F13884   0.339   3.394   7.464  0.8612 -2.6905  0.3052
  129OSM   H11G13885   0.420   3.551   7.447 -0.5579  0.1676  0.6123
  129OSM   C12F13886   0.489   3.419   7.620  0.8992  0.5765 -0.4692
  129OSM   H12F13887   0.587   3.469   7.637 -0.5655  3.3866  0.3790
  129OSM   H12G13888   0.506   3.310   7.626 -1.2998  0.2526  1.1380
  129OSM   C13F13889   0.401   3.466   7.739 -0.7289 -0.0013  0.3126
  129OSM   H13F13890   0.294   3.437   7.730 -0.7522  0.5815 -1.9561
  129OSM   H13G13891   0.408   3.576   7.745  0.0305  0.0415 -1.0207
  129OSM   C14F13892   0.450   3.403   7.868  0.4376  0.1361 -0.3689
  129OSM   H14F13893   0.558   3.421   7.885  0.9193 -2.3208 -0.4172
  129OSM   H14G13894   0.435   3.293   7.864  0.6767  0.1248 -0.9095
  129OSM   C15F13895   0.372   3.456   7.993  0.1129 -0.4728  0.6396
  129OSM   H15F13896   0.389   3.565   8.007 -2.4992 -0.2137  2.5269
  129OSM   H15G13897   0.413   3.397   8.078  1.9010 -1.0025 -0.5168
  129OSM   C16F13898   0.218   3.427   7.995  0.3534 -1.0364  0.2507
  129OSM   H16F13899   0.193   3.319   7.984 -0.3491 -0.6971 -1.8066
  129OSM   H16G13900   0.160   3.471   7.912 -0.7020 -2.1688  0.3586
  129OSM   C17F13901   0.147   3.450   8.132  0.6967 -0.3360  0.4216
  129OSM   H17F13902   0.192   3.381   8.207 -2.0461 -2.1785  0.5318
  129OSM   H17G13903   0.043   3.419   8.108  0.9901 -1.5802  0.6891
  129OSM   C18F13904   0.164   3.586   8.182 -0.0046 -0.4804  0.2590
  129OSM   H18F13905   0.129   3.651   8.099  0.2115  0.3717  0.8257
  129OSM   H18G13906   0.264   3.620   8.217 -0.8210  1.5806  0.7433
  129OSM   H18H13907   0.107   3.607   8.275  1.4942 -1.4211  1.4465
  130OSM      N13908   0.798   5.659   5.771  0.2119 -0.2162  0.4372
  130OSM    C1513909   0.937   5.669   5.832  0.5457 -0.0160  0.2333
  130OSM   H15A13910   0.927   5.734   5.917  0.8790 -0.4003  0.5737
  130OSM   H15B13911   1.019   5.711   5.776  1.4467 -0.8949  0.8488
  130OSM   H15C13912   0.955   5.567   5.865 -1.7900 -0.5751 -0.0260
  130OSM    C1413913   0.777   5.796   5.713 -0.7327  0.0944  0.2712
  130OSM   H14A13914   0.793   5.875   5.785  0.7336  0.3209 -0.2611
  130OSM   H14B13915   0.674   5.804   5.681 -0.8078 -1.2058  0.1396
  130OSM   H14C13916   0.834   5.819   5.625 -0.6215  2.6975  0.9531
  130OSM    C1313917   0.806   5.564   5.652 -0.2618  0.4159 -0.1022
  130OSM   H13A13918   0.807   5.461   5.686 -1.5324  0.4212  0.0180
  130OSM   H13B13919   0.891   5.590   5.591  0.2326 -0.8631  0.0101
  130OSM   H13C13920   0.717   5.560   5.591  0.0142 -2.3019 -0.4815
  130OSM    C1213921   0.695   5.620   5.869 -0.1865  0.4292  0.2263
  130OSM   H12A13922   0.698   5.512   5.865  0.6973  0.4298  0.7194
  130OSM   H12B13923   0.596   5.647   5.834 -0.4502  1.1463  1.4605
  130OSM    C1113924   0.719   5.664   6.014  0.2133 -0.5864 -0.1464
  130OSM   H11A13925   0.799   5.612   6.070 -1.0028 -0.7245  1.5594
  130OSM   H11B13926   0.631   5.636   6.076  0.0898  1.5412  0.7249
  130OSM      P13927   0.624   5.917   6.018 -0.3250  0.4267 -0.1847
  130OSM    O1313928   0.697   6.043   5.996  0.3986 -0.2507  0.2585
  130OSM    O1413929   0.510   5.880   5.921  0.2478 -0.3522 -0.6382
  130OSM    O1113930   0.566   5.917   6.168  0.4465  0.0707  0.0651
  130OSM    O1213931   0.736   5.806   6.025 -0.2416 -0.4435  0.0611
  130OSM    C1S13932   0.651   5.939   6.279 -0.5170  0.2216 -0.0440
  130OSM    H1S13933   0.715   6.027   6.260 -2.2908  1.8103  1.0056
  130OSM    H1T13934   0.723   5.856   6.297 -1.8059 -1.0089 -0.3659
  130OSM     NF13935   0.656   6.031   6.508  0.5260 -1.2220  0.5074
  130OSM    HNF13936   0.711   5.967   6.561  0.1555 -1.7578  0.2576
  130OSM    C2S13937   0.580   5.965   6.410  0.3429  0.6036 -0.0502
  130OSM    H2S13938   0.494   6.028   6.377 -1.3356 -1.9721 -0.8956
  130OSM    C3S13939   0.514   5.840   6.471 -0.0461  0.5978  0.1769
  130OSM    H3S13940   0.593   5.780   6.519 -0.9032 -1.5381 -0.9542
  130OSM     O313941   0.481   5.741   6.377  0.1336  0.4882 -1.2199
  130OSM    HO313942   0.516   5.783   6.298  3.4868 -2.0073 -1.2934
  130OSM    C4S13943   0.406   5.874   6.562 -0.0191 -0.2479  0.3593
  130OSM    H4S13944   0.344   5.960   6.531 -1.4283 -0.6194  1.9865
  130OSM    C5S13945   0.396   5.824   6.688 -0.2912  0.0676 -0.1082
  130OSM    H5S13946   0.466   5.744   6.719  2.1148  2.5112  1.1967
  130OSM    C6S13947   0.294   5.857   6.792  0.8968 -0.7186 -0.0226
  130OSM    H6S13948   0.222   5.777   6.820 -0.9200  1.0723  0.7406
  130OSM    H6T13949   0.231   5.941   6.754  2.4592  0.3086 -0.4214
  130OSM    C7S13950   0.363   5.874   6.926  0.3169  0.9460  0.2945
  130OSM    H7S13951   0.439   5.955   6.919  0.3379  0.8007 -1.5573
  130OSM    H7T13952   0.417   5.781   6.954  1.6840  1.4897 -0.4209
  130OSM    C8S13953   0.262   5.930   7.037 -0.2349  0.2331 -0.4158
  130OSM    H8S13954   0.185   5.851   7.045  0.2196 -0.1524  0.3064
  130OSM    H8T13955   0.220   6.031   7.023 -0.6706  0.3463  1.5092
  130OSM    C9S13956   0.333   5.925   7.170 -0.7691  0.3517  0.0281
  130OSM    H9S13957   0.421   5.993   7.177  0.7691 -1.2779 -1.9872
  130OSM    H9T13958   0.371   5.823   7.193  1.2288  1.2654  1.0711
  130OSM   C10S13959   0.249   5.961   7.295 -0.8319 -0.5342 -0.0426
  130OSM   H10S13960   0.176   5.880   7.318 -1.0294 -0.5894 -0.8313
  130OSM   H10T13961   0.188   6.051   7.274  3.2544  2.3068 -1.0292
  130OSM   C11S13962   0.344   5.978   7.410  0.0878 -0.5654 -0.4982
  130OSM   H11S13963   0.398   6.073   7.390  0.6645 -1.3266 -2.8376
  130OSM   H11T13964   0.419   5.897   7.424  0.4478 -0.0226  0.9268
  130OSM   C12S13965   0.261   6.006   7.538 -0.3323 -0.3307  0.8352
  130OSM   H12S13966   0.225   5.910   7.580 -1.2420 -0.9278 -1.1888
  130OSM   H12T13967   0.175   6.065   7.502  0.1391 -0.6536 -0.9029
  130OSM   C13S13968   0.340   6.073   7.656 -0.0308 -0.5763 -0.0398
  130OSM   H13S13969   0.271   6.101   7.739  0.4361  0.8403 -0.0918
  130OSM   H13T13970   0.380   6.172   7.624  0.4056 -0.3731  1.0715
  130OSM   C14S13971   0.475   6.003   7.696 -0.1087 -0.1702  0.0786
  130OSM   H14S13972   0.538   6.081   7.743 -0.1194  0.0276 -0.2321
  130OSM   H14T13973   0.528   5.966   7.605 -1.5317 -0.8101 -0.5180
  130OSM   C15S13974   0.453   5.880   7.790  0.5243  0.4390 -0.6772
  130OSM   H15S13975   0.550   5.839   7.824  0.0008  0.9706  1.6106
  130OSM   H15T13976   0.404   5.804   7.726  1.7110 -0.2799 -0.7564
  130OSM   C16S13977   0.382   5.922   7.919  0.2580 -0.4524  0.2036
  130OSM   H16S13978   0.370   5.830   7.981 -2.0213  0.9827  2.0205
  130OSM   H16T13979   0.285   5.965   7.887  0.6500  1.2841  1.2206
  130OSM   C17S13980   0.460   6.033   8.002  1.0367  0.1146 -0.0403
  130OSM   H17S13981   0.461   6.130   7.949 -0.1019 -0.0458 -0.3867
  130OSM   H17T13982   0.568   6.007   7.997  0.7927 -1.7218  2.1034
  130OSM   C18S13983   0.429   6.045   8.150 -0.4504 -0.2670  1.1610
  130OSM   H18S13984   0.451   5.952   8.208 -2.6860 -0.5957  1.5725
  130OSM   H18T13985   0.322   6.074   8.153 -0.3540  0.2320  0.0763
  130OSM   H18U13986   0.492   6.124   8.197  0.0799  0.6975 -1.0672
  130OSM    C1F13987   0.709   6.156   6.482  0.7185  0.8716  0.3928
  130OSM     OF13988   0.640   6.236   6.414 -0.5892  0.1993 -0.4776
  130OSM    C2F13989   0.839   6.186   6.543 -0.1230 -0.1487 -0.2162
  130OSM    H2F13990   0.899   6.094   6.528 -0.9427 -0.7271  0.0042
  130OSM    H2G13991   0.822   6.196   6.652 -1.1794 -0.8272 -0.3084
  130OSM    C3F13992   0.902   6.305   6.475 -0.0560 -0.0755  0.4686
  130OSM    H3F13993   0.826   6.385   6.471 -0.2029 -0.2238 -3.7853
  130OSM    H3G13994   0.920   6.293   6.366 -1.7649  0.8542  0.0497
  130OSM    C4F13995   1.035   6.365   6.546  0.1472 -0.2750 -0.5411
  130OSM    H4F13996   1.031   6.468   6.505 -1.5715 -0.4433 -0.8800
  130OSM    H4G13997   1.126   6.304   6.528 -0.2279 -0.4239 -2.0725
  130OSM    C5F13998   1.019   6.380   6.703 -0.6017 -0.3260  0.6172
  130OSM    H5F13999   1.055   6.281   6.741  2.1149  0.0056 -0.8853
  130OSM    H5G14000   0.911   6.400   6.721 -0.5314  2.0374 -1.2190
  130OSM    C6F14001   1.099   6.499   6.751 -0.5357  0.1019  0.2898
  130OSM    H6F14002   1.119   6.489   6.860  0.5201 -0.8047  0.0434
  130OSM    H6G14003   1.046   6.592   6.723  0.9080  0.4308 -1.5462
  130OSM    C7F14004   1.247   6.510   6.694 -0.4806  0.2782 -0.0518
  130OSM    H7F14005   1.253   6.525   6.584  2.1785 -2.1542 -0.3276
  130OSM    H7G14006   1.288   6.408   6.706 -1.7391 -0.7037 -3.0099
  130OSM    C8F14007   1.347   6.596   6.776 -0.4836  0.3554 -0.6433
  130OSM    H8F14008   1.451   6.579   6.740 -0.1158  0.3979  0.3621
  130OSM    H8G14009   1.353   6.539   6.871 -0.5518  0.8071 -0.3656
  130OSM    C9F14010   1.320   6.741   6.771 -0.3126 -0.4474 -0.2903
  130OSM    H9F14011   1.342   6.786   6.673 -2.0928 -1.3700 -1.1485
  130OSM   C10F14012   1.270   6.820   6.870 -0.7956  0.3672 -0.2206
  130OSM   H10F14013   1.245   6.922   6.839 -1.3175  0.1587 -0.5085
  130OSM   C11F14014   1.248   6.782   7.017  0.3232 -0.8796 -0.2983
  130OSM   H11F14015   1.328   6.822   7.082  0.1725 -0.7453 -0.1946
  130OSM   H11G14016   1.245   6.672   7.028  0.5882 -1.0637 -1.8622
  130OSM   C12F14017   1.116   6.836   7.064 -0.0335  0.4269 -0.3974
  130OSM   H12F14018   1.037   6.785   7.004  1.4972 -0.8945 -1.3746
  130OSM   H12G14019   1.106   6.946   7.050 -0.8808  0.4758  0.4160
  130OSM   C13F14020   1.090   6.799   7.213  0.3173  0.3651  0.1170
  130OSM   H13F14021   1.117   6.694   7.239  2.0613  0.7186 -0.1354
  130OSM   H13G14022   0.982   6.819   7.226 -0.0857 -1.9790  0.9096
  130OSM   C14F14023   1.158   6.896   7.313 -0.6817 -0.4087 -0.4477
  130OSM   H14F14024   1.127   7.002   7.297  0.0581  0.0081  0.7419
  130OSM   H14G14025   1.268   6.892   7.296 -0.7985  1.0473 -1.7380
  130OSM   C15F14026   1.116   6.873   7.466  0.0113  0.0845  0.3052
  130OSM   H15F14027   1.115   6.764   7.484 -1.3421  0.0840  0.3690
  130OSM   H15G14028   1.010   6.903   7.483  0.2701  2.1358 -1.3169
  130OSM   C16F14029   1.201   6.946   7.571  0.2972  0.0204 -0.2908
  130OSM   H16F14030   1.212   7.055   7.549 -1.0105  0.0943 -0.6843
  130OSM   H16G14031   1.304   6.905   7.576  0.1435 -0.3076  0.3552
  130OSM   C17F14032   1.148   6.922   7.709  0.6806  0.0811  0.1420
  130OSM   H17F14033   1.153   6.815   7.736  1.3691 -0.1681 -0.9037
  130OSM   H17G14034   1.045   6.963   7.702  1.2360  1.3722 -0.9815
  130OSM   C18F14035   1.227   6.995   7.819 -0.4929 -0.1137  0.3926
  130OSM   H18F14036   1.323   6.941   7.829 -0.0655  0.0674 -2.0069
  130OSM   H18G14037   1.168   7.001   7.913  1.8233  0.7677  1.8760
  130OSM   H18H14038   1.254   7.098   7.788 -1.1804  0.1492  0.6371
  131OSM      N14039   3.622   1.098   6.166 -0.7935 -0.3146  0.0352
  131OSM    C1514040   3.503   1.187   6.180  0.2558  0.1463  0.6810
  131OSM   H15A14041   3.438   1.177   6.095 -0.0624 -0.9085  1.0348
  131OSM   H15B14042   3.522   1.293   6.189  0.4531  0.2334 -0.6705
  131OSM   H15C14043   3.448   1.162   6.270  2.4243  0.4660  2.1836
  131OSM    C1414044   3.683   1.143   6.041  0.3218 -0.9066 -0.7154
  131OSM   H14A14045   3.626   1.109   5.956 -2.6324  1.1970  0.2577
  131OSM   H14B14046   3.778   1.092   6.035  0.6424 -0.5161  0.7140
  131OSM   H14C14047   3.698   1.250   6.036  0.9244 -1.0270 -2.4663
  131OSM    C1314048   3.715   1.133   6.277  0.4159 -0.1743 -0.4773
  131OSM   H13A14049   3.804   1.072   6.280  0.6437  0.1802  0.5615
  131OSM   H13B14050   3.668   1.138   6.374 -1.2921  1.9104 -1.3368
  131OSM   H13C14051   3.745   1.236   6.269  1.0316 -0.4379 -1.9050
  131OSM    C1214052   3.591   0.952   6.176 -0.2072  0.5808  0.2596
  131OSM   H12A14053   3.675   0.886   6.168 -0.6929  0.0965 -1.1227
  131OSM   H12B14054   3.534   0.933   6.086  1.0970 -0.8880 -0.2941
  131OSM    C1114055   3.506   0.908   6.298 -0.0822 -0.3587 -0.3426
  131OSM   H11A14056   3.566   0.918   6.392  0.9010 -1.7498 -0.7855
  131OSM   H11B14057   3.492   0.798   6.291 -2.5232 -0.2158  1.1796
  131OSM      P14058   3.267   0.929   6.202 -0.0759 -0.0566 -0.0768
  131OSM    O1314059   3.168   1.037   6.223  0.4462 -0.1191 -0.0132
  131OSM    O1414060   3.325   0.910   6.069 -0.7319 -0.2346 -0.1240
  131OSM    O1114061   3.198   0.799   6.256 -0.0210  0.5227 -0.3685
  131OSM    O1214062   3.378   0.969   6.308  0.0326  0.2634 -0.2122
  131OSM    C1S14063   3.188   0.767   6.392 -0.4374  0.1736 -0.4909
  131OSM    H1S14064   3.257   0.806   6.470  0.4650 -1.1054 -0.6033
  131OSM    H1T14065   3.201   0.657   6.391 -1.0610  0.0531  1.4265
  131OSM     NF14066   3.041   0.716   6.589 -0.0814 -0.7912 -0.0197
  131OSM    HNF14067   3.030   0.617   6.593 -0.5110 -0.7066  1.7013
  131OSM    C2S14068   3.047   0.769   6.449 -0.0573  0.2574 -0.1722
  131OSM    H2S14069   3.021   0.876   6.467 -0.4249 -0.0236  1.0099
  131OSM    C3S14070   2.929   0.713   6.358 -0.4532 -0.6617 -0.2037
  131OSM    H3S14071   2.958   0.606   6.348  0.8804 -0.2631 -1.0030
  131OSM     O314072   2.926   0.758   6.222 -0.4721  0.1329 -0.2262
  131OSM    HO314073   3.011   0.800   6.210 -1.3335  1.5258 -1.8899
  131OSM    C4S14074   2.796   0.735   6.420  0.0571 -0.5435 -0.2781
  131OSM    H4S14075   2.776   0.843   6.422  1.8737 -0.1129 -1.9784
  131OSM    C5S14076   2.717   0.640   6.462 -0.2718  0.6711  0.5629
  131OSM    H5S14077   2.743   0.535   6.445 -0.2888  0.6150  0.8695
  131OSM    C6S14078   2.584   0.661   6.528 -0.2453  0.1853 -0.2066
  131OSM    H6S14079   2.523   0.569   6.541 -0.0343  0.3216  2.2595
  131OSM    H6T14080   2.520   0.730   6.469 -2.8086 -1.8577  0.0030
  131OSM    C7S14081   2.594   0.733   6.665 -0.1671 -0.5624 -0.7007
  131OSM    H7S14082   2.495   0.735   6.715 -0.6352  3.2215 -1.4269
  131OSM    H7T14083   2.618   0.841   6.655  0.8905 -0.7497 -0.2914
  131OSM    C8S14084   2.682   0.663   6.769 -0.1935 -0.2126  0.6593
  131OSM    H8S14085   2.788   0.688   6.748 -0.7770  2.4161  0.5513
  131OSM    H8T14086   2.666   0.553   6.769  1.0647 -0.4036  1.0135
  131OSM    C9S14087   2.682   0.734   6.899  0.3336  0.1383 -0.4460
  131OSM    H9S14088   2.717   0.840   6.890  0.3088  0.1076 -0.8902
  131OSM    H9T14089   2.760   0.689   6.965  1.1212 -0.0317 -1.4766
  131OSM   C10S14090   2.546   0.738   6.975 -0.2144  0.1438  0.0904
  131OSM   H10S14091   2.468   0.765   6.901  0.8229  1.5075 -0.5502
  131OSM   H10T14092   2.556   0.815   7.055 -1.2780 -2.1283  2.5612
  131OSM   C11S14093   2.507   0.600   7.038  0.5262 -0.1281  0.4352
  131OSM   H11S14094   2.574   0.527   6.988 -0.4721 -0.5720 -0.2845
  131OSM   H11T14095   2.405   0.564   7.011 -0.0085  0.5606  1.4440
  131OSM   C12S14096   2.534   0.590   7.185 -0.8716 -0.4238  0.1361
  131OSM   H12S14097   2.644   0.604   7.191 -0.8062  0.0756 -1.6046
  131OSM   H12T14098   2.522   0.486   7.223  1.2883  0.8260  4.9674
  131OSM   C13S14099   2.450   0.685   7.271 -0.1759 -0.5974  0.0793
  131OSM   H13S14100   2.341   0.663   7.265 -0.4101  0.5354 -0.0112
  131OSM   H13T14101   2.464   0.792   7.245 -1.8068 -0.8902 -2.3432
  131OSM   C14S14102   2.496   0.675   7.418 -0.0449 -0.1755 -0.2116
  131OSM   H14S14103   2.472   0.769   7.471 -0.0611  1.1424 -2.4297
  131OSM   H14T14104   2.607   0.675   7.419 -0.0266  0.3292 -1.2767
  131OSM   C15S14105   2.425   0.557   7.487  0.3680  0.0912  0.6291
  131OSM   H15S14106   2.428   0.467   7.421 -2.8584 -1.0241  1.7892
  131OSM   H15T14107   2.320   0.579   7.513  0.1811 -0.7695  0.6295
  131OSM   C16S14108   2.505   0.510   7.606  0.1746  0.2037 -1.3407
  131OSM   H16S14109   2.526   0.590   7.681 -2.6849  1.0382 -1.3137
  131OSM   H16T14110   2.604   0.472   7.573  0.4414  0.1621 -0.5043
  131OSM   C17S14111   2.435   0.390   7.685  0.2789  0.3244 -0.6374
  131OSM   H17S14112   2.507   0.342   7.754  1.0449  1.8713 -0.3179
  131OSM   H17T14113   2.415   0.311   7.610 -0.6223 -0.2087  0.1296
  131OSM   C18S14114   2.302   0.420   7.761 -0.2765 -0.0099  0.0531
  131OSM   H18S14115   2.264   0.331   7.815 -0.9903 -0.1149 -0.6035
  131OSM   H18T14116   2.221   0.453   7.693  1.2894  1.1478 -1.3536
  131OSM   H18U14117   2.315   0.504   7.832 -2.5346 -0.9879  1.7039
  131OSM    C1F14118   3.093   0.772   6.697 -0.7551 -0.5408 -0.2532
  131OSM     OF14119   3.132   0.887   6.697 -0.2011  0.1764 -0.6005
  131OSM    C2F14120   3.098   0.689   6.826 -0.0348 -0.3597 -0.2014
  131OSM    H2F14121   3.202   0.657   6.846  1.5392  2.6109 -2.7306
  131OSM    H2G14122   3.038   0.598   6.809  1.7940 -1.5465 -0.5769
  131OSM    C3F14123   3.043   0.760   6.951 -0.0356 -0.5743 -0.7602
  131OSM    H3F14124   2.948   0.817   6.948  1.3374  1.8781 -0.1838
  131OSM    H3G14125   3.113   0.845   6.969 -1.7856  0.3879  1.9878
  131OSM    C4F14126   3.040   0.669   7.075 -0.1996 -0.8736  0.0365
  131OSM    H4F14127   3.137   0.620   7.095  1.1895  2.4793  2.6104
  131OSM    H4G14128   2.960   0.595   7.052  0.3556 -1.5111  0.1627
  131OSM    C5F14129   2.988   0.742   7.203  0.2134 -0.1187 -0.4848
  131OSM    H5F14130   2.894   0.798   7.187 -2.6329 -3.9494  1.3465
  131OSM    H5G14131   3.076   0.803   7.234  0.6084 -0.4323 -0.9728
  131OSM    C6F14132   2.954   0.651   7.323 -0.6437  0.5808 -0.0257
  131OSM    H6F14133   3.042   0.585   7.340 -0.9306 -0.0538 -0.9653
  131OSM    H6G14134   2.865   0.587   7.308 -0.8436  0.8785 -0.1104
  131OSM    C7F14135   2.946   0.732   7.450 -0.1123  0.6285 -0.0867
  131OSM    H7F14136   2.875   0.816   7.433 -1.0761 -0.1680 -0.0804
  131OSM    H7G14137   3.043   0.778   7.481 -0.7379  0.9405  1.5396
  131OSM    C8F14138   2.892   0.645   7.564 -0.3659  0.1542  0.1364
  131OSM    H8F14139   2.943   0.546   7.564  1.3022  0.9681  1.1950
  131OSM    H8G14140   2.787   0.622   7.539  0.5778 -1.5944 -2.6786
  131OSM    C9F14141   2.912   0.702   7.704  0.2830  0.4252  0.4734
  131OSM    H9F14142   2.874   0.804   7.722 -3.6401 -0.5635 -1.1414
  131OSM   C10F14143   2.945   0.632   7.815  0.0013  0.0183  0.5293
  131OSM   H10F14144   2.960   0.679   7.913  0.6109 -0.2456  0.5685
  131OSM   C11F14145   2.992   0.490   7.818  0.0540 -0.0784  0.6360
  131OSM   H11F14146   3.080   0.488   7.885  1.3315 -0.0630 -0.9885
  131OSM   H11G14147   3.030   0.453   7.721  0.1831  3.1679 -0.6519
  131OSM   C12F14148   2.874   0.402   7.872  0.7168 -0.5191  0.4933
  131OSM   H12F14149   2.792   0.402   7.797  0.6041 -2.1577  0.5732
  131OSM   H12G14150   2.831   0.450   7.963  0.0453 -0.8312  0.3434
  131OSM   C13F14151   2.896   0.254   7.895  1.0201 -0.6153  0.0005
  131OSM   H13F14152   2.975   0.240   7.972  0.7315  1.8412  0.8534
  131OSM   H13G14153   2.920   0.211   7.796 -3.8367  1.2662 -2.3284
  131OSM   C14F14154   2.772   0.181   7.945  0.5268 -0.2279  0.3289
  131OSM   H14F14155   2.794   0.072   7.942  0.1032 -0.2913 -0.8421
  131OSM   H14G14156   2.693   0.191   7.867  0.0621 -0.8834  0.6990
  131OSM   C15F14157   2.707   0.227   8.072 -0.3168  0.0175  0.4167
  131OSM   H15F14158   2.697   0.338   8.075  1.3601  0.1691  1.5503
  131OSM   H15G14159   2.771   0.199   8.158  1.1745  0.0931 -0.6406
  131OSM   C16F14160   2.570   0.167   8.093 -0.4253  0.1985  0.2352
  131OSM   H16F14161   2.578   0.108   8.187 -1.5973 -0.2534  0.0634
  131OSM   H16G14162   2.537   0.108   8.005 -0.0067 -0.8261  0.7468
  131OSM   C17F14163   2.465   0.282   8.111 -0.0966  0.2671 -0.0707
  131OSM   H17F14164   2.449   0.330   8.012 -0.2782  0.4586  0.0522
  131OSM   H17G14165   2.516   0.361   8.170  0.3529  0.2764 -0.4651
  131OSM   C18F14166   2.331   0.239   8.173  0.4870 -0.5397 -0.2330
  131OSM   H18F14167   2.341   0.199   8.277 -2.0578 -0.0822  0.2445
  131OSM   H18G14168   2.282   0.163   8.109 -1.2351 -0.5440  1.0199
  131OSM   H18H14169   2.264   0.327   8.182 -1.3436 -1.6425 -2.1564
  132OSM      N14170   2.269   2.018   5.871 -0.7392  0.7291 -0.0085
  132OSM    C1514171   2.288   1.878   5.823 -0.8549  0.1664 -0.7523
  132OSM   H15A14172   2.194   1.825   5.832 -0.6544  0.0794  1.3119
  132OSM   H15B14173   2.369   1.836   5.880 -1.0369  1.3321  0.4150
  132OSM   H15C14174   2.316   1.869   5.719  0.0159 -0.6180 -0.4649
  132OSM    C1414175   2.389   2.102   5.849  0.4784  0.0532 -0.1674
  132OSM   H14A14176   2.423   2.097   5.746  2.6965 -0.7425  0.5475
  132OSM   H14B14177   2.472   2.060   5.902  0.2429 -1.8641 -1.2314
  132OSM   H14C14178   2.367   2.206   5.871 -1.0968 -0.0354 -1.1022
  132OSM    C1314179   2.165   2.085   5.787  0.2694 -0.6670 -0.4586
  132OSM   H13A14180   2.076   2.030   5.813  0.8897 -1.3897  0.1667
  132OSM   H13B14181   2.177   2.077   5.680  1.2201 -1.2054 -0.3164
  132OSM   H13C14182   2.147   2.188   5.815  0.8131 -0.8371  0.5955
  132OSM    C1214183   2.225   2.013   6.017 -0.7212  0.3801 -0.1388
  132OSM   H12A14184   2.200   2.114   6.045  0.5979  0.8697 -0.6456
  132OSM   H12B14185   2.309   1.999   6.083 -0.5109 -0.3268 -0.5502
  132OSM    C1114186   2.101   1.926   6.053 -0.4382 -0.4790  0.1911
  132OSM   H11A14187   2.018   1.941   5.980 -1.9704 -3.3577  1.1659
  132OSM   H11B14188   2.068   1.952   6.156 -0.3843  0.6392 -0.0609
  132OSM      P14189   2.251   1.741   6.166  0.2528  0.3138  0.0299
  132OSM    O1314190   2.246   1.595   6.200  1.1506  0.2604  0.0162
  132OSM    O1414191   2.385   1.785   6.124  0.6138  0.4508  0.5352
  132OSM    O1114192   2.215   1.826   6.298  0.0102  0.1220  0.1703
  132OSM    O1214193   2.142   1.787   6.056  0.6827 -0.1414 -0.3536
  132OSM    C1S14194   2.143   1.772   6.408 -0.8550 -0.1719  0.9232
  132OSM    H1S14195   2.182   1.671   6.435 -0.3481 -0.5953 -1.1663
  132OSM    H1T14196   2.034   1.758   6.391 -0.5965 -0.9968 -0.1818
  132OSM     NF14197   2.073   1.810   6.640 -0.5065 -0.3352  0.5375
  132OSM    HNF14198   1.974   1.824   6.634 -0.6357 -1.3603  0.1820
  132OSM    C2S14199   2.149   1.868   6.532  0.4284 -0.9552 -0.8062
  132OSM    H2S14200   2.255   1.861   6.563  0.3468 -1.2356 -0.5932
  132OSM    C3S14201   2.121   2.015   6.494 -0.4424 -0.1394 -0.6964
  132OSM    H3S14202   2.018   2.029   6.455 -0.6959  1.4671  0.4435
  132OSM     O314203   2.205   2.077   6.397 -0.2125  0.3858  0.2321
  132OSM    HO314204   2.235   2.007   6.338 -2.7887 -0.1791 -0.5436
  132OSM    C4S14205   2.130   2.097   6.625  0.1604  0.2349  0.5644
  132OSM    H4S14206   2.030   2.122   6.663  0.1123 -0.6489  1.0341
  132OSM    C5S14207   2.241   2.128   6.701  0.7631  0.6006  0.4251
  132OSM    H5S14208   2.345   2.102   6.678  1.4322  2.1488  1.5392
  132OSM    C6S14209   2.235   2.203   6.833  0.3793 -0.6530 -0.2193
  132OSM    H6S14210   2.128   2.216   6.859  0.6042  4.3949 -0.7481
  132OSM    H6T14211   2.286   2.302   6.830 -0.7367 -0.0417  0.4697
  132OSM    C7S14212   2.304   2.130   6.951  0.5868 -0.1442 -0.5815
  132OSM    H7S14213   2.226   2.061   6.988 -0.3117  0.6843 -0.9055
  132OSM    H7T14214   2.321   2.195   7.040 -0.6514 -0.7062  0.0766
  132OSM    C8S14215   2.431   2.051   6.923  0.5434  0.0952 -0.8156
  132OSM    H8S14216   2.500   2.098   6.850 -0.8835  0.1542 -2.1671
  132OSM    H8T14217   2.399   1.955   6.876  3.2290  0.1535 -3.0583
  132OSM    C9S14218   2.517   2.010   7.049 -0.1423  0.1081 -1.3657
  132OSM    H9S14219   2.585   1.929   7.017 -0.7062 -1.3222  0.9027
  132OSM    H9T14220   2.452   1.959   7.123  2.3551  0.8024  1.5034
  132OSM   C10S14221   2.599   2.128   7.116  0.5729 -0.5740 -0.3339
  132OSM   H10S14222   2.521   2.202   7.146 -0.0631 -1.3075 -0.1493
  132OSM   H10T14223   2.656   2.178   7.035 -1.1500  2.7921  0.3195
  132OSM   C11S14224   2.690   2.097   7.233 -0.9529  0.4673  0.4627
  132OSM   H11S14225   2.742   2.193   7.257 -1.9999  0.8393  1.2855
  132OSM   H11T14226   2.764   2.017   7.212  0.6992  1.3041  2.6467
  132OSM   C12S14227   2.611   2.050   7.350 -0.0225 -0.3504  0.0889
  132OSM   H12S14228   2.584   1.943   7.341  1.1838 -0.7296  0.7693
  132OSM   H12T14229   2.521   2.116   7.352  2.1642  2.8628  0.4195
  132OSM   C13S14230   2.687   2.079   7.484 -0.2869  0.2620 -0.2541
  132OSM   H13S14231   2.700   2.189   7.494  1.3597  0.1111 -0.4933
  132OSM   H13T14232   2.787   2.035   7.466 -0.1145  0.1101  0.9895
  132OSM   C14S14233   2.637   2.025   7.619 -0.4619 -0.0847 -0.5233
  132OSM   H14S14234   2.616   1.916   7.619  1.0598 -0.5604  3.7137
  132OSM   H14T14235   2.536   2.063   7.645 -1.0573 -0.5770 -1.9995
  132OSM   C15S14236   2.736   2.048   7.733  0.4574  0.2521 -0.0312
  132OSM   H15S14237   2.738   2.158   7.750 -0.1529  0.0865  1.3303
  132OSM   H15T14238   2.830   2.002   7.698  1.2262  1.7570 -0.0086
  132OSM   C16S14239   2.688   1.984   7.867 -0.2442 -0.2027  0.8806
  132OSM   H16S14240   2.717   1.877   7.870  1.4134  0.1948  0.4752
  132OSM   H16T14241   2.578   1.994   7.867 -0.2177  0.9824 -2.0180
  132OSM   C17S14242   2.740   2.055   7.993 -0.8595 -0.1307 -0.7018
  132OSM   H17S14243   2.729   2.165   7.989 -1.3434 -0.1834 -0.8534
  132OSM   H17T14244   2.851   2.048   7.986 -0.4117  1.8210  2.3964
  132OSM   C18S14245   2.673   1.998   8.121  0.0979 -0.4722 -0.4858
  132OSM   H18S14246   2.564   2.016   8.103 -0.1528 -0.6818  0.7051
  132OSM   H18T14247   2.687   2.050   8.218  0.4312 -2.1106  0.3624
  132OSM   H18U14248   2.687   1.888   8.128  3.7427 -0.1866 -1.3282
  132OSM    C1F14249   2.118   1.698   6.698  0.2557  0.3226  0.3883
  132OSM     OF14250   2.236   1.657   6.677 -0.1450 -0.7347 -0.1378
  132OSM    C2F14251   2.012   1.632   6.782  0.5022  0.0528 -0.4667
  132OSM    H2F14252   1.969   1.540   6.737 -0.2108  0.0804  0.1504
  132OSM    H2G14253   1.929   1.706   6.791 -0.8669 -1.4160 -0.4829
  132OSM    C3F14254   2.046   1.587   6.922 -0.3729 -0.6652 -0.5627
  132OSM    H3F14255   2.119   1.503   6.929 -0.4875 -0.7118  0.1974
  132OSM    H3G14256   1.949   1.561   6.968  0.6889 -2.8981  0.6192
  132OSM    C4F14257   2.101   1.697   7.012 -0.1862  0.8816 -0.5057
  132OSM    H4F14258   2.033   1.782   6.989  0.9183  2.1256  0.6167
  132OSM    H4G14259   2.202   1.720   6.971 -0.0089 -3.1706 -2.7811
  132OSM    C5F14260   2.105   1.668   7.160 -0.8211 -0.1741 -0.2258
  132OSM    H5F14261   2.180   1.590   7.184 -0.7854 -1.1575 -3.1457
  132OSM    H5G14262   2.007   1.629   7.196 -0.9561  1.3232  1.1471
  132OSM    C6F14263   2.148   1.796   7.241 -0.4585 -0.3955 -0.4473
  132OSM    H6F14264   2.065   1.870   7.242 -0.4921 -0.4273  1.1768
  132OSM    H6G14265   2.240   1.847   7.208  0.8106 -2.0682  0.3708
  132OSM    C7F14266   2.175   1.776   7.393 -0.2566 -0.3805  0.0167
  132OSM    H7F14267   2.214   1.872   7.433 -0.2576 -0.7973  1.0581
  132OSM    H7G14268   2.249   1.693   7.404  0.4309  0.5104  2.7820
  132OSM    C8F14269   2.043   1.730   7.457 -0.3083  0.0856 -0.5542
  132OSM    H8F14270   2.028   1.622   7.436 -0.1772  0.0694 -0.5676
  132OSM    H8G14271   1.952   1.782   7.421 -1.2143  0.7977  2.4759
  132OSM    C9F14272   2.050   1.734   7.609 -0.8119 -0.5203  0.5316
  132OSM    H9F14273   2.095   1.647   7.659 -0.2443 -0.5404 -0.0069
  132OSM   C10F14274   2.012   1.833   7.686  0.2269 -0.3573  0.5316
  132OSM   H10F14275   2.024   1.820   7.795 -0.9816  1.4853  0.9268
  132OSM   C11F14276   1.966   1.966   7.642 -0.2422  0.1592  0.3723
  132OSM   H11F14277   1.860   1.995   7.654  0.3321  2.6114  0.0997
  132OSM   H11G14278   1.986   1.985   7.534 -1.1011  1.1611  0.3756
  132OSM   C12F14279   2.048   2.072   7.727 -0.1820  0.4888  0.0687
  132OSM   H12F14280   2.036   2.170   7.678  2.1526  2.1532  2.5586
  132OSM   H12G14281   2.157   2.055   7.724 -0.3881 -1.0390  0.3075
  132OSM   C13F14282   1.992   2.078   7.868  0.2682  0.0503  0.1042
  132OSM   H13F14283   2.029   1.988   7.921 -0.7756 -0.0150  0.7546
  132OSM   H13G14284   1.881   2.083   7.856  0.4413  0.4159 -1.6434
  132OSM   C14F14285   2.041   2.203   7.942 -0.2919 -0.0687 -0.3262
  132OSM   H14F14286   1.998   2.205   8.044  0.3184  1.6101 -0.0727
  132OSM   H14G14287   1.995   2.283   7.880  2.2042 -0.0494 -2.3200
  132OSM   C15F14288   2.189   2.230   7.955  0.2274 -0.0822 -0.4625
  132OSM   H15F14289   2.212   2.333   7.990  0.9517  0.3244 -2.0358
  132OSM   H15G14290   2.232   2.221   7.852  1.5976 -2.7477  0.2389
  132OSM   C16F14291   2.264   2.123   8.033  0.4811 -0.3514 -0.0251
  132OSM   H16F14292   2.372   2.147   8.017 -0.0756  2.2215 -0.3676
  132OSM   H16G14293   2.233   2.027   7.986  1.1930  0.2732 -1.8567
  132OSM   C17F14294   2.231   2.126   8.180 -0.2230  0.2910  0.3855
  132OSM   H17F14295   2.126   2.094   8.196  0.0780 -0.3483  1.1663
  132OSM   H17G14296   2.235   2.231   8.216  0.0863 -0.0611  1.4296
  132OSM   C18F14297   2.317   2.041   8.277 -0.3644  0.5287 -0.6286
  132OSM   H18F14298   2.273   1.939   8.278  0.2455  0.2620  0.4335
  132OSM   H18G14299   2.298   2.072   8.382  1.1957 -1.4787  0.3130
  132OSM   H18H14300   2.426   2.042   8.260 -0.4301  0.0701 -1.0846
  133SAPE     N14301   4.771   1.324  11.170  0.4051  0.1934 -0.1029
  133SAPE   HN114302   4.678   1.371  11.174 -1.2763 -2.7142 -1.4523
  133SAPE   HN214303   4.820   1.328  11.262 -0.4567 -2.6798  0.5806
  133SAPE   HN314304   4.829   1.378  11.102  2.4346 -0.0499  1.3479
  133SAPE   C1214305   4.752   1.176  11.126 -0.4864 -0.2351 -0.1474
  133SAPE  H12A14306   4.720   1.111  11.209  1.7762 -4.9503 -2.5790
  133SAPE  H12B14307   4.850   1.138  11.089 -0.4549 -0.5523  0.2624
  133SAPE   C1114308   4.649   1.148  11.014 -0.1032 -1.0315 -0.2365
  133SAPE  H11A14309   4.645   1.040  10.987 -0.0502 -1.5378  1.6127
  133SAPE  H11B14310   4.683   1.211  10.930 -0.9873 -0.7476 -0.3979
  133SAPE     P14311   4.443   1.325  11.046 -0.2442  0.2549  0.2202
  133SAPE   O1314312   4.297   1.303  11.066  0.2443  0.3148 -0.5954
  133SAPE   O1414313   4.518   1.422  11.125  0.2351 -0.3704 -0.0982
  133SAPE   O1214314   4.517   1.188  11.058  0.5752  0.2491  0.7753
  133SAPE   O1114315   4.471   1.367  10.894  0.2794  0.0882  0.2803
  133SAPE    C114316   4.562   1.465  10.854  0.5927 -0.2122  1.0532
  133SAPE    HA14317   4.508   1.561  10.872  0.8753  0.3796 -1.0317
  133SAPE    HB14318   4.653   1.464  10.917  0.9427 -1.9266  0.5673
  133SAPE    C214319   4.598   1.456  10.699 -0.4100  0.0118  0.3805
  133SAPE    HS14320   4.611   1.559  10.659 -0.3279  0.0220  0.4328
  133SAPE   O2114321   4.514   1.371  10.620 -0.0562 -0.4036  0.2970
  133SAPE   C2114322   4.386   1.405  10.615 -0.8702 -0.8967 -0.2749
  133SAPE   O2214323   4.343   1.512  10.659  0.1880  0.1564 -0.4143
  133SAPE   C2214324   4.306   1.315  10.520  0.4691  0.6702 -0.2067
  133SAPE   H2R14325   4.351   1.327  10.419  0.0284 -0.0668 -0.4998
  133SAPE   H2S14326   4.315   1.210  10.554  1.8078  0.8086 -0.0829
  133SAPE    C314327   4.741   1.401  10.679  0.0801 -0.5703  0.0001
  133SAPE    HX14328   4.763   1.321  10.752 -1.4549  0.0219  1.1635
  133SAPE    HY14329   4.816   1.478  10.710  0.0313 -0.4990 -0.0574
  133SAPE   O3114330   4.767   1.356  10.545 -0.1840  0.2885 -0.5163
  133SAPE   C3114331   4.799   1.447  10.457 -0.3847 -0.3833 -0.0187
  133SAPE   O3214332   4.805   1.568  10.467 -0.0236 -0.5532 -0.5274
  133SAPE   C3214333   4.819   1.390  10.318 -0.8522  0.5561 -0.5198
  133SAPE   H2X14334   4.791   1.463  10.239 -0.7223  0.1504 -0.9397
  133SAPE   H2Y14335   4.745   1.308  10.311  0.0520 -0.5080  1.5828
  133SAPE   C2314336   4.158   1.362  10.507 -0.1938  0.3488 -0.1724
  133SAPE   H3R14337   4.151   1.473  10.512  0.8004  0.3873  0.8087
  133SAPE   H3S14338   4.103   1.318  10.593 -1.3386 -1.2183 -1.6408
  133SAPE   C2414339   4.091   1.307  10.379 -0.3048 -0.4756  0.4849
  133SAPE   H4R14340   4.139   1.362  10.295 -0.7900  0.3348  0.7242
  133SAPE   H4S14341   3.986   1.342  10.382  0.3197  1.7183 -0.7382
  133SAPE   C2514342   4.107   1.163  10.375  1.0629  0.3690 -0.6022
  133SAPE   H5R14343   4.112   1.124  10.478  1.7055 -0.3113 -0.8804
  133SAPE   C2614344   4.103   1.077  10.275  0.1920 -0.1032  0.1531
  133SAPE   H6R14345   4.105   0.968  10.287 -1.0170 -0.0856  0.6480
  133SAPE   C2714346   4.086   1.136  10.135 -0.5186 -0.3991 -0.0859
  133SAPE   H7R14347   4.191   1.151  10.101 -0.5108 -0.3501 -0.0408
  133SAPE   H7S14348   4.043   1.238  10.144  0.2830 -0.0381 -0.2144
  133SAPE   C2814349   3.996   1.039  10.061  0.1595  0.4268 -1.1105
  133SAPE   H8R14350   3.904   1.006  10.112  1.3836  0.5618  1.3379
  133SAPE   C2914351   4.027   0.979   9.947  0.1008 -0.1190  0.3521
  133SAPE   H9R14352   3.956   0.911   9.898 -1.2097  2.3058 -1.2971
  133SAPE  C21014353   4.138   1.029   9.864 -0.0516 -0.1811 -0.1399
  133SAPE  H10R14354   4.224   1.084   9.906 -0.3922 -0.4792  0.9852
  133SAPE  H10S14355   4.114   1.096   9.779  0.1514 -1.4298 -1.2181
  133SAPE  C21114356   4.200   0.911   9.803 -0.7506  0.0821  0.2646
  133SAPE  H11R14357   4.295   0.891   9.855  0.5056  0.2539 -1.8718
  133SAPE  C21214358   4.183   0.864   9.675  0.3544 -0.1407 -0.9853
  133SAPE  H12R14359   4.246   0.780   9.641  1.3552 -0.0083  0.4622
  133SAPE  C21314360   4.069   0.900   9.583  0.8792 -0.2471 -0.1250
  133SAPE  H13R14361   4.003   0.979   9.626  0.6580 -0.8833  0.7128
  133SAPE  H13S14362   4.002   0.812   9.577  2.4200 -1.4994  0.4696
  133SAPE  C21414363   4.121   0.940   9.448  0.4869 -0.3198 -0.4141
  133SAPE  H14R14364   4.130   1.050   9.445  1.5635 -0.2850  1.8068
  133SAPE  C21514365   4.162   0.857   9.348 -0.2618 -0.2577  0.1950
  133SAPE  H15R14366   4.198   0.899   9.252 -0.2801  1.1251  0.7701
  133SAPE  C21614367   4.156   0.705   9.359  0.3171 -0.1031  0.1315
  133SAPE  H16R14368   4.150   0.675   9.466  0.4263  1.5270  0.6224
  133SAPE  H16S14369   4.255   0.664   9.327  0.7186  0.9031  0.0479
  133SAPE  C21714370   4.045   0.632   9.281 -0.4254 -0.1564  0.9958
  133SAPE  H17R14371   3.953   0.647   9.341 -0.2609  0.7897  1.0364
  133SAPE  H17S14372   4.063   0.523   9.287 -0.2458 -0.2407 -0.5247
  133SAPE  C21814373   4.027   0.680   9.135 -0.1435  0.3571  1.0242
  133SAPE  H18R14374   4.014   0.791   9.135  1.0454  0.5189  2.0937
  133SAPE  H18S14375   3.934   0.638   9.092 -0.8412  1.9256  0.9413
  133SAPE  C21914376   4.146   0.643   9.038  0.4712  0.6562 -0.4731
  133SAPE  H19R14377   4.238   0.688   9.081  1.4721 -0.2575 -1.5817
  133SAPE  H19S14378   4.142   0.681   8.934  1.0227 -0.9886 -1.1252
  133SAPE  C22014379   4.167   0.483   9.019  0.6980  0.0402  0.1887
  133SAPE  H20R14380   4.242   0.454   8.943 -1.2940 -2.7708 -0.8580
  133SAPE  H20S14381   4.070   0.436   8.992  0.9885 -0.1803 -0.4933
  133SAPE  H20T14382   4.195   0.446   9.120 -0.7192  0.8881  0.9332
  133SAPE   C3314383   4.962   1.336  10.297 -0.4937 -0.3760 -0.2274
  133SAPE   H3X14384   4.963   1.251  10.225 -1.7178 -1.7700  1.3225
  133SAPE   H3Y14385   4.989   1.289  10.394 -2.9526  2.2856  1.9222
  133SAPE   C3414386   5.049   1.449  10.252 -0.6180 -0.1932 -0.3789
  133SAPE   H4X14387   5.042   1.532  10.326 -0.3994 -0.3913 -0.1346
  133SAPE   H4Y14388   5.011   1.478  10.152 -0.6659  1.6843  0.1473
  133SAPE   C3514389   5.198   1.407  10.257 -0.1683  0.0824 -0.1097
  133SAPE   H5X14390   5.218   1.320  10.323  2.9935  0.2159 -0.7295
  133SAPE   H5Y14391   5.270   1.486  10.287 -0.6292  0.0157  1.2337
  133SAPE   C3614392   5.237   1.373  10.111  0.8100  0.4052 -0.6701
  133SAPE   H6X14393   5.162   1.297  10.080  0.6124  0.0861  0.5539
  133SAPE   H6Y14394   5.336   1.323  10.108 -0.6750 -2.9868  1.3414
  133SAPE   C3714395   5.241   1.486  10.015  0.2332 -0.1183 -0.2525
  133SAPE   H7X14396   5.329   1.548  10.042 -0.0537 -0.6446  2.2019
  133SAPE   H7Y14397   5.151   1.552  10.019  1.9627  2.4377 -1.0786
  133SAPE   C3814398   5.244   1.429   9.874 -0.4149 -0.3737 -0.4397
  133SAPE   H8X14399   5.313   1.345   9.852 -0.9299 -1.2177  1.0181
  133SAPE   H8Y14400   5.275   1.515   9.811  1.1694  1.8762  3.0798
  133SAPE   C3914401   5.098   1.395   9.821  0.2122 -0.1848 -0.3049
  133SAPE   H9X14402   5.044   1.485   9.786 -0.0761 -0.6425 -1.0602
  133SAPE   H9Y14403   5.039   1.339   9.897 -0.5557 -0.7426 -1.2906
  133SAPE  C31014404   5.102   1.292   9.706  0.4422  0.0214 -0.0652
  133SAPE  H10X14405   4.994   1.278   9.680  0.2643  1.5585 -0.2586
  133SAPE  H10Y14406   5.143   1.194   9.738  0.3741  0.1600  0.4516
  133SAPE  C31114407   5.175   1.349   9.573 -0.0959  0.5149  0.9461
  133SAPE  H11X14408   5.282   1.350   9.604 -0.5800 -0.4069  2.8390
  133SAPE  H11Y14409   5.140   1.455   9.566 -1.4328  0.0187 -0.1251
  133SAPE  C31214410   5.148   1.268   9.445 -0.0802  0.3857  0.4695
  133SAPE  H12X14411   5.170   1.326   9.352 -0.4452  1.0669  0.8005
  133SAPE  H12Y14412   5.044   1.233   9.433  0.1804  0.1470 -1.3901
  133SAPE  C31314413   5.232   1.146   9.434 -0.1872 -0.1050  0.1639
  133SAPE  H13X14414   5.231   1.109   9.539 -1.5056  1.2746  0.6691
  133SAPE  H13Y14415   5.339   1.171   9.421  0.0937 -1.2472  0.1411
  133SAPE  C31414416   5.178   1.037   9.336  0.5526 -0.2199 -0.9392
  133SAPE  H14X14417   5.079   1.001   9.373  0.8291 -0.1439 -0.0842
  133SAPE  H14Y14418   5.245   0.948   9.339  1.0248  0.1495  0.4191
  133SAPE  C31514419   5.186   1.092   9.190 -0.6281  0.1733 -0.0714
  133SAPE  H15X14420   5.291   1.127   9.186  0.1764 -1.8396  1.5510
  133SAPE  H15Y14421   5.105   1.165   9.168 -1.6147 -0.8204  0.2102
  133SAPE  C31614422   5.154   0.984   9.089 -0.2034 -0.4821  0.5014
  133SAPE  H16X14423   5.049   0.956   9.110 -0.4238  0.0463  0.1257
  133SAPE  H16Y14424   5.222   0.897   9.105  0.8970  0.2632  0.0231
  133SAPE  C31714425   5.160   1.033   8.947  0.5153  0.8595 -0.4655
  133SAPE  H17X14426   5.247   1.100   8.928  1.3803 -0.2271 -0.4323
  133SAPE  H17Y14427   5.063   1.087   8.938  0.1412  0.7043  2.0443
  133SAPE  C31814428   5.156   0.919   8.842 -0.0726  0.2857  0.2956
  133SAPE  H18X14429   5.164   0.964   8.741  2.3254  0.1911  0.3847
  133SAPE  H18Y14430   5.054   0.876   8.833 -0.7111  1.7957 -0.0134
  133SAPE  H18Z14431   5.236   0.844   8.856 -1.7274 -1.6069  0.0985
  134SAPE     N14432   2.690   5.965  10.927 -0.1136 -0.2025  0.4367
  134SAPE   HN114433   2.763   5.980  10.855 -1.1497  0.7959 -0.4484
  134SAPE   HN214434   2.633   6.052  10.921 -0.1101 -0.2468 -0.4382
  134SAPE   HN314435   2.736   5.950  11.019  0.5482  1.5158  0.4195
  134SAPE   C1214436   2.621   5.840  10.885 -0.0313  0.5740 -0.0677
  134SAPE  H12A14437   2.551   5.815  10.967  1.5856 -1.2934  0.8165
  134SAPE  H12B14438   2.696   5.758  10.882 -1.0641 -0.3687 -1.0190
  134SAPE   C1114439   2.542   5.851  10.754 -0.5915  0.6641 -0.1524
  134SAPE  H11A14440   2.509   5.749  10.727  3.8096 -0.6411 -1.4016
  134SAPE  H11B14441   2.616   5.884  10.678  3.1318  0.7334  3.1891
  134SAPE     P14442   2.293   5.935  10.733 -0.0149 -0.2335 -0.6594
  134SAPE   O1314443   2.225   5.840  10.819 -0.2804  0.3734 -0.4052
  134SAPE   O1414444   2.231   6.072  10.733  0.1980  0.6104  0.8691
  134SAPE   O1214445   2.440   5.947  10.770  0.1389  0.2047  0.5479
  134SAPE   O1114446   2.296   5.875  10.585  0.2236 -0.3110  0.5032
  134SAPE    C114447   2.328   5.952  10.469 -1.1243  0.6749  0.6985
  134SAPE    HA14448   2.389   6.041  10.497 -1.2988 -0.0224  3.6290
  134SAPE    HB14449   2.385   5.893  10.394 -2.1750 -0.3856  0.7172
  134SAPE    C214450   2.188   5.992  10.402 -0.2489  0.4789  0.4296
  134SAPE    HS14451   2.105   5.955  10.467  1.3943 -0.8585  1.8560
  134SAPE   O2114452   2.183   5.922  10.274  0.3701 -0.0628  0.1843
  134SAPE   C2114453   2.133   5.800  10.286  0.4031  1.3111  0.5780
  134SAPE   O2214454   2.118   5.737  10.390 -0.3312 -0.0931  0.4528
  134SAPE   C2214455   2.094   5.751  10.144 -0.8582 -0.2130 -0.1987
  134SAPE   H2R14456   2.033   5.828  10.092 -2.5493 -1.0520  0.4700
  134SAPE   H2S14457   2.193   5.735  10.096 -0.7600 -2.5792  0.6704
  134SAPE    C314458   2.171   6.138  10.408  0.5362 -0.3131 -0.4052
  134SAPE    HX14459   2.256   6.178  10.348  2.0120 -0.0956  1.7190
  134SAPE    HY14460   2.192   6.178  10.509 -0.2403  1.2976 -0.8552
  134SAPE   O3114461   2.045   6.187  10.369 -0.3053 -0.9789 -0.9787
  134SAPE   C3114462   2.033   6.209  10.238  0.0189  0.4036 -0.8947
  134SAPE   O3214463   2.114   6.173  10.155  0.0273  0.0106  0.2226
  134SAPE   C3214464   1.918   6.300  10.213  0.2299  0.2066  0.0568
  134SAPE   H2X14465   1.903   6.364  10.303 -2.1025  0.4772 -0.4834
  134SAPE   H2Y14466   1.825   6.240  10.203  1.8342 -2.4509  0.0935
  134SAPE   C2314467   2.008   5.626  10.145  0.0298 -0.1294  0.1233
  134SAPE   H3R14468   1.902   5.647  10.122  0.2077 -0.9799 -1.6341
  134SAPE   H3S14469   1.999   5.592  10.251 -1.0282 -0.4248 -0.0541
  134SAPE   C2414470   2.043   5.513  10.048  0.0174  0.3084 -0.4462
  134SAPE   H4R14471   2.022   5.552   9.946  1.4186  0.7884 -0.5679
  134SAPE   H4S14472   1.963   5.436  10.054  0.7955 -0.4436  0.6187
  134SAPE   C2514473   2.187   5.468  10.069  0.2683 -0.4959  0.1043
  134SAPE   H5R14474   2.205   5.417  10.165 -0.9648  2.2021  1.8726
  134SAPE   C2614475   2.297   5.475   9.988 -0.4668 -0.0175  0.2221
  134SAPE   H6R14476   2.389   5.425  10.020  0.1268  2.1323  2.0951
  134SAPE   C2714477   2.303   5.522   9.845  0.4646  0.6719  0.1965
  134SAPE   H7R14478   2.410   5.550   9.836  1.2158 -2.1913 -0.6834
  134SAPE   H7S14479   2.253   5.620   9.827  0.2984  0.8942  1.7591
  134SAPE   C2814480   2.243   5.414   9.751  0.2496  0.0971  0.1336
  134SAPE   H8R14481   2.226   5.321   9.806 -1.3341  1.3425  1.8792
  134SAPE   C2914482   2.245   5.425   9.618 -0.1850 -0.7610 -0.3318
  134SAPE   H9R14483   2.202   5.339   9.565 -0.5286 -0.4926 -0.4946
  134SAPE  C21014484   2.296   5.536   9.527 -0.1318 -0.4208 -0.0535
  134SAPE  H10R14485   2.382   5.497   9.469  0.2292  0.0248  0.1831
  134SAPE  H10S14486   2.324   5.627   9.584 -0.7981  0.4062 -1.0035
  134SAPE  C21114487   2.193   5.586   9.429  0.2269 -0.5121  0.0902
  134SAPE  H11R14488   2.102   5.628   9.476  1.0829 -2.4026  3.8477
  134SAPE  C21214489   2.196   5.565   9.293 -0.2144  1.3894 -0.2846
  134SAPE  H12R14490   2.112   5.601   9.232 -2.4318 -1.4432  0.8737
  134SAPE  C21314491   2.292   5.480   9.216  0.0808  0.0465  0.0547
  134SAPE  H13R14492   2.234   5.430   9.135  0.7531  0.6901 -0.8368
  134SAPE  H13S14493   2.323   5.394   9.279 -2.0265 -0.7413  0.1240
  134SAPE  C21414494   2.406   5.549   9.142  0.5280  0.9122 -0.4329
  134SAPE  H14R14495   2.497   5.567   9.201  1.4207  0.5098 -1.6239
  134SAPE  C21514496   2.405   5.578   9.014 -0.3862  0.0809 -0.1833
  134SAPE  H15R14497   2.492   5.628   8.970 -0.2319  1.0378  1.1567
  134SAPE  C21614498   2.296   5.549   8.917 -0.3392 -0.1125  0.3844
  134SAPE  H16R14499   2.275   5.632   8.847 -0.7507 -0.4713  0.0827
  134SAPE  H16S14500   2.195   5.542   8.962 -1.7795  2.7262 -2.1382
  134SAPE  C21714501   2.322   5.413   8.847 -0.0727 -0.2694  0.2069
  134SAPE  H17R14502   2.353   5.334   8.918  2.7341  0.6194  0.0774
  134SAPE  H17S14503   2.411   5.426   8.782  0.8018  1.0112  1.5862
  134SAPE  C21814504   2.199   5.368   8.765  0.5854 -0.3644  0.4411
  134SAPE  H18R14505   2.150   5.454   8.716 -1.9601 -0.1683  3.0231
  134SAPE  H18S14506   2.115   5.322   8.823  0.6555  0.2142  1.0193
  134SAPE  C21914507   2.226   5.280   8.641  0.1600  0.5326 -1.0416
  134SAPE  H19R14508   2.273   5.184   8.672 -2.1819 -0.9578 -1.8159
  134SAPE  H19S14509   2.291   5.351   8.586  0.4446  1.4409  0.4090
  134SAPE  C22014510   2.106   5.251   8.547 -0.7254  0.5570 -0.1070
  134SAPE  H20R14511   2.077   5.343   8.493 -1.3386  1.4093  1.6019
  134SAPE  H20S14512   2.019   5.218   8.608  1.2858 -0.5363  2.3284
  134SAPE  H20T14513   2.143   5.174   8.476 -0.1151 -0.4237  1.2419
  134SAPE   C3314514   1.923   6.384  10.081  1.1676  0.3712 -0.0429
  134SAPE   H3X14515   2.003   6.461  10.088 -0.4927  2.0942  1.0101
  134SAPE   H3Y14516   1.826   6.437  10.075  1.2872  0.6161  0.1529
  134SAPE   C3414517   1.941   6.316   9.947 -0.8448  0.9109  0.0916
  134SAPE   H4X14518   1.847   6.260   9.927 -0.5529 -0.1329  1.4691
  134SAPE   H4Y14519   2.024   6.243   9.954 -1.9348 -0.4287 -0.4525
  134SAPE   C3514520   1.960   6.420   9.836  0.2565  0.6142 -0.1045
  134SAPE   H5X14521   2.058   6.469   9.857 -0.8976  2.6918  0.7485
  134SAPE   H5Y14522   1.882   6.498   9.843 -1.2292 -0.8465  0.0534
  134SAPE   C3614523   1.944   6.366   9.694 -1.1156 -0.8795  0.4525
  134SAPE   H6X14524   1.838   6.334   9.681 -0.9633 -0.5143 -1.9624
  134SAPE   H6Y14525   2.009   6.282   9.662 -0.4970 -1.1207  2.2165
  134SAPE   C3714526   1.962   6.489   9.600 -0.3161 -0.0503 -0.1468
  134SAPE   H7X14527   2.062   6.530   9.626 -0.4744 -0.6168  1.4853
  134SAPE   H7Y14528   1.882   6.564   9.619  0.0899  0.2289  0.4890
  134SAPE   C3814529   1.951   6.450   9.453 -0.0861  0.2815 -0.0715
  134SAPE   H8X14530   1.851   6.414   9.421 -0.3745  1.9279 -1.1306
  134SAPE   H8Y14531   2.024   6.369   9.434  0.2206  0.5046  0.1541
  134SAPE   C3914532   1.992   6.564   9.358 -0.2577 -0.4424 -0.1430
  134SAPE   H9X14533   2.091   6.606   9.384  0.6980 -1.7813 -1.4100
  134SAPE   H9Y14534   1.910   6.639   9.359 -0.6155 -0.8287  0.0384
  134SAPE  C31014535   1.997   6.511   9.214 -0.2386  0.0367  0.1018
  134SAPE  H10X14536   1.893   6.481   9.191 -0.5589  0.5039  0.8833
  134SAPE  H10Y14537   2.065   6.424   9.224 -0.2036  0.0535  0.0150
  134SAPE  C31114538   2.062   6.610   9.116  0.2336  0.5650 -0.3777
  134SAPE  H11X14539   2.165   6.626   9.155  0.5852  1.6753 -1.7098
  134SAPE  H11Y14540   2.007   6.706   9.125  2.3423  1.6873  2.0807
  134SAPE  C31214541   2.054   6.558   8.975  0.4803 -0.8165  0.3550
  134SAPE  H12X14542   1.956   6.507   8.970 -0.3417  0.7155  0.3234
  134SAPE  H12Y14543   2.124   6.478   8.945 -0.3406 -0.8998 -1.4759
  134SAPE  C31314544   2.075   6.673   8.879  0.0684 -0.4012  0.0442
  134SAPE  H13X14545   2.174   6.719   8.899 -0.6952  1.3048  0.1285
  134SAPE  H13Y14546   2.001   6.755   8.890 -0.2512 -0.8696  1.7959
  134SAPE  C31414547   2.063   6.624   8.735  0.1124  0.4617 -0.8167
  134SAPE  H14X14548   1.960   6.589   8.716 -0.7131  1.6052  1.2608
  134SAPE  H14Y14549   2.135   6.541   8.718 -0.1076  0.2615 -0.7683
  134SAPE  C31514550   2.106   6.746   8.642  0.7914 -0.3637  0.3400
  134SAPE  H15X14551   2.216   6.761   8.648  1.0237 -1.2202 -1.2274
  134SAPE  H15Y14552   2.055   6.840   8.672  1.8372 -0.3364  2.1499
  134SAPE  C31614553   2.081   6.738   8.495 -0.4473  0.4748  0.6521
  134SAPE  H16X14554   1.971   6.728   8.488 -0.3113 -0.3176 -0.6262
  134SAPE  H16Y14555   2.130   6.650   8.448 -1.6812  0.3002 -0.3501
  134SAPE  C31714556   2.134   6.860   8.415  0.3741 -0.2248  0.3360
  134SAPE  H17X14557   2.119   6.857   8.305 -0.5967 -0.4900  0.4730
  134SAPE  H17Y14558   2.243   6.876   8.433  0.0463 -0.8463  3.4843
  134SAPE  C31814559   2.076   6.995   8.451  0.2037 -0.6357  0.0893
  134SAPE  H18X14560   2.090   7.022   8.557  2.4994  0.0251 -0.3244
  134SAPE  H18Y14561   1.966   7.000   8.431  0.3997 -0.6553 -1.0528
  134SAPE  H18Z14562   2.135   7.070   8.395  2.8893 -2.4259  0.3579
  135SAPE     N14563   2.257   4.159  10.748 -0.2504  0.0601  0.0900
  135SAPE   HN114564   2.357   4.179  10.727  0.2615 -1.2348  1.0976
  135SAPE   HN214565   2.249   4.161  10.852 -2.5811 -0.1834 -0.0192
  135SAPE   HN314566   2.236   4.062  10.716 -2.7024  0.8340 -0.9089
  135SAPE   C1214567   2.166   4.245  10.674 -0.0510  0.5677  0.5485
  135SAPE  H12A14568   2.211   4.295  10.585  0.7264  2.0691  1.7350
  135SAPE  H12B14569   2.135   4.323  10.747  1.1560 -0.2643  2.0276
  135SAPE   C1114570   2.040   4.160  10.620  0.6990  0.2218 -0.1430
  135SAPE  H11A14571   2.065   4.129  10.517 -1.4077 -2.0141 -0.0719
  135SAPE  H11B14572   1.953   4.229  10.619 -0.3090 -0.9968  0.8110
  135SAPE     P14573   1.888   3.955  10.684 -0.3026  0.0239  0.1591
  135SAPE   O1314574   1.875   3.859  10.804  0.4877 -0.0447  0.4744
  135SAPE   O1414575   1.773   4.041  10.661  0.3609 -0.1580 -0.6961
  135SAPE   O1214576   2.012   4.045  10.701 -0.1313 -0.5133  0.0509
  135SAPE   O1114577   1.909   3.857  10.561  0.0695 -0.3656 -0.2194
  135SAPE    C114578   2.037   3.823  10.507 -0.3619 -0.9985  0.2819
  135SAPE    HA14579   2.080   3.902  10.442  2.9875 -1.0701  2.1992
  135SAPE    HB14580   2.115   3.810  10.585 -0.5989 -0.6810  0.5754
  135SAPE    C214581   2.031   3.693  10.429  0.3090 -0.2087 -0.0933
  135SAPE    HS14582   2.131   3.681  10.382  0.4234  0.6330 -0.0849
  135SAPE   O2114583   1.920   3.698  10.333  0.2996  0.0835 -0.2873
  135SAPE   C2114584   1.955   3.652  10.216 -0.2427  0.3988  1.0908
  135SAPE   O2214585   2.067   3.610  10.184  0.4154 -0.0115 -0.0440
  135SAPE   C2214586   1.842   3.662  10.119 -0.3002 -0.6088 -0.3887
  135SAPE   H2R14587   1.745   3.649  10.173  0.1973  0.1572  0.7347
  135SAPE   H2S14588   1.853   3.760  10.068 -1.5547 -0.1153  0.2534
  135SAPE    C314589   2.001   3.567  10.521 -0.9422  0.3766  1.0594
  135SAPE    HX14590   1.900   3.584  10.564 -1.8939 -3.3116  0.5488
  135SAPE    HY14591   2.067   3.560  10.609 -0.7963 -0.1486  0.9098
  135SAPE   O3114592   1.994   3.433  10.453  0.3303 -0.2743 -0.2572
  135SAPE   C3114593   2.109   3.386  10.416  0.8254 -0.8106  0.4415
  135SAPE   O3214594   2.217   3.435  10.437 -0.6956  0.0185  0.4838
  135SAPE   C3214595   2.080   3.260  10.336  0.3166 -0.7993 -0.8735
  135SAPE   H2X14596   2.049   3.301  10.237  0.0047 -1.2726 -0.9716
  135SAPE   H2Y14597   2.003   3.202  10.390  0.4399 -0.2496 -0.0930
  135SAPE   C2314598   1.852   3.545  10.015 -0.2659  0.3436 -0.1119
  135SAPE   H3R14599   1.871   3.460  10.084 -1.7937  0.1444  0.1076
  135SAPE   H3S14600   1.938   3.548   9.944  0.1507 -4.3678 -0.1583
  135SAPE   C2414601   1.718   3.509   9.942 -0.5398 -0.5626  0.0823
  135SAPE   H4R14602   1.649   3.480  10.024 -1.9054 -1.4528 -1.3254
  135SAPE   H4S14603   1.725   3.410   9.891 -0.5722 -1.2883  1.4306
  135SAPE   C2514604   1.659   3.628   9.858  0.1624  0.4260 -1.0244
  135SAPE   H5R14605   1.632   3.714   9.921  1.3342  0.1676 -0.1299
  135SAPE   C2614606   1.623   3.624   9.725 -0.0550  0.1464  0.1967
  135SAPE   H6R14607   1.590   3.718   9.680 -0.2984 -0.0223  0.0225
  135SAPE   C2714608   1.638   3.513   9.627 -0.2320  0.0641 -0.7577
  135SAPE   H7R14609   1.731   3.455   9.646 -0.9899 -0.5452  1.3606
  135SAPE   H7S14610   1.647   3.551   9.522  0.9322 -1.3486 -1.2089
  135SAPE   C2814611   1.517   3.421   9.632  0.1250 -0.1384 -0.2103
  135SAPE   H8R14612   1.478   3.419   9.735  0.3106  0.3431 -0.1282
  135SAPE   C2914613   1.449   3.353   9.540 -1.3128 -0.8089  0.7016
  135SAPE   H9R14614   1.380   3.278   9.579  0.5045 -2.1252  1.5513
  135SAPE  C21014615   1.474   3.354   9.388 -0.7592  0.0529 -0.0471
  135SAPE  H10R14616   1.417   3.268   9.346 -0.6530  0.2217 -0.5406
  135SAPE  H10S14617   1.583   3.341   9.372 -0.7801  0.9354 -0.9599
  135SAPE  C21114618   1.423   3.481   9.321 -0.8618  0.1083 -1.2540
  135SAPE  H11R14619   1.379   3.552   9.394  1.5218 -0.1973  0.6069
  135SAPE  C21214620   1.443   3.527   9.195  0.8206  0.3427  0.0084
  135SAPE  H12R14621   1.393   3.621   9.170  0.7125  0.3568  0.2696
  135SAPE  C21314622   1.508   3.452   9.079 -0.1600  0.1214  0.3023
  135SAPE  H13R14623   1.436   3.382   9.033  1.2608 -1.8783  0.9427
  135SAPE  H13S14624   1.592   3.388   9.113  0.2095  1.5596  2.3314
  135SAPE  C21414625   1.569   3.544   8.974  0.2619  0.0292 -1.0643
  135SAPE  H14R14626   1.511   3.636   8.959 -0.2862 -0.2944 -0.9385
  135SAPE  C21514627   1.678   3.517   8.895 -0.0457 -0.1537 -0.0065
  135SAPE  H15R14628   1.716   3.600   8.833  1.4806 -0.5320  0.3760
  135SAPE  C21614629   1.768   3.394   8.876  0.0237 -0.0309 -0.0644
  135SAPE  H16R14630   1.726   3.308   8.933 -1.8008 -0.5730 -2.1139
  135SAPE  H16S14631   1.869   3.422   8.912 -0.5945  2.5299 -0.1414
  135SAPE  C21714632   1.762   3.341   8.729  0.0776  0.2476 -0.0556
  135SAPE  H17R14633   1.787   3.424   8.660 -1.3441  1.4272  0.7854
  135SAPE  H17S14634   1.660   3.305   8.704 -0.6431  1.8031  0.4947
  135SAPE  C21814635   1.863   3.227   8.716 -0.0563 -0.2435 -0.6900
  135SAPE  H18R14636   1.849   3.145   8.790 -0.9674 -2.4720 -3.1571
  135SAPE  H18S14637   1.963   3.276   8.726  1.6802 -2.8641 -3.3602
  135SAPE  C21914638   1.859   3.140   8.590 -0.5158  0.2300 -0.5070
  135SAPE  H19R14639   1.875   3.209   8.504  0.9625 -0.4967 -0.8385
  135SAPE  H19S14640   1.753   3.106   8.593 -0.7672  0.9940 -0.5439
  135SAPE  C22014641   1.971   3.036   8.590 -0.9043 -0.2860 -0.8011
  135SAPE  H20R14642   1.970   2.970   8.679  3.6590 -1.5039 -1.3641
  135SAPE  H20S14643   2.068   3.090   8.593 -0.1778 -1.4814 -1.7998
  135SAPE  H20T14644   1.969   2.965   8.505  1.2056 -0.7170 -0.5644
  135SAPE   C3314645   2.204   3.179  10.312  0.2515  0.3696 -0.5112
  135SAPE   H3X14646   2.257   3.189  10.409 -1.6761  2.2839  0.4150
  135SAPE   H3Y14647   2.274   3.225  10.239  1.1250  0.4480  0.3657
  135SAPE   C3414648   2.171   3.034  10.273  0.2624  0.2319 -0.0467
  135SAPE   H4X14649   2.137   2.973  10.359  2.0776 -2.3710 -1.0635
  135SAPE   H4Y14650   2.263   2.984  10.236  0.3015  0.6022 -0.4516
  135SAPE   C3514651   2.076   3.020  10.152 -0.5732 -0.5367  0.8894
  135SAPE   H5X14652   2.121   3.075  10.067 -1.8292  2.5238  2.0550
  135SAPE   H5Y14653   1.979   3.073  10.168 -0.2215  0.4773 -0.1887
  135SAPE   C3614654   2.048   2.876  10.106  0.2291  0.1777 -0.3803
  135SAPE   H6X14655   1.974   2.844  10.183  0.2272 -2.1516 -1.2734
  135SAPE   H6Y14656   2.147   2.826  10.110  1.0091  1.7576  1.7247
  135SAPE   C3714657   1.993   2.862   9.962  0.5204 -1.0362 -0.0229
  135SAPE   H7X14658   1.912   2.937   9.946  1.9089  1.2331  2.6166
  135SAPE   H7Y14659   1.957   2.759   9.944  0.6175 -1.0220 -0.2936
  135SAPE   C3814660   2.095   2.893   9.851 -0.0472  0.2534 -0.2921
  135SAPE   H8X14661   2.172   2.813   9.849  0.5862  0.8577 -0.4891
  135SAPE   H8Y14662   2.155   2.986   9.857 -0.3483  0.4259  0.1106
  135SAPE   C3914663   2.042   2.902   9.705  0.0859 -0.2053 -0.1349
  135SAPE   H9X14664   1.974   2.989   9.695 -0.2414 -0.4368  0.0747
  135SAPE   H9Y14665   1.986   2.808   9.687 -0.9867  0.6156 -1.3383
  135SAPE  C31014666   2.146   2.915   9.595 -0.2322 -0.2520  0.2046
  135SAPE  H10X14667   2.214   2.828   9.608 -0.2382 -0.2086  0.5216
  135SAPE  H10Y14668   2.197   3.012   9.615  0.9475 -0.7896 -0.0791
  135SAPE  C31114669   2.091   2.926   9.451  0.5563  0.6634  0.3227
  135SAPE  H11X14670   2.166   2.972   9.383 -0.9486  0.9904 -1.1873
  135SAPE  H11Y14671   2.001   2.991   9.457  1.1137  1.4740 -0.0345
  135SAPE  C31214672   2.056   2.792   9.391 -1.1878 -0.5974 -0.0683
  135SAPE  H12X14673   1.964   2.749   9.435 -1.6558 -0.8584 -1.2690
  135SAPE  H12Y14674   2.132   2.713   9.412 -0.5754 -0.5781 -1.9541
  135SAPE  C31314675   2.028   2.804   9.243  0.3193 -0.4425  0.3895
  135SAPE  H13X14676   2.133   2.808   9.204  0.1167  0.8803 -0.0593
  135SAPE  H13Y14677   1.977   2.897   9.211 -0.7505 -0.9988  0.4598
  135SAPE  C31414678   1.962   2.673   9.182  0.6724 -0.5610  0.1590
  135SAPE  H14X14679   1.856   2.658   9.215  0.2245  0.7180 -0.6549
  135SAPE  H14Y14680   2.021   2.589   9.225  3.3156  0.9756 -0.2856
  135SAPE  C31514681   1.971   2.662   9.021 -0.4804  0.2063  0.0892
  135SAPE  H15X14682   2.079   2.668   8.994  0.0934  2.1953  2.3580
  135SAPE  H15Y14683   1.933   2.759   8.981  1.6307  0.4856 -1.4475
  135SAPE  C31614684   1.891   2.554   8.966  0.6055 -0.1913 -0.2851
  135SAPE  H16X14685   1.789   2.564   9.008  1.6848 -1.2840  2.8577
  135SAPE  H16Y14686   1.942   2.461   8.996 -0.3011 -0.7758 -0.5140
  135SAPE  C31714687   1.882   2.536   8.813 -0.0351  0.1435 -0.7464
  135SAPE  H17X14688   1.853   2.429   8.806 -1.6635  0.2426  2.5793
  135SAPE  H17Y14689   1.976   2.546   8.754 -0.1267 -1.9016 -1.2976
  135SAPE  C31814690   1.777   2.625   8.750  0.5219 -0.7168  0.2997
  135SAPE  H18X14691   1.688   2.585   8.803 -0.1089  0.5888  0.2631
  135SAPE  H18Y14692   1.768   2.608   8.640 -0.4089  1.1687  0.0487
  135SAPE  H18Z14693   1.786   2.734   8.765  0.5039 -0.4574 -1.3661
  136SAPE     N14694   0.675   4.709  10.650  0.0566 -0.3120 -0.0686
  136SAPE   HN114695   0.617   4.664  10.576 -1.4600  1.5185 -0.0600
  136SAPE   HN214696   0.742   4.778  10.612 -1.4442  1.0231 -0.3875
  136SAPE   HN314697   0.719   4.639  10.713 -1.4666 -2.3452 -1.1501
  136SAPE   C1214698   0.572   4.785  10.734  0.1098  1.0820 -0.0589
  136SAPE  H12A14699   0.617   4.824  10.828 -0.9219 -0.9643  1.3576
  136SAPE  H12B14700   0.502   4.707  10.772  1.0636  0.6465  0.8644
  136SAPE   C1114701   0.497   4.896  10.660 -1.3675  0.8413 -0.1410
  136SAPE  H11A14702   0.415   4.920  10.731 -1.7110 -1.1016  0.1953
  136SAPE  H11B14703   0.454   4.863  10.563  0.2757 -0.8963 -0.3477
  136SAPE     P14704   0.688   5.046  10.534 -0.0317 -0.1024 -0.3292
  136SAPE   O1314705   0.735   5.181  10.548 -0.1043 -0.6301 -0.1121
  136SAPE   O1414706   0.781   4.930  10.538  0.0010  0.2739  0.2476
  136SAPE   O1214707   0.575   5.022  10.642 -0.0182 -0.1945  0.1789
  136SAPE   O1114708   0.591   5.049  10.399  0.1871  0.4056 -0.0689
  136SAPE    C114709   0.456   5.079  10.395  0.1923  0.8872  0.3867
  136SAPE    HA14710   0.405   4.995  10.342 -0.7195  2.4178 -1.2612
  136SAPE    HB14711   0.404   5.082  10.493 -0.4002 -0.6120  0.1486
  136SAPE    C214712   0.422   5.212  10.319 -0.4371  0.6219 -0.1478
  136SAPE    HS14713   0.314   5.227  10.340 -1.0514  0.8393 -3.0673
  136SAPE   O2114714   0.454   5.203  10.184 -0.0194  1.0842 -0.1926
  136SAPE   C2114715   0.378   5.123  10.112  0.3997  0.6093 -0.2666
  136SAPE   O2214716   0.270   5.071  10.148  0.0755  0.1568 -0.5119
  136SAPE   C2214717   0.440   5.111   9.972 -0.3744 -0.1102  0.5484
  136SAPE   H2R14718   0.500   5.202   9.952  0.0986 -0.3249  0.9739
  136SAPE   H2S14719   0.509   5.024   9.973  0.3110  0.3904  2.9733
  136SAPE    C314720   0.493   5.336  10.388  0.9913  0.0757  0.3178
  136SAPE    HX14721   0.602   5.315  10.390  1.5411  2.4102 -1.2121
  136SAPE    HY14722   0.447   5.340  10.489  1.5293 -3.0465  0.8012
  136SAPE   O3114723   0.462   5.448  10.300 -0.5117  0.1628  0.4399
  136SAPE   C3114724   0.342   5.504  10.318  0.9208 -0.2993  0.0305
  136SAPE   O3214725   0.263   5.463  10.403  0.3659 -0.1096  0.5345
  136SAPE   C3214726   0.316   5.609  10.210 -0.1720 -0.2365  0.0982
  136SAPE   H2X14727   0.402   5.623  10.141 -2.3825  1.6937 -2.4736
  136SAPE   H2Y14728   0.326   5.701  10.272  3.0707 -0.4075  0.0045
  136SAPE   C2314729   0.339   5.080   9.862 -0.5238  0.8317 -0.0396
  136SAPE   H3R14730   0.260   5.157   9.876 -0.2904  1.1444 -0.4284
  136SAPE   H3S14731   0.284   4.985   9.879  0.8076  0.0964  0.3305
  136SAPE   C2414732   0.405   5.094   9.720 -0.8291  0.1426  0.0202
  136SAPE   H4R14733   0.477   5.011   9.706 -2.5085 -1.5251  0.7861
  136SAPE   H4S14734   0.448   5.195   9.702  1.2768 -0.8406 -0.8179
  136SAPE   C2514735   0.299   5.080   9.619  0.1076 -0.1017 -0.0230
  136SAPE   H5R14736   0.215   5.151   9.624  0.0782 -0.1915  1.4856
  136SAPE   C2614737   0.298   5.001   9.512  0.5695 -0.0028  0.6049
  136SAPE   H6R14738   0.200   5.010   9.462  0.0104 -1.8265  1.2826
  136SAPE   C2714739   0.396   4.900   9.458  0.2692 -0.1836  0.0098
  136SAPE   H7R14740   0.338   4.806   9.462 -0.4793  0.3032  1.3178
  136SAPE   H7S14741   0.482   4.881   9.525  1.4946  0.2605 -1.4038
  136SAPE   C2814742   0.445   4.934   9.321 -0.7917  0.0018 -0.5418
  136SAPE   H8R14743   0.530   5.005   9.323 -0.4913 -0.2418  3.1168
  136SAPE   C2914744   0.395   4.897   9.201 -0.2694  0.1467  0.5112
  136SAPE   H9R14745   0.456   4.917   9.113 -2.6620  1.9939 -0.8502
  136SAPE  C21014746   0.267   4.818   9.181  0.4795 -0.8623 -0.5379
  136SAPE  H10R14747   0.205   4.832   9.272  2.1104  0.7483  0.3867
  136SAPE  H10S14748   0.284   4.710   9.158 -2.3825 -0.8100 -3.6949
  136SAPE  C21114749   0.177   4.876   9.067 -0.2022 -0.2719  0.2217
  136SAPE  H11R14750   0.095   4.940   9.103  0.2355  1.0177 -0.9801
  136SAPE  C21214751   0.191   4.844   8.938  0.5075  0.8730  0.0859
  136SAPE  H12R14752   0.122   4.886   8.863  0.6117 -1.6363 -1.5623
  136SAPE  C21314753   0.297   4.759   8.866  0.6066 -0.4380  0.2317
  136SAPE  H13R14754   0.347   4.699   8.945  2.7353  1.9415  0.8391
  136SAPE  H13S14755   0.376   4.819   8.816  0.1269 -1.2942 -1.6317
  136SAPE  C21414756   0.222   4.662   8.779 -0.3167 -0.5200  0.0368
  136SAPE  H14R14757   0.120   4.697   8.757 -0.1234 -0.5284 -0.9408
  136SAPE  C21514758   0.267   4.559   8.700  0.4355 -1.0010 -0.3006
  136SAPE  H15R14759   0.199   4.497   8.641 -0.1618 -1.0962  0.4739
  136SAPE  C21614760   0.414   4.523   8.678 -0.2318  0.0876  0.2563
  136SAPE  H16R14761   0.450   4.451   8.754  3.4128 -1.2134 -2.4438
  136SAPE  H16S14762   0.479   4.612   8.697  1.5248 -0.8546 -1.0404
  136SAPE  C21714763   0.424   4.463   8.534  0.0163 -0.0180  0.6132
  136SAPE  H17R14764   0.348   4.385   8.512  0.2545  0.2994 -1.5886
  136SAPE  H17S14765   0.519   4.405   8.540 -1.4052 -2.4938  0.5010
  136SAPE  C21814766   0.435   4.571   8.423 -0.2737  0.7161  0.2826
  136SAPE  H18R14767   0.529   4.628   8.436 -0.0996  0.1726  1.5151
  136SAPE  H18S14768   0.345   4.635   8.432 -0.1739  0.8292  0.4827
  136SAPE  C21914769   0.430   4.505   8.282  0.2083  0.8407  0.1482
  136SAPE  H19R14770   0.415   4.579   8.201 -1.9571  0.6357  0.3148
  136SAPE  H19S14771   0.338   4.444   8.270  0.5879  0.0442  1.1814
  136SAPE  C22014772   0.546   4.414   8.236 -0.5398 -0.2305  0.0468
  136SAPE  H20R14773   0.526   4.306   8.249 -0.6398 -0.1203  0.8980
  136SAPE  H20S14774   0.641   4.434   8.290  0.1966 -0.5961 -1.0626
  136SAPE  H20T14775   0.562   4.423   8.126  1.1939 -1.6656  0.1489
  136SAPE   C3314776   0.191   5.580  10.132 -0.0604 -0.2104  1.0471
  136SAPE   H3X14777   0.181   5.668  10.065  4.1684  0.1271  0.5793
  136SAPE   H3Y14778   0.100   5.582  10.195 -1.5873  1.4185 -1.0448
  136SAPE   C3414779   0.194   5.463  10.033  0.3294  0.1339  0.2421
  136SAPE   H4X14780   0.100   5.458   9.975  0.1013  0.1832  0.6053
  136SAPE   H4Y14781   0.211   5.375  10.098  4.1583  0.4512 -0.0657
  136SAPE   C3514782   0.313   5.478   9.933  0.1299  0.4969  0.2212
  136SAPE   H5X14783   0.397   5.413   9.965  0.3183  2.0038  3.1197
  136SAPE   H5Y14784   0.350   5.581   9.953  0.1099  0.6744 -0.6241
  136SAPE   C3614785   0.281   5.479   9.782 -0.2527 -0.2155  0.4123
  136SAPE   H6X14786   0.197   5.553   9.779  1.4729  1.8616  0.8968
  136SAPE   H6Y14787   0.242   5.380   9.753 -1.2030 -0.3044  1.8987
  136SAPE   C3714788   0.385   5.545   9.695 -0.1355 -0.2053  0.4172
  136SAPE   H7X14789   0.477   5.482   9.692 -1.8502 -2.9223 -3.3578
  136SAPE   H7Y14790   0.407   5.650   9.723  0.2449  0.1138 -0.9920
  136SAPE   C3814791   0.346   5.554   9.549  0.6820 -0.4503 -0.2805
  136SAPE   H8X14792   0.433   5.583   9.486 -1.0234 -0.7170 -2.8813
  136SAPE   H8Y14793   0.260   5.622   9.533  0.0239 -1.3047 -0.4169
  136SAPE   C3914794   0.326   5.417   9.493 -0.3792  0.3989 -0.2423
  136SAPE   H9X14795   0.239   5.369   9.543  0.4837 -1.5760 -0.5730
  136SAPE   H9Y14796   0.413   5.355   9.523 -1.0977 -1.5637 -1.9813
  136SAPE  C31014797   0.309   5.403   9.342  0.2493  0.1648  0.4402
  136SAPE  H10X14798   0.391   5.465   9.299  1.8624 -1.1571  1.4820
  136SAPE  H10Y14799   0.213   5.452   9.316  1.4713  1.4703 -2.0504
  136SAPE  C31114800   0.298   5.258   9.285 -0.5902  0.9798 -0.1305
  136SAPE  H11X14801   0.208   5.202   9.320  0.4085  0.1874  1.2913
  136SAPE  H11Y14802   0.382   5.196   9.323 -0.8743  1.9353  2.2197
  136SAPE  C31214803   0.300   5.261   9.134  0.5687 -0.7576  0.0923
  136SAPE  H12X14804   0.318   5.156   9.104  0.7810 -1.0724  1.2499
  136SAPE  H12Y14805   0.392   5.306   9.091  0.7080  0.1840  1.3176
  136SAPE  C31314806   0.172   5.328   9.072  0.2104  0.9944 -0.0067
  136SAPE  H13X14807   0.167   5.431   9.113  1.7003  0.6549  1.0987
  136SAPE  H13Y14808   0.090   5.267   9.117  0.1448  1.6529  0.7862
  136SAPE  C31414809   0.162   5.305   8.926  0.1354  0.6526  0.6242
  136SAPE  H14X14810   0.129   5.201   8.904  0.6924 -0.2752  3.7272
  136SAPE  H14Y14811   0.264   5.317   8.883  0.2111 -0.0405  0.5964
  136SAPE  C31514812   0.069   5.404   8.861 -0.4326  0.2015 -0.3582
  136SAPE  H15X14813   0.101   5.509   8.882 -0.3952 -0.0640  0.9306
  136SAPE  H15Y14814  -0.033   5.397   8.904  0.1163  1.4250  1.2344
  136SAPE  C31614815   0.054   5.380   8.709  0.0684 -0.3171  0.1214
  136SAPE  H16X14816   0.022   5.277   8.686 -0.0443  0.2213 -2.4689
  136SAPE  H16Y14817   0.155   5.400   8.667 -0.4116  2.0092 -0.0948
  136SAPE  C31714818  -0.047   5.480   8.648 -0.2034  0.3110  0.5925
  136SAPE  H17X14819  -0.131   5.483   8.720 -1.0255  0.8847 -0.3585
  136SAPE  H17Y14820  -0.078   5.436   8.551  2.4389  0.7250 -0.5323
  136SAPE  C31814821   0.002   5.623   8.644 -0.6356 -0.5294  0.0978
  136SAPE  H18X14822  -0.028   5.660   8.744  2.7968 -2.5556  2.0499
  136SAPE  H18Y14823  -0.034   5.690   8.563  0.1497 -0.0069  0.1633
  136SAPE  H18Z14824   0.110   5.606   8.622 -0.4808  2.0122 -1.6192
  137SAPE     N14825   0.960   1.961  10.612 -0.1482  0.5873  0.3030
  137SAPE   HN114826   0.987   1.877  10.558 -2.2439 -0.4942  0.8023
  137SAPE   HN214827   1.042   2.016  10.645  1.1756 -2.1460  1.9706
  137SAPE   HN314828   0.923   1.926  10.703 -1.7045 -0.4261 -0.6739
  137SAPE   C1214829   0.869   2.048  10.533  0.0354 -0.8823  0.3280
  137SAPE  H12A14830   0.933   2.102  10.459 -0.4622  0.5511  0.9111
  137SAPE  H12B14831   0.814   2.114  10.603  0.6560 -2.1144  2.0443
  137SAPE   C1114832   0.764   1.953  10.471 -0.7054  0.7104 -0.3292
  137SAPE  H11A14833   0.811   1.876  10.405 -1.4277  1.7399 -2.1215
  137SAPE  H11B14834   0.701   2.011  10.400 -0.2392  2.8232  0.9058
  137SAPE     P14835   0.657   1.739  10.590 -0.4147 -0.0937 -0.2499
  137SAPE   O1314836   0.784   1.666  10.613  0.2800 -0.2190  0.1850
  137SAPE   O1414837   0.552   1.714  10.690 -0.2235  0.3785 -0.1548
  137SAPE   O1214838   0.678   1.891  10.570  0.2122 -1.1573 -0.2999
  137SAPE   O1114839   0.611   1.693  10.449  0.0937  0.5180 -0.4320
  137SAPE    C114840   0.476   1.722  10.416  0.3090 -0.5499 -0.3945
  137SAPE    HA14841   0.413   1.649  10.471 -2.2016  0.0998 -2.2368
  137SAPE    HB14842   0.437   1.822  10.442 -0.7495 -0.8399 -0.7910
  137SAPE    C214843   0.446   1.699  10.263 -0.2565  0.2334  0.9282
  137SAPE    HS14844   0.337   1.720  10.256  0.1573  3.3328  2.0020
  137SAPE   O2114845   0.492   1.574  10.209 -0.1780  0.0758 -0.4986
  137SAPE   C2114846   0.419   1.469  10.245 -0.0750  0.5087 -0.2685
  137SAPE   O2214847   0.318   1.479  10.316  0.5466  0.4895 -0.6153
  137SAPE   C2214848   0.461   1.350  10.163  0.1948  1.0376  0.5550
  137SAPE   H2R14849   0.522   1.376  10.075  1.7509 -0.8291  1.0205
  137SAPE   H2S14850   0.503   1.273  10.231 -0.3346  0.6226  0.4252
  137SAPE    C314851   0.510   1.815  10.176 -0.2563  0.1724 -0.5395
  137SAPE    HX14852   0.619   1.812  10.199 -0.2924  0.0016 -0.3880
  137SAPE    HY14853   0.477   1.912  10.219  0.1604 -0.2342  0.7647
  137SAPE   O3114854   0.499   1.800  10.031 -0.2765  0.4679  0.9958
  137SAPE   C3114855   0.381   1.816   9.986  0.5849  0.0318 -0.1874
  137SAPE   O3214856   0.278   1.835  10.054 -0.1682  0.3678 -0.1122
  137SAPE   C3214857   0.400   1.832   9.840 -0.5977  0.2415  0.3222
  137SAPE   H2X14858   0.479   1.759   9.809  1.4677  1.6493  1.9819
  137SAPE   H2Y14859   0.431   1.937   9.823  1.0293 -0.1173  0.8398
  137SAPE   C2314860   0.333   1.281  10.108 -0.2040  0.5835  0.1536
  137SAPE   H3R14861   0.282   1.240  10.199 -0.6472  1.4433  0.3023
  137SAPE   H3S14862   0.365   1.206  10.034  0.0366 -1.3725  2.1234
  137SAPE   C2414863   0.242   1.375  10.022 -0.2657 -0.4660  0.9772
  137SAPE   H4R14864   0.210   1.463  10.083  2.6083  0.8032  0.8398
  137SAPE   H4S14865   0.148   1.328   9.986  1.0180 -0.9132 -2.0648
  137SAPE   C2514866   0.318   1.446   9.904 -0.0869 -0.5341  1.4483
  137SAPE   H5R14867   0.395   1.517   9.936  0.1185 -1.0839  2.2043
  137SAPE   C2614868   0.306   1.429   9.772 -0.1114  0.6901 -0.3767
  137SAPE   H6R14869   0.376   1.482   9.706  1.0987  0.2676  0.5306
  137SAPE   C2714870   0.211   1.351   9.695 -0.2941  0.1436 -1.0591
  137SAPE   H7R14871   0.119   1.412   9.683 -2.3070 -1.9424  2.0986
  137SAPE   H7S14872   0.189   1.264   9.761  2.3540  0.3914  0.3013
  137SAPE   C2814873   0.277   1.302   9.571  0.3203 -0.6837 -0.6436
  137SAPE   H8R14874   0.343   1.216   9.593 -1.5268 -2.0102 -0.0819
  137SAPE   C2914875   0.254   1.328   9.439 -0.0376 -0.4351  1.1127
  137SAPE   H9R14876   0.331   1.288   9.370  0.2006  0.9316  0.5615
  137SAPE  C21014877   0.147   1.414   9.371 -0.8553  0.1627 -0.5631
  137SAPE  H10R14878   0.194   1.498   9.315 -1.4480  0.1400 -1.1018
  137SAPE  H10S14879   0.091   1.462   9.455 -2.4023 -2.0806 -0.2181
  137SAPE  C21114880   0.048   1.334   9.287 -0.2298  0.3798 -0.0917
  137SAPE  H11R14881   0.012   1.240   9.331  1.3083  0.5385  1.6308
  137SAPE  C21214882  -0.002   1.372   9.168  0.5158  0.9251 -0.3215
  137SAPE  H12R14883  -0.082   1.310   9.125  1.0085  1.4971 -2.1782
  137SAPE  C21314884   0.025   1.501   9.088 -0.6160  0.2937  0.0165
  137SAPE  H13R14885   0.061   1.578   9.159 -0.6721 -0.9000  1.3771
  137SAPE  H13S14886  -0.060   1.558   9.046  0.2619  1.7596  0.1532
  137SAPE  C21414887   0.129   1.482   8.983 -0.7302  0.5605  0.1150
  137SAPE  H14R14888   0.232   1.462   9.017 -1.4338  1.8569  3.3917
  137SAPE  C21514889   0.131   1.504   8.851 -0.2432  0.8431 -0.6818
  137SAPE  H15R14890   0.226   1.489   8.799  1.1525 -0.7100  2.0865
  137SAPE  C21614891   0.006   1.544   8.774  0.1833  0.5403  0.1640
  137SAPE  H16R14892   0.025   1.552   8.664 -0.0616  0.8891  0.1450
  137SAPE  H16S14893  -0.017   1.648   8.808  0.5969  1.1733 -1.3808
  137SAPE  C21714894  -0.111   1.442   8.795  0.3063  0.0715  0.2790
  137SAPE  H17R14895  -0.166   1.472   8.887 -0.5469  0.4088 -0.3275
  137SAPE  H17S14896  -0.066   1.340   8.791  3.8182  1.4700  0.8584
  137SAPE  C21814897  -0.222   1.457   8.689  0.3741 -0.2458 -0.1997
  137SAPE  H18R14898  -0.245   1.358   8.644  2.7865 -1.0959  0.2747
  137SAPE  H18S14899  -0.193   1.533   8.613 -2.2502 -0.4463 -1.4935
  137SAPE  C21914900  -0.357   1.517   8.737  0.8153 -0.6642 -0.4057
  137SAPE  H19R14901  -0.410   1.557   8.647  0.3118  1.4398  0.7590
  137SAPE  H19S14902  -0.338   1.603   8.804 -0.6213 -0.4299 -0.2623
  137SAPE  C22014903  -0.445   1.408   8.797  0.1935 -0.1173 -0.4377
  137SAPE  H20R14904  -0.508   1.451   8.877  3.2500  4.0715  0.0964
  137SAPE  H20S14905  -0.382   1.328   8.841 -2.5880 -1.5184  1.2309
  137SAPE  H20T14906  -0.506   1.363   8.716  1.8892 -2.2582 -0.6168
  137SAPE   C3314907   0.271   1.828   9.760  1.0960 -0.2063 -0.0573
  137SAPE   H3X14908   0.201   1.912   9.779  0.6603 -1.2845  3.9239
  137SAPE   H3Y14909   0.210   1.739   9.786  0.6846 -0.4023 -1.6005
  137SAPE   C3414910   0.304   1.841   9.614 -0.4165  0.6299 -0.6001
  137SAPE   H4X14911   0.377   1.759   9.595  0.3582  1.0638  0.4295
  137SAPE   H4Y14912   0.351   1.939   9.590  0.2059  0.1641 -1.3457
  137SAPE   C3514913   0.182   1.825   9.525 -0.0662  0.5773 -0.0953
  137SAPE   H5X14914   0.105   1.892   9.569  0.0746 -1.2002  3.1810
  137SAPE   H5Y14915   0.137   1.723   9.530 -0.0806  0.6421  1.6793
  137SAPE   C3614916   0.213   1.853   9.387  1.0030 -0.3004  1.1104
  137SAPE   H6X14917   0.281   1.773   9.349  0.2720 -0.0370 -0.8903
  137SAPE   H6Y14918   0.256   1.953   9.364  0.7948 -0.5408 -0.4375
  137SAPE   C3714919   0.090   1.860   9.288  0.1066  0.8969  0.7082
  137SAPE   H7X14920   0.015   1.935   9.320  1.9052  1.7413  3.2115
  137SAPE   H7Y14921   0.040   1.761   9.293 -0.2894  1.0948  0.7089
  137SAPE   C3814922   0.122   1.870   9.136 -0.4035 -0.1973 -0.7226
  137SAPE   H8X14923   0.186   1.787   9.100  1.8327  0.7841  0.7701
  137SAPE   H8Y14924   0.186   1.960   9.130 -0.2458 -0.1985  0.6629
  137SAPE   C3914925   0.006   1.880   9.031  0.4208  0.7213 -0.5778
  137SAPE   H9X14926  -0.065   1.962   9.053 -1.5622 -1.0777  0.1245
  137SAPE   H9Y14927  -0.046   1.786   9.002  1.7286 -0.6496  1.2742
  137SAPE  C31014928   0.065   1.935   8.902  0.6482 -0.7241  0.1848
  137SAPE  H10X14929   0.136   1.857   8.868 -0.0670 -1.8144  1.1070
  137SAPE  H10Y14930   0.127   2.023   8.928 -0.4052 -0.2356  1.1653
  137SAPE  C31114931  -0.037   1.965   8.796  0.6466  0.1742  0.6337
  137SAPE  H11X14932  -0.111   2.036   8.840 -1.1528 -2.3650  1.9618
  137SAPE  H11Y14933  -0.085   1.871   8.762  0.2140  0.5428  0.2027
  137SAPE  C31214934   0.017   2.020   8.665  0.0666  0.0034  0.3846
  137SAPE  H12X14935   0.100   1.950   8.642 -0.2054 -1.0218  2.3128
  137SAPE  H12Y14936   0.072   2.115   8.684  0.9102  0.1040 -2.1745
  137SAPE  C31314937  -0.096   2.035   8.561  0.4334  0.6242 -0.1066
  137SAPE  H13X14938  -0.183   2.088   8.606  1.2288  1.1620  0.8424
  137SAPE  H13Y14939  -0.129   1.939   8.516  0.6113 -0.8088  2.6438
  137SAPE  C31414940  -0.055   2.108   8.436  0.3091  0.0521 -0.1899
  137SAPE  H14X14941   0.034   2.058   8.392 -0.5074  0.4755 -2.4710
  137SAPE  H14Y14942  -0.033   2.217   8.442  1.4414 -0.2396  2.0631
  137SAPE  C31514943  -0.162   2.089   8.322  0.0926  0.0835 -0.7595
  137SAPE  H15X14944  -0.244   2.163   8.337 -0.5002 -0.7239  0.0953
  137SAPE  H15Y14945  -0.193   1.982   8.326  0.5285 -0.2472 -3.8027
  137SAPE  C31614946  -0.110   2.109   8.180  0.4383 -0.1602  0.1287
  137SAPE  H16X14947  -0.019   2.050   8.156  0.7267  0.6160 -0.7703
  137SAPE  H16Y14948  -0.070   2.213   8.174  0.8790 -0.3529 -0.3467
  137SAPE  C31714949  -0.215   2.091   8.069 -0.8583 -0.5078 -0.6370
  137SAPE  H17X14950  -0.142   2.091   7.986  1.2644 -0.5680  1.1442
  137SAPE  H17Y14951  -0.275   2.183   8.086 -0.8947 -1.0471  2.8373
  137SAPE  C31814952  -0.312   1.974   8.070  0.4553  0.2616 -0.1674
  137SAPE  H18X14953  -0.342   1.948   7.966 -0.4925 -1.3457  0.4814
  137SAPE  H18Y14954  -0.402   2.004   8.126 -0.1910 -3.6624  1.1660
  137SAPE  H18Z14955  -0.272   1.881   8.115  0.4123  1.3648  2.3129
  138SAPE     N14956   4.727   0.512  11.437  0.4732  0.0208 -0.5618
  138SAPE   HN114957   4.821   0.555  11.425 -0.2147  1.9891  0.6395
  138SAPE   HN214958   4.658   0.590  11.441 -1.0055 -0.9817 -3.5535
  138SAPE   HN314959   4.731   0.457  11.525  0.2459  1.9881  0.7630
  138SAPE   C1214960   4.675   0.441  11.314 -0.6670  0.1627 -0.6403
  138SAPE  H12A14961   4.566   0.432  11.332 -0.4253  2.0321  2.6042
  138SAPE  H12B14962   4.729   0.345  11.325 -0.6036  0.4299  1.9933
  138SAPE   C1114963   4.690   0.516  11.182  0.3871 -0.0983  0.1685
  138SAPE  H11A14964   4.654   0.454  11.096 -0.7227  0.7761 -0.0171
  138SAPE  H11B14965   4.797   0.533  11.157  0.1971 -1.9085 -2.3277
  138SAPE     P14966   4.627   0.750  11.081 -0.2843 -0.2324  0.4393
  138SAPE   O1314967   4.515   0.840  11.110 -0.1391 -0.4972 -0.1906
  138SAPE   O1414968   4.767   0.805  11.092  0.1487  0.0592 -0.0041
  138SAPE   O1214969   4.616   0.635  11.186 -0.5368 -0.0282 -0.1834
  138SAPE   O1114970   4.604   0.682  10.939 -0.7343 -0.0411 -0.5840
  138SAPE    C114971   4.709   0.612  10.866  0.1731  0.6246  0.1197
  138SAPE    HA14972   4.809   0.620  10.915  0.9267 -1.8774 -0.8698
  138SAPE    HB14973   4.688   0.504  10.860  0.8978  0.3763  1.5760
  138SAPE    C214974   4.740   0.662  10.721 -0.4045  0.3847 -0.6258
  138SAPE    HS14975   4.821   0.605  10.671  0.6096 -0.8921  2.2611
  138SAPE   O2114976   4.774   0.803  10.727 -0.3096 -0.0863  0.0685
  138SAPE   C2114977   4.892   0.845  10.725  0.1729  0.1024  0.4489
  138SAPE   O2214978   4.991   0.780  10.741 -1.0590 -0.1291  0.4613
  138SAPE   C2214979   4.888   0.986  10.670  0.4958 -0.7345  0.5395
  138SAPE   H2R14980   4.825   0.986  10.579  0.8243  1.3016  0.2600
  138SAPE   H2S14981   4.824   1.042  10.742  0.4995  0.5119 -0.3831
  138SAPE    C314982   4.617   0.637  10.636  0.6363  0.2277  0.6580
  138SAPE    HX14983   4.540   0.695  10.692  0.0028 -1.4330  1.5575
  138SAPE    HY14984   4.607   0.527  10.636 -0.0806  0.2817  1.6696
  138SAPE   O3114985   4.644   0.684  10.504  0.7545 -0.3351  0.7868
  138SAPE   C3114986   4.580   0.800  10.479 -0.0766 -0.1055  0.1766
  138SAPE   O3214987   4.521   0.870  10.559  0.6603  0.5382  0.0722
  138SAPE   C3214988   4.598   0.831  10.329  0.7367 -0.1185 -0.0965
  138SAPE   H2X14989   4.541   0.756  10.271  0.7644 -1.2226  1.2451
  138SAPE   H2Y14990   4.706   0.827  10.302  1.6501  0.9775  2.8987
  138SAPE   C2314991   5.023   1.063  10.648 -0.4050  0.0139 -0.6398
  138SAPE   H3R14992   5.086   1.055  10.739 -0.3694 -1.2095 -0.7578
  138SAPE   H3S14993   5.001   1.172  10.650  0.3176  0.1646  0.9584
  138SAPE   C2414994   5.093   1.034  10.517  0.1190 -0.1359  0.0611
  138SAPE   H4R14995   5.170   1.113  10.498  0.7136 -0.4573  1.0654
  138SAPE   H4S14996   5.025   1.032  10.430  1.0741 -0.8191 -0.7018
  138SAPE   C2514997   5.175   0.908  10.519 -0.7186 -0.4412  0.7696
  138SAPE   H5R14998   5.215   0.873  10.616 -1.8259 -1.4751  0.8798
  138SAPE   C2614999   5.205   0.828  10.419 -0.7451 -0.4594  0.5540
  138SAPE   H6R15000   5.260   0.734  10.437  2.4888  0.6566 -2.3082
  138SAPE   C2715001   5.155   0.839  10.277  0.4840  0.5762  0.0094
  138SAPE   H7R15002   5.045   0.850  10.290  0.7766  2.0697  1.7110
  138SAPE   H7S15003   5.175   0.743  10.226  1.5063  1.1579 -0.7317
  138SAPE   C2815004   5.199   0.958  10.190 -0.1059  0.3854 -0.2813
  138SAPE   H8R15005   5.226   1.051  10.242 -1.2065  0.6100 -0.0670
  138SAPE   C2915006   5.193   0.957  10.057  0.1504 -0.2797 -0.2707
  138SAPE   H9R15007   5.219   1.052  10.007 -0.3418  0.9410  1.6642
  138SAPE  C21015008   5.150   0.846   9.973  0.2664  0.1986 -0.0222
  138SAPE  H10R15009   5.108   0.764  10.036  2.0964  0.2408  1.3401
  138SAPE  H10S15010   5.241   0.799   9.931  1.7328  1.1398  1.9557
  138SAPE  C21115011   5.041   0.889   9.881 -0.2184  0.3726  0.4539
  138SAPE  H11R15012   4.966   0.958   9.922 -1.6153 -0.8396  0.0097
  138SAPE  C21215013   5.024   0.847   9.748 -0.6447 -0.5692  1.0701
  138SAPE  H12R15014   4.945   0.891   9.685  1.0549  0.3165 -0.5427
  138SAPE  C21315015   5.116   0.747   9.684 -0.3207  0.0656 -0.5818
  138SAPE  H13R15016   5.188   0.719   9.765 -1.8008 -0.5836  0.5591
  138SAPE  H13S15017   5.166   0.787   9.594 -0.1389 -0.4869 -0.7283
  138SAPE  C21415018   5.032   0.623   9.647 -0.0689  0.2608  0.3097
  138SAPE  H14R15019   4.974   0.586   9.733 -3.4764  4.1543  0.0137
  138SAPE  C21515020   4.994   0.580   9.522 -0.8576 -0.8248  0.4199
  138SAPE  H15R15021   4.920   0.499   9.512  1.1333 -2.6739 -0.1741
  138SAPE  C21615022   5.040   0.637   9.395  0.2591  0.4183  1.1866
  138SAPE  H16R15023   5.109   0.721   9.413  0.7765 -0.4634  3.6802
  138SAPE  H16S15024   4.949   0.664   9.337 -0.0512  0.9144  1.9013
  138SAPE  C21715025   5.122   0.535   9.308 -0.4083  0.2942 -0.1275
  138SAPE  H17R15026   5.062   0.442   9.303 -1.2375  0.8669 -1.2787
  138SAPE  H17S15027   5.215   0.515   9.365 -0.8798 -0.1018  0.5171
  138SAPE  C21815028   5.131   0.580   9.154 -0.6100  0.5392 -0.0566
  138SAPE  H18R15029   5.222   0.644   9.141 -0.3242  0.5895  1.9559
  138SAPE  H18S15030   5.038   0.635   9.127 -0.5764  0.5371 -0.1778
  138SAPE  C21915031   5.152   0.451   9.069 -0.5686  0.4247 -0.5644
  138SAPE  H19R15032   5.066   0.385   9.089 -0.3316  0.3048  0.0631
  138SAPE  H19S15033   5.235   0.382   9.097 -1.5926 -0.5989 -0.0019
  138SAPE  C22015034   5.153   0.483   8.921  0.2598 -0.4581  0.2639
  138SAPE  H20R15035   5.165   0.393   8.857 -0.9672 -0.0960 -0.5259
  138SAPE  H20S15036   5.239   0.549   8.894  1.0873 -1.2849  0.8336
  138SAPE  H20T15037   5.062   0.536   8.885  0.7595  0.0838 -0.2121
  138SAPE   C3315038   4.538   0.970  10.290 -0.3003  0.4156 -0.0182
  138SAPE   H3X15039   4.590   1.055  10.339 -0.4079  0.5491 -0.1370
  138SAPE   H3Y15040   4.431   0.963  10.316  0.0323  1.8151  1.9942
  138SAPE   C3415041   4.553   1.014  10.145  1.1597  0.0377 -0.0664
  138SAPE   H4X15042   4.458   0.977  10.102  1.0800  0.5366 -0.3304
  138SAPE   H4Y15043   4.632   0.960  10.088 -1.3270 -0.6199 -3.1747
  138SAPE   C3515044   4.557   1.167  10.123 -0.0870  0.1805  0.1344
  138SAPE   H5X15045   4.657   1.206  10.153  0.3527 -0.4084 -0.5322
  138SAPE   H5Y15046   4.477   1.208  10.189  1.2320  0.5839  1.5453
  138SAPE   C3615047   4.535   1.217   9.978  0.2659 -0.7780  0.0039
  138SAPE   H6X15048   4.513   1.324   9.997 -2.2603 -1.2654  0.1703
  138SAPE   H6Y15049   4.448   1.178   9.922  1.3761 -2.6593 -0.5027
  138SAPE   C3715050   4.657   1.202   9.882 -0.4200 -0.2404  0.4936
  138SAPE   H7X15051   4.667   1.091   9.876  0.6469 -0.1195 -0.2306
  138SAPE   H7Y15052   4.752   1.231   9.932  0.9707  0.4139 -2.3012
  138SAPE   C3815053   4.652   1.255   9.737 -0.8296 -0.1585  0.0472
  138SAPE   H8X15054   4.564   1.221   9.678 -1.8649  0.9426  0.9082
  138SAPE   H8Y15055   4.746   1.218   9.691 -0.6914 -1.3426  1.2184
  138SAPE   C3915056   4.658   1.408   9.733 -0.5392 -0.1972  0.0340
  138SAPE   H9X15057   4.739   1.435   9.805 -1.1315 -1.2423  1.1193
  138SAPE   H9Y15058   4.561   1.450   9.769 -0.1023 -0.2476  1.3321
  138SAPE  C31015059   4.711   1.458   9.599 -0.0632 -0.3808 -0.6104
  138SAPE  H10X15060   4.798   1.406   9.552 -0.1487  0.8121 -2.1764
  138SAPE  H10Y15061   4.733   1.567   9.603 -0.6273 -0.2064 -1.7351
  138SAPE  C31115062   4.600   1.437   9.491  0.0066  0.0140  0.2153
  138SAPE  H11X15063   4.503   1.464   9.536 -0.8568  0.3082 -1.7348
  138SAPE  H11Y15064   4.610   1.327   9.475  0.8855  0.2479 -1.0205
  138SAPE  C31215065   4.625   1.520   9.359  0.3849 -0.2619 -0.8649
  138SAPE  H12X15066   4.592   1.624   9.377 -0.1974 -0.1453 -2.4366
  138SAPE  H12Y15067   4.557   1.469   9.287 -0.3385  1.2816 -1.3169
  138SAPE  C31315068   4.761   1.526   9.297 -1.0059  0.0375  0.5306
  138SAPE  H13X15069   4.776   1.431   9.241  2.1148  0.2503  0.8084
  138SAPE  H13Y15070   4.838   1.548   9.374 -1.7673  1.4075  0.9253
  138SAPE  C31415071   4.771   1.642   9.200 -0.3345 -0.0391 -0.6491
  138SAPE  H14X15072   4.742   1.736   9.251  0.6804  0.6423 -1.2771
  138SAPE  H14Y15073   4.705   1.641   9.111 -1.7060 -1.7560  0.3186
  138SAPE  C31515074   4.923   1.653   9.148  0.1190 -0.9248  0.1813
  138SAPE  H15X15075   4.991   1.698   9.224 -1.0602 -0.1621  0.8154
  138SAPE  H15Y15076   4.921   1.727   9.066  2.4942  0.3191  1.1431
  138SAPE  C31615077   4.981   1.525   9.086  0.0470 -0.1448 -0.2863
  138SAPE  H16X15078   4.983   1.441   9.159 -0.7386  0.7909  0.8596
  138SAPE  H16Y15079   5.086   1.546   9.056 -0.3184  0.7148 -1.0144
  138SAPE  C31715080   4.914   1.470   8.961  0.2311  0.4975 -0.5465
  138SAPE  H17X15081   4.900   1.554   8.889  0.0119  0.7049 -0.2601
  138SAPE  H17Y15082   4.806   1.452   8.980  0.1497  1.3834 -0.1090
  138SAPE  C31815083   4.982   1.352   8.888 -1.1234 -0.1584 -0.1087
  138SAPE  H18X15084   5.081   1.386   8.852 -0.7268  0.7315  1.7140
  138SAPE  H18Y15085   4.909   1.307   8.817 -0.0856 -0.7723 -0.8098
  138SAPE  H18Z15086   4.992   1.274   8.967 -0.9111 -0.0203  0.0009
  139SAPE     N15087   4.328   6.604  10.996  0.1766  0.2410 -0.5918
  139SAPE   HN115088   4.381   6.675  10.943  1.0873 -0.0889 -0.1469
  139SAPE   HN215089   4.373   6.597  11.090 -2.2407 -1.7443  0.5600
  139SAPE   HN315090   4.346   6.513  10.948 -0.1992 -0.5178  0.6475
  139SAPE   C1215091   4.189   6.648  10.993 -0.4739 -0.1507  0.2928
  139SAPE  H12A15092   4.131   6.568  11.043  0.0844  1.7600  4.4414
  139SAPE  H12B15093   4.158   6.655  10.886 -1.5022 -1.6781  0.4699
  139SAPE   C1115094   4.165   6.781  11.054 -0.5792  0.8293  0.2648
  139SAPE  H11A15095   4.190   6.769  11.162  4.0658  1.0295 -0.5916
  139SAPE  H11B15096   4.060   6.811  11.037 -0.5129  0.8497 -0.1159
  139SAPE     P15097   4.238   7.025  11.030 -0.1253  0.0806 -0.1410
  139SAPE   O1315098   4.151   7.047  11.149 -0.1537  0.2908 -0.0368
  139SAPE   O1415099   4.374   7.075  11.031  0.6530 -0.2375  0.4353
  139SAPE   O1215100   4.254   6.874  10.994 -0.1536 -0.1508 -0.2966
  139SAPE   O1115101   4.164   7.086  10.904 -0.0423 -0.2453  0.0211
  139SAPE    C115102   4.115   7.003  10.801  0.3041 -0.7456  0.1687
  139SAPE    HA15103   4.206   6.975  10.744  0.8840 -0.0015  0.7129
  139SAPE    HB15104   4.053   6.914  10.824 -1.7968  0.2979 -1.0680
  139SAPE    C215105   4.024   7.089  10.699 -0.4481  0.0643  0.2566
  139SAPE    HS15106   3.989   7.033  10.610 -0.8900  1.4742 -0.4804
  139SAPE   O2115107   4.102   7.204  10.665  0.1678  0.1844 -0.5999
  139SAPE   C2115108   4.206   7.190  10.593  0.4482 -0.6386 -0.3662
  139SAPE   O2215109   4.245   7.088  10.539  0.2106  0.3488  0.0540
  139SAPE   C2215110   4.281   7.329  10.577  0.6946 -0.6315  0.2603
  139SAPE   H2R15111   4.272   7.383  10.674 -1.0396 -0.5942  0.1161
  139SAPE   H2S15112   4.384   7.301  10.547  1.0219 -0.5094  1.2466
  139SAPE    C315113   3.888   7.125  10.769  0.1440 -0.0044 -0.4382
  139SAPE    HX15114   3.905   7.161  10.873 -2.4262 -0.0421  0.0530
  139SAPE    HY15115   3.823   7.035  10.776 -0.7688  0.5658 -1.2036
  139SAPE   O3115116   3.815   7.227  10.684  0.2338 -0.2413  0.0653
  139SAPE   C3115117   3.842   7.356  10.712 -0.1793  0.1661 -0.0932
  139SAPE   O3215118   3.911   7.395  10.804 -0.0873  0.7607 -0.0857
  139SAPE   C3215119   3.785   7.444  10.606 -0.7509  0.0059  0.2599
  139SAPE   H2X15120   3.678   7.420  10.590 -0.6234  0.7271 -2.0344
  139SAPE   H2Y15121   3.847   7.426  10.516  0.4875  0.9158  0.8966
  139SAPE   C2315122   4.206   7.421  10.472 -0.6817 -0.5228  0.2018
  139SAPE   H3R15123   4.239   7.523  10.501  1.7564 -1.1181 -0.2617
  139SAPE   H3S15124   4.098   7.414  10.494 -0.2533 -1.7477  2.1976
  139SAPE   C2415125   4.232   7.396  10.328  0.9231  0.1820 -0.6354
  139SAPE   H4R15126   4.199   7.292  10.305  0.2904  0.4861 -1.1150
  139SAPE   H4S15127   4.343   7.396  10.320  0.9484 -0.6680 -0.3908
  139SAPE   C2515128   4.176   7.492  10.220  0.0586 -0.2934 -0.3917
  139SAPE   H5R15129   4.071   7.522  10.230 -0.0555 -0.0643 -2.0758
  139SAPE   C2615130   4.238   7.543  10.115  0.1703 -0.9971  0.1026
  139SAPE   H6R15131   4.172   7.597  10.045  1.2624 -0.1205 -0.2729
  139SAPE   C2715132   4.381   7.514  10.062  0.4133 -0.8905  0.0994
  139SAPE   H7R15133   4.440   7.461  10.140  0.6823 -1.3725 -0.4244
  139SAPE   H7S15134   4.433   7.605  10.023 -2.2308  0.0483 -1.5175
  139SAPE   C2815135   4.371   7.417   9.946 -0.6507  0.5129 -0.0946
  139SAPE   H8R15136   4.275   7.362   9.943  0.3628 -1.2875 -1.1273
  139SAPE   C2915137   4.451   7.414   9.835 -0.5408 -0.7492 -0.0836
  139SAPE   H9R15138   4.438   7.359   9.741 -0.4781  0.6790 -0.9590
  139SAPE  C21015139   4.576   7.503   9.834  0.2132  0.6629  0.6803
  139SAPE  H10R15140   4.627   7.490   9.932 -1.0690  0.3551  1.3355
  139SAPE  H10S15141   4.553   7.612   9.834  2.0573  1.1109 -1.2719
  139SAPE  C21115142   4.668   7.477   9.711 -0.0459  0.1880  0.2972
  139SAPE  H11R15143   4.741   7.403   9.745 -0.0884  0.5724  1.2552
  139SAPE  C21215144   4.664   7.524   9.587 -0.9004  0.0255 -0.0014
  139SAPE  H12R15145   4.743   7.495   9.516 -1.7275  3.1622 -2.4046
  139SAPE  C21315146   4.576   7.628   9.518 -0.0743  0.0559 -0.1021
  139SAPE  H13R15147   4.483   7.654   9.572  1.4070  0.3275  2.4936
  139SAPE  H13S15148   4.544   7.591   9.418 -2.7278  3.6470 -0.7692
  139SAPE  C21415149   4.660   7.750   9.510 -0.6294 -0.2754 -0.5693
  139SAPE  H14R15150   4.692   7.793   9.606 -1.0601  0.7545 -0.8764
  139SAPE  C21515151   4.690   7.812   9.396  0.5455  0.0484 -0.5939
  139SAPE  H15R15152   4.763   7.894   9.404 -0.2760  0.6206  1.4816
  139SAPE  C21615153   4.664   7.768   9.252  0.4689 -0.7673 -0.1940
  139SAPE  H16R15154   4.558   7.786   9.225  0.4937 -0.8365 -0.3400
  139SAPE  H16S15155   4.663   7.657   9.244  1.4798 -0.7871 -0.2502
  139SAPE  C21715156   4.755   7.837   9.150 -0.3078  0.5400 -0.2305
  139SAPE  H17R15157   4.860   7.817   9.177 -0.9096 -0.6853  1.3203
  139SAPE  H17S15158   4.738   7.947   9.155  1.4615  0.9286 -1.6401
  139SAPE  C21815159   4.729   7.808   9.006  0.1375 -0.8677 -0.4615
  139SAPE  H18R15160   4.733   7.699   8.983 -1.2945 -0.9844 -0.2838
  139SAPE  H18S15161   4.797   7.867   8.942 -0.2703  0.3191  0.1751
  139SAPE  C21915162   4.583   7.846   8.966 -0.8172  0.5789 -0.6019
  139SAPE  H19R15163   4.560   7.937   9.026 -1.3086  1.1352 -1.6049
  139SAPE  H19S15164   4.514   7.768   9.003  0.2736  1.4630  3.8016
  139SAPE  C22015165   4.566   7.868   8.811  0.2728 -0.1518  0.0921
  139SAPE  H20R15166   4.476   7.928   8.788  1.5878  1.4797 -1.0104
  139SAPE  H20S15167   4.557   7.774   8.752  3.4952  0.8137 -2.1863
  139SAPE  H20T15168   4.641   7.936   8.765 -0.6403  0.1623 -0.9609
  139SAPE   C3315169   3.793   7.595  10.632 -0.1645  0.0044 -0.2052
  139SAPE   H3X15170   3.900   7.618  10.654  0.2650 -3.2337  1.7159
  139SAPE   H3Y15171   3.724   7.617  10.715 -0.5498 -0.6179 -0.3498
  139SAPE   C3415172   3.757   7.670  10.504  0.0421  0.2061  0.2105
  139SAPE   H4X15173   3.823   7.620  10.430  0.3556  2.3821 -1.0436
  139SAPE   H4Y15174   3.785   7.777  10.506 -2.2390  0.8864 -0.8175
  139SAPE   C3515175   3.605   7.661  10.489 -0.1543  0.2657 -0.0909
  139SAPE   H5X15176   3.576   7.710  10.584 -0.4040  0.6469 -0.3641
  139SAPE   H5Y15177   3.573   7.554  10.493  0.3440 -0.0460 -2.6026
  139SAPE   C3615178   3.576   7.722  10.354  0.6624 -0.4885  0.3923
  139SAPE   H6X15179   3.629   7.819  10.347  1.3268 -0.9021 -0.5693
  139SAPE   H6Y15180   3.465   7.731  10.358  0.5978 -0.5397 -0.8200
  139SAPE   C3715181   3.631   7.644  10.237  0.4188 -0.2547  0.1453
  139SAPE   H7X15182   3.604   7.537  10.252 -0.9161  0.0339 -0.1036
  139SAPE   H7Y15183   3.742   7.646  10.246  0.4784  0.2380 -0.6128
  139SAPE   C3815184   3.588   7.714  10.108  0.3334 -0.5325  0.3008
  139SAPE   H8X15185   3.628   7.817  10.108  0.3718 -0.5450  0.6635
  139SAPE   H8Y15186   3.478   7.721  10.112  0.0213 -3.4961 -0.6336
  139SAPE   C3915187   3.631   7.634   9.986  0.2961  0.5132  0.0129
  139SAPE   H9X15188   3.578   7.537   9.979  0.0574  0.6432  0.0218
  139SAPE   H9Y15189   3.742   7.625   9.990  0.1937 -0.9632  0.3108
  139SAPE  C31015190   3.611   7.704   9.844  0.5233  0.5834  0.3586
  139SAPE  H10X15191   3.646   7.809   9.857  2.0755  0.3534 -1.5091
  139SAPE  H10Y15192   3.503   7.710   9.822  0.0488 -1.9985  1.5821
  139SAPE  C31115193   3.681   7.650   9.715 -0.5176 -0.4925 -0.7897
  139SAPE  H11X15194   3.789   7.659   9.736 -0.8935 -1.9155  2.3046
  139SAPE  H11Y15195   3.660   7.708   9.622  2.2815  0.2842 -1.0109
  139SAPE  C31215196   3.645   7.501   9.688  0.5275  0.8646  0.3808
  139SAPE  H12X15197   3.537   7.498   9.661  0.1638  1.3856  1.7206
  139SAPE  H12Y15198   3.660   7.432   9.774  0.8873 -0.0115 -0.3623
  139SAPE  C31315199   3.722   7.433   9.571 -0.3786  0.5378  0.1835
  139SAPE  H13X15200   3.832   7.437   9.588 -0.4315  0.6807  0.5053
  139SAPE  H13Y15201   3.710   7.493   9.478  0.2872  3.0929  1.6412
  139SAPE  C31415202   3.686   7.291   9.525  0.1792  0.6696  0.1287
  139SAPE  H14X15203   3.578   7.272   9.505  0.1356 -0.3031  1.1368
  139SAPE  H14Y15204   3.718   7.211   9.595 -3.5060 -1.8615 -0.8167
  139SAPE  C31515205   3.776   7.253   9.402  0.2495 -0.2629 -0.0984
  139SAPE  H15X15206   3.881   7.257   9.436  0.3537 -2.7717  0.0238
  139SAPE  H15Y15207   3.753   7.328   9.323 -1.6567  0.6082  1.2003
  139SAPE  C31615208   3.752   7.116   9.341 -0.5992 -0.6076  0.4881
  139SAPE  H16X15209   3.801   7.039   9.404 -0.6757 -0.6535  0.4913
  139SAPE  H16Y15210   3.643   7.097   9.350 -0.7585  0.3134  0.5993
  139SAPE  C31715211   3.780   7.110   9.191 -0.1324  0.6870  0.3731
  139SAPE  H17X15212   3.889   7.122   9.175 -0.1575  0.3745 -0.0503
  139SAPE  H17Y15213   3.725   7.191   9.138  1.8346  2.1267  0.4197
  139SAPE  C31815214   3.745   6.972   9.121  0.3486 -1.1329 -0.4290
  139SAPE  H18X15215   3.827   6.904   9.153  0.6977  0.1620  1.5833
  139SAPE  H18Y15216   3.746   6.973   9.009  0.2811 -0.4368 -0.4256
  139SAPE  H18Z15217   3.644   6.931   9.144  0.6723 -1.5013  0.3422
  140SAPE     N15218   2.059   0.763  10.859 -0.1917 -0.0755 -0.7910
  140SAPE   HN115219   2.047   0.705  10.944  0.6622  2.2305  1.0235
  140SAPE   HN215220   2.158   0.765  10.828  1.1769  0.8510  3.0332
  140SAPE   HN315221   2.038   0.856  10.901 -0.3335 -0.7994  0.8090
  140SAPE   C1215222   1.966   0.741  10.748  0.0751  0.6215  0.3879
  140SAPE  H12A15223   1.987   0.641  10.705  0.6515  0.2007  1.5767
  140SAPE  H12B15224   1.984   0.816  10.668  2.4219  2.2948  2.3186
  140SAPE   C1115225   1.822   0.752  10.791 -0.6978 -0.3194  0.3208
  140SAPE  H11A15226   1.811   0.684  10.878  1.8084 -0.4798  0.6030
  140SAPE  H11B15227   1.763   0.717  10.704 -0.3381  0.0342 -0.0730
  140SAPE     P15228   1.719   0.994  10.747 -0.0796  0.2080 -0.1488
  140SAPE   O1315229   1.589   0.935  10.712  0.2967 -0.4379  0.0338
  140SAPE   O1415230   1.720   1.118  10.818 -0.3491 -0.1379  0.1162
  140SAPE   O1215231   1.791   0.890  10.831 -0.0678 -0.0083  0.0021
  140SAPE   O1115232   1.803   1.019  10.612  0.0907 -0.1011  0.3763
  140SAPE    C115233   1.923   1.089  10.609  0.0625  1.0251  0.4183
  140SAPE    HA15234   1.961   1.133  10.704 -1.7602  2.2093  0.6424
  140SAPE    HB15235   1.999   1.019  10.568  0.3171  1.7405 -0.3551
  140SAPE    C215236   1.908   1.207  10.511 -0.4223  0.1550 -0.0434
  140SAPE    HS15237   1.821   1.270  10.537 -0.7730 -0.2998 -0.1092
  140SAPE   O2115238   1.904   1.163  10.375  0.4551 -0.0835  0.3888
  140SAPE   C2115239   1.780   1.168  10.322 -0.0244  0.4880  0.0172
  140SAPE   O2215240   1.683   1.199  10.383  0.0028  0.1342  0.5215
  140SAPE   C2215241   1.797   1.146  10.173  0.4450  0.2948 -0.3735
  140SAPE   H2R15242   1.838   1.241  10.133  1.9668 -0.4750 -0.7305
  140SAPE   H2S15243   1.864   1.059  10.155 -0.0578 -0.1249 -0.2297
  140SAPE    C315244   2.021   1.312  10.535 -0.4346 -0.1753 -0.6081
  140SAPE    HX15245   2.116   1.255  10.527  0.5333  1.3709 -0.5561
  140SAPE    HY15246   1.999   1.348  10.637 -1.1000  0.6840 -1.0408
  140SAPE   O3115247   2.028   1.415  10.436 -0.4493 -0.8316  0.0394
  140SAPE   C3115248   1.935   1.510  10.448 -0.3028  0.4347 -0.0931
  140SAPE   O3215249   1.872   1.537  10.549  0.3110  0.2367  0.1724
  140SAPE   C3215250   1.919   1.591  10.317  0.0567 -0.2746 -0.0988
  140SAPE   H2X15251   2.014   1.641  10.290  0.4605 -0.4450  0.9585
  140SAPE   H2Y15252   1.845   1.672  10.334 -0.0773  0.4126 -3.2123
  140SAPE   C2315253   1.661   1.129  10.104  0.4692  0.5024  0.3415
  140SAPE   H3R15254   1.617   1.230  10.118 -0.2689  0.1020  0.9642
  140SAPE   H3S15255   1.602   1.061  10.168 -0.1421  1.0365  0.3630
  140SAPE   C2415256   1.671   1.091   9.949  0.4716  0.1812  0.4292
  140SAPE   H4R15257   1.737   1.162   9.895  0.5168 -0.2761 -0.1275
  140SAPE   H4S15258   1.573   1.107   9.898  0.5691 -1.3207 -0.2785
  140SAPE   C2515259   1.710   0.952   9.930  0.0717  0.5733  0.0311
  140SAPE   H5R15260   1.782   0.918  10.006 -1.0460  1.7445  1.6864
  140SAPE   C2615261   1.691   0.874   9.820  0.6152 -0.0956 -0.3056
  140SAPE   H6R15262   1.740   0.776   9.822 -0.0136 -0.4597 -1.4668
  140SAPE   C2715263   1.616   0.914   9.701 -0.1335  0.8725 -0.1414
  140SAPE   H7R15264   1.556   1.008   9.707 -0.9022  0.3523  0.6259
  140SAPE   H7S15265   1.539   0.838   9.674  1.3834 -1.2989  1.3107
  140SAPE   C2815266   1.706   0.911   9.581  0.4599 -0.0452 -0.1637
  140SAPE   H8R15267   1.803   0.861   9.595  1.0029  1.2137  0.8304
  140SAPE   C2915268   1.678   0.965   9.457  0.0867 -0.5744 -0.8803
  140SAPE   H9R15269   1.755   0.939   9.384  0.9236 -2.2835  0.5360
  140SAPE  C21015270   1.561   1.039   9.399  0.2214 -0.2336  0.5284
  140SAPE  H10R15271   1.489   1.052   9.482  1.2418 -0.5507  1.4785
  140SAPE  H10S15272   1.509   0.981   9.319 -0.0760  0.5964  0.1069
  140SAPE  C21115273   1.604   1.172   9.343 -0.8485  0.0669  0.2471
  140SAPE  H11R15274   1.585   1.258   9.410 -3.7033  0.9947 -1.5735
  140SAPE  C21215275   1.647   1.190   9.222  0.0341  0.0244  0.7515
  140SAPE  H12R15276   1.682   1.292   9.201  2.0884 -0.6287  0.7867
  140SAPE  C21315277   1.670   1.089   9.116  0.1831 -0.5305 -0.2618
  140SAPE  H13R15278   1.724   1.004   9.162 -1.9009 -2.1555 -0.6672
  140SAPE  H13S15279   1.744   1.140   9.051 -0.7726  0.9795 -0.2332
  140SAPE  C21415280   1.548   1.039   9.038 -0.4121  0.5644  0.2302
  140SAPE  H14R15281   1.454   1.058   9.092  0.4598  0.8954  1.6964
  140SAPE  C21515282   1.550   0.995   8.911 -0.6793 -0.7956  0.2604
  140SAPE  H15R15283   1.456   0.968   8.861  0.2923 -1.6047 -1.2026
  140SAPE  C21615284   1.670   0.956   8.819  0.1814  0.4355 -0.4110
  140SAPE  H16R15285   1.658   0.847   8.802 -1.1735  0.0378  2.4858
  140SAPE  H16S15286   1.765   0.967   8.876 -0.2924  1.7922  0.1546
  140SAPE  C21715287   1.686   1.037   8.693 -0.1241  0.1647 -0.0531
  140SAPE  H17R15288   1.594   1.041   8.631 -0.8866  0.6986  1.0776
  140SAPE  H17S15289   1.766   0.985   8.636 -1.2383 -1.7688  0.0483
  140SAPE  C21815290   1.753   1.177   8.702 -0.6693  0.1012  0.1718
  140SAPE  H18R15291   1.834   1.178   8.778 -0.9205  2.2355  0.4733
  140SAPE  H18S15292   1.680   1.261   8.711 -0.7381 -0.0023  0.6173
  140SAPE  C21915293   1.830   1.204   8.576  0.2347  0.2103  0.2239
  140SAPE  H19R15294   1.851   1.311   8.556  2.2159 -0.4714 -1.8565
  140SAPE  H19S15295   1.780   1.166   8.484  0.7176  0.0607  0.0213
  140SAPE  C22015296   1.973   1.141   8.576 -0.2867 -0.1850  0.0478
  140SAPE  H20R15297   1.963   1.034   8.605 -3.7660  0.0221  0.0662
  140SAPE  H20S15298   2.043   1.198   8.641  0.4637 -0.0016 -0.9020
  140SAPE  H20T15299   2.024   1.148   8.478  1.0272 -0.6794  0.6679
  140SAPE   C3315300   1.879   1.506  10.193 -0.4064 -0.5425 -0.0978
  140SAPE   H3X15301   1.777   1.464  10.204 -1.0622  0.6282 -1.4685
  140SAPE   H3Y15302   1.951   1.422  10.185  1.1182  0.6784  0.2714
  140SAPE   C3415303   1.874   1.577  10.059  0.0046 -0.1717  0.0689
  140SAPE   H4X15304   1.962   1.645  10.054 -0.8446  0.9190 -0.2285
  140SAPE   H4Y15305   1.779   1.633  10.045  0.7874  0.9126 -1.1824
  140SAPE   C3515306   1.873   1.494   9.930  0.0965  0.1693 -0.7654
  140SAPE   H5X15307   1.825   1.394   9.938 -0.5107  0.4257 -1.1359
  140SAPE   H5Y15308   1.982   1.475   9.919  0.6613  3.2334 -1.3163
  140SAPE   C3615309   1.841   1.569   9.804  0.3716 -0.3665  0.3173
  140SAPE   H6X15310   1.904   1.660   9.794  0.5222 -0.7084 -3.1055
  140SAPE   H6Y15311   1.735   1.600   9.813  0.5925  0.2757  0.7888
  140SAPE   C3715312   1.852   1.484   9.679  0.4201 -0.0466 -0.5194
  140SAPE   H7X15313   1.783   1.396   9.677  0.1832  0.1484 -1.3842
  140SAPE   H7Y15314   1.954   1.444   9.660 -0.3238 -0.7757 -3.4018
  140SAPE   C3815315   1.824   1.567   9.555  0.1557  0.1849 -0.1013
  140SAPE   H8X15316   1.893   1.653   9.565 -0.1151  0.3370  0.5282
  140SAPE   H8Y15317   1.720   1.606   9.553  0.2015  0.2801 -2.4239
  140SAPE   C3915318   1.848   1.485   9.428  0.3989 -0.6238 -0.4792
  140SAPE   H9X15319   1.765   1.414   9.409  0.1970 -0.2954 -0.8293
  140SAPE   H9Y15320   1.949   1.440   9.441  2.4316  3.4703 -0.6270
  140SAPE  C31015321   1.871   1.569   9.300 -0.0270  0.0775  0.2344
  140SAPE  H10X15322   1.938   1.655   9.321  0.1982  0.5819 -2.1861
  140SAPE  H10Y15323   1.773   1.610   9.268  1.2980  2.5641 -0.9601
  140SAPE  C31115324   1.924   1.478   9.182 -0.1095  0.0111  0.2649
  140SAPE  H11X15325   1.851   1.396   9.167  0.8532 -1.2718  2.2060
  140SAPE  H11Y15326   2.011   1.418   9.214  1.4228  1.0449 -1.7052
  140SAPE  C31215327   1.971   1.546   9.050  0.1366  0.8081  0.1480
  140SAPE  H12X15328   2.070   1.593   9.070  0.6855 -0.6461  1.0684
  140SAPE  H12Y15329   1.897   1.627   9.036  0.3507  0.7159 -1.8809
  140SAPE  C31315330   1.961   1.453   8.931  0.1260 -0.2258  0.7865
  140SAPE  H13X15331   1.857   1.415   8.931 -0.0031  0.0246 -0.9841
  140SAPE  H13Y15332   2.035   1.374   8.953  1.1887  1.1394  2.3735
  140SAPE  C31415333   2.002   1.513   8.791 -0.0963  0.3717 -0.2201
  140SAPE  H14X15334   1.930   1.594   8.765  1.3843  2.2404  1.2217
  140SAPE  H14Y15335   1.990   1.429   8.719  1.3590 -0.9596  1.0142
  140SAPE  C31515336   2.139   1.583   8.793  0.1338  0.0045  0.2426
  140SAPE  H15X15337   2.224   1.514   8.817  1.7235  2.0375  0.7155
  140SAPE  H15Y15338   2.137   1.654   8.878 -1.0690  0.4905 -0.1734
  140SAPE  C31615339   2.173   1.660   8.668  0.0905 -0.0454  0.0354
  140SAPE  H16X15340   2.091   1.732   8.649 -0.4698 -0.6815  0.0189
  140SAPE  H16Y15341   2.175   1.597   8.577 -0.3727  0.0340 -0.0285
  140SAPE  C31715342   2.304   1.747   8.673 -0.5703 -0.0491  0.3268
  140SAPE  H17X15343   2.373   1.686   8.735 -2.9640 -1.0459  2.1775
  140SAPE  H17Y15344   2.296   1.846   8.723  1.3674  0.9713 -1.2392
  140SAPE  C31815345   2.371   1.766   8.540 -0.2665 -0.6947  0.6193
  140SAPE  H18X15346   2.438   1.853   8.553 -1.2457  0.0597  0.7668
  140SAPE  H18Y15347   2.295   1.796   8.465  0.8588 -0.5342 -0.4807
  140SAPE  H18Z15348   2.419   1.671   8.508 -0.0201  0.3289 -2.3098
  141SAPE     N15349   3.242   5.197  10.771  0.3475  0.2492  0.2506
  141SAPE   HN115350   3.233   5.278  10.706 -1.0925  0.5949  0.8512
  141SAPE   HN215351   3.148   5.152  10.765 -0.0350  0.8101  1.6556
  141SAPE   HN315352   3.246   5.215  10.873 -0.9791  0.7797  0.2290
  141SAPE   C1215353   3.352   5.111  10.724 -0.1847  0.1850  0.6129
  141SAPE  H12A15354   3.379   5.040  10.805  1.8477  0.0383 -0.1339
  141SAPE  H12B15355   3.436   5.180  10.703  2.1896 -3.2949 -2.7114
  141SAPE   C1115356   3.317   5.038  10.598 -0.4361  0.1468 -0.3818
  141SAPE  H11A15357   3.405   5.000  10.543 -1.5046  2.3679 -3.9608
  141SAPE  H11B15358   3.281   5.116  10.527  0.5218  0.1196 -0.9068
  141SAPE     P15359   3.066   4.946  10.569  0.0906 -0.0846 -0.3567
  141SAPE   O1315360   2.997   4.819  10.592  0.6422  0.9739  0.4374
  141SAPE   O1415361   3.007   5.063  10.640  0.2163 -0.7396  0.8886
  141SAPE   O1215362   3.214   4.933  10.614  0.5006  0.0767 -0.4017
  141SAPE   O1115363   3.079   4.981  10.413  0.0703 -0.0113  0.4943
  141SAPE    C115364   3.018   5.107  10.371  0.2248  0.6416  0.0756
  141SAPE    HA15365   2.914   5.081  10.340  0.4077 -0.7445  0.5357
  141SAPE    HB15366   3.008   5.187  10.448  0.2460 -0.5299  1.3445
  141SAPE    C215367   3.083   5.164  10.243 -0.6872 -0.1905  0.4469
  141SAPE    HS15368   3.006   5.226  10.193 -3.7725 -4.0951 -0.1436
  141SAPE   O2115369   3.142   5.067  10.146  0.6651 -0.1994  0.3663
  141SAPE   C2115370   3.061   4.985  10.093 -0.2489 -0.4275  0.6363
  141SAPE   O2215371   2.939   4.984  10.101 -0.1560  0.2564 -0.0536
  141SAPE   C2215372   3.142   4.891  10.001  0.2148 -0.4885 -0.2651
  141SAPE   H2R15373   3.218   4.841  10.064 -0.0611 -1.4836 -0.7098
  141SAPE   H2S15374   3.077   4.811   9.959  0.8225 -1.4357  0.5668
  141SAPE    C315375   3.194   5.263  10.287 -0.1735 -0.3598 -0.2953
  141SAPE    HX15376   3.264   5.207  10.352  0.3341 -0.5792 -1.0245
  141SAPE    HY15377   3.149   5.343  10.350  2.5820  0.0030  1.3951
  141SAPE   O3115378   3.260   5.332  10.179  0.0123  0.7287  0.2076
  141SAPE   C3115379   3.387   5.305  10.152 -0.0019 -0.7588 -0.3857
  141SAPE   O3215380   3.456   5.215  10.199  0.6175  0.6773  0.1050
  141SAPE   C3215381   3.434   5.399  10.043 -1.1086  0.1708  0.5028
  141SAPE   H2X15382   3.479   5.488  10.092  0.4807 -0.9050  1.0915
  141SAPE   H2Y15383   3.344   5.428   9.984 -2.1676  0.1541  2.0635
  141SAPE   C2315384   3.207   4.977   9.886  0.6099 -0.1925 -0.4545
  141SAPE   H3R15385   3.276   5.046   9.940 -0.7617 -0.0989  1.2930
  141SAPE   H3S15386   3.125   5.040   9.845 -0.6484 -1.2138  0.4093
  141SAPE   C2415387   3.285   4.908   9.774  0.4503 -0.0574 -0.8659
  141SAPE   H4R15388   3.213   4.839   9.724  0.1465  0.1180 -0.6706
  141SAPE   H4S15389   3.351   4.835   9.825  2.4874  1.2065 -1.5679
  141SAPE   C2515390   3.367   4.998   9.680 -0.4677  0.0038  0.6952
  141SAPE   H5R15391   3.455   5.028   9.738  0.4390 -1.7277  0.2810
  141SAPE   C2615392   3.360   5.023   9.548  0.6395  0.4907 -0.1235
  141SAPE   H6R15393   3.439   5.077   9.494  1.9141 -0.8320  0.3686
  141SAPE   C2715394   3.251   4.968   9.459  0.8631 -0.2747 -0.0753
  141SAPE   H7R15395   3.159   4.955   9.519  2.8354  0.1882  3.3705
  141SAPE   H7S15396   3.272   4.861   9.437 -2.1849 -1.1986  1.0198
  141SAPE   C2815397   3.223   5.045   9.324 -0.5420  0.2500 -0.5852
  141SAPE   H8R15398   3.154   5.130   9.334  0.4738  1.0118  0.1378
  141SAPE   C2915399   3.273   5.024   9.205 -0.1134  0.0871  0.8250
  141SAPE   H9R15400   3.226   5.083   9.125 -1.1651  0.1599  1.4805
  141SAPE  C21015401   3.376   4.922   9.171 -0.3414  0.1463  0.1911
  141SAPE  H10R15402   3.322   4.827   9.150 -0.2605 -0.2416  1.6135
  141SAPE  H10S15403   3.435   4.894   9.261  1.5604  1.3904 -0.6049
  141SAPE  C21115404   3.460   4.967   9.053  0.4723  0.2528  0.6106
  141SAPE  H11R15405   3.538   5.032   9.095  0.5662  0.2713  0.4086
  141SAPE  C21215406   3.454   4.924   8.929  0.1931  0.1005 -0.2877
  141SAPE  H12R15407   3.517   4.976   8.855  0.9973 -0.5519 -0.0654
  141SAPE  C21315408   3.367   4.826   8.861 -0.1602  0.7317 -0.7393
  141SAPE  H13R15409   3.288   4.794   8.933  1.6393 -0.8333  0.6473
  141SAPE  H13S15410   3.418   4.732   8.834  1.1529  1.6073 -1.4065
  141SAPE  C21415411   3.307   4.877   8.732  0.0318 -0.9215 -0.4706
  141SAPE  H14R15412   3.197   4.878   8.735  0.0407 -0.2352 -0.2457
  141SAPE  C21515413   3.371   4.908   8.617 -0.5835  0.7988 -0.1207
  141SAPE  H15R15414   3.316   4.942   8.529 -1.3188 -2.3549 -1.0104
  141SAPE  C21615415   3.517   4.893   8.592  0.3886  0.5932  0.2746
  141SAPE  H16R15416   3.542   4.814   8.518  1.9655 -1.0450  2.4323
  141SAPE  H16S15417   3.555   4.854   8.688 -1.0757  1.3053  1.1702
  141SAPE  C21715418   3.579   5.024   8.539  0.2024  0.0394 -0.0196
  141SAPE  H17R15419   3.563   5.103   8.616 -1.7571 -1.9215  1.7298
  141SAPE  H17S15420   3.537   5.064   8.445  0.2703  1.3178  0.4679
  141SAPE  C21815421   3.735   5.023   8.520 -0.0560 -0.3615 -0.2723
  141SAPE  H18R15422   3.766   4.954   8.438  2.7775 -1.1322  1.2909
  141SAPE  H18S15423   3.785   4.974   8.606  2.8297  1.8668 -0.5349
  141SAPE  C21915424   3.806   5.154   8.487 -0.3430 -0.1682 -0.2784
  141SAPE  H19R15425   3.915   5.150   8.506 -0.4781 -1.1410  0.3519
  141SAPE  H19S15426   3.772   5.238   8.552 -0.5148 -0.3949 -0.0749
  141SAPE  C22015427   3.792   5.186   8.331  0.3055  0.7744  0.1439
  141SAPE  H20R15428   3.830   5.288   8.309  0.4948  0.4186 -1.2458
  141SAPE  H20S15429   3.693   5.168   8.285 -0.2481  0.0288  1.5360
  141SAPE  H20T15430   3.851   5.108   8.278 -0.7573  0.5436 -0.7452
  141SAPE   C3315431   3.538   5.334   9.943 -0.1732 -0.0436 -0.3710
  141SAPE   H3X15432   3.510   5.230   9.916 -2.8783  1.0264 -2.1505
  141SAPE   H3Y15433   3.633   5.319   9.998  1.3423  0.1404 -2.8009
  141SAPE   C3415434   3.552   5.411   9.817  0.0507 -0.0439 -0.3005
  141SAPE   H4X15435   3.660   5.401   9.792  0.2022 -0.5919  0.5075
  141SAPE   H4Y15436   3.525   5.517   9.836  0.4189 -0.3166  2.0404
  141SAPE   C3515437   3.467   5.359   9.700  0.1202 -1.1912  0.8012
  141SAPE   H5X15438   3.357   5.370   9.708  0.1323 -0.7135  0.4129
  141SAPE   H5Y15439   3.478   5.250   9.685  2.9517 -0.5969 -2.8940
  141SAPE   C3615440   3.508   5.430   9.571  0.6027 -0.0488 -0.0750
  141SAPE   H6X15441   3.614   5.411   9.541 -0.0727 -2.6004 -1.0612
  141SAPE   H6Y15442   3.501   5.540   9.585  0.6549 -0.1287  0.6158
  141SAPE   C3715443   3.413   5.392   9.456  0.6159 -0.3993  1.4461
  141SAPE   H7X15444   3.308   5.420   9.481 -0.0461 -1.2676 -0.2267
  141SAPE   H7Y15445   3.413   5.281   9.462  1.0687 -0.4363  0.9092
  141SAPE   C3815446   3.478   5.445   9.337  0.3704 -0.2454  0.0064
  141SAPE   H8X15447   3.576   5.394   9.323 -0.1807 -1.3454  0.0779
  141SAPE   H8Y15448   3.499   5.554   9.349 -1.7907  0.2784 -0.5801
  141SAPE   C3915449   3.409   5.410   9.205  0.4030 -0.2132  0.2494
  141SAPE   H9X15450   3.324   5.481   9.196  0.6008 -0.1805 -1.9015
  141SAPE   H9Y15451   3.376   5.305   9.198 -2.0063  0.5290 -0.4574
  141SAPE  C31015452   3.501   5.434   9.086 -0.6198  0.3657 -0.1238
  141SAPE  H10X15453   3.574   5.350   9.086 -1.4484 -0.3708  0.2482
  141SAPE  H10Y15454   3.548   5.534   9.101  0.5785 -0.2301  0.2630
  141SAPE  C31115455   3.429   5.433   8.951 -0.1480  0.4623 -0.2257
  141SAPE  H11X15456   3.492   5.469   8.867 -1.4798  0.5153 -1.2509
  141SAPE  H11Y15457   3.340   5.498   8.965  0.6420  1.6615 -0.6438
  141SAPE  C31215458   3.380   5.285   8.906 -0.3001  0.4413 -0.2049
  141SAPE  H12X15459   3.282   5.266   8.956  0.5156  1.2142  1.8053
  141SAPE  H12Y15460   3.455   5.207   8.931  0.1981  0.8114 -0.5156
  141SAPE  C31315461   3.359   5.268   8.758  0.2834 -0.2436  0.0855
  141SAPE  H13X15462   3.349   5.159   8.739 -2.6356 -0.2144  0.9381
  141SAPE  H13Y15463   3.445   5.299   8.695 -0.3642  1.8190  0.1439
  141SAPE  C31415464   3.234   5.345   8.704 -0.0183 -0.0711  0.2320
  141SAPE  H14X15465   3.246   5.455   8.706 -0.1741  0.0791 -2.4948
  141SAPE  H14Y15466   3.137   5.322   8.755  0.7042  0.2451  1.7928
  141SAPE  C31515467   3.221   5.309   8.558  0.4447 -0.8715 -0.3342
  141SAPE  H15X15468   3.196   5.202   8.540  0.7831 -1.0106  0.0210
  141SAPE  H15Y15469   3.315   5.324   8.499  0.8078 -0.2783  0.3756
  141SAPE  C31615470   3.125   5.400   8.488 -1.1473  1.1678  0.4016
  141SAPE  H16X15471   3.129   5.508   8.512  0.3664  1.2041  0.0711
  141SAPE  H16Y15472   3.026   5.352   8.500 -0.3121 -1.4850 -2.0759
  141SAPE  C31715473   3.156   5.397   8.329  0.0752 -0.4028  0.5856
  141SAPE  H17X15474   3.160   5.290   8.299  0.4416 -0.0667 -0.6355
  141SAPE  H17Y15475   3.258   5.432   8.302  0.7417 -2.9747 -0.6120
  141SAPE  C31815476   3.045   5.469   8.247  1.1569 -0.0069 -0.3509
  141SAPE  H18X15477   3.056   5.578   8.265  0.3805 -0.0800  0.6765
  141SAPE  H18Y15478   2.941   5.440   8.275  1.3769  0.6769  1.3285
  141SAPE  H18Z15479   3.059   5.452   8.139  1.2894  2.4036 -0.7644
  142SAPE     N15480   2.946   4.642  10.821 -0.0259  0.4561 -0.0755
  142SAPE   HN115481   2.934   4.560  10.759  0.9451 -0.3939  0.8192
  142SAPE   HN215482   2.865   4.659  10.883  0.9120  0.5405  1.1741
  142SAPE   HN315483   2.944   4.716  10.748 -2.6253 -0.3165 -0.8891
  142SAPE   C1215484   3.075   4.642  10.895 -0.2562  0.0884 -0.6970
  142SAPE  H12A15485   3.067   4.589  10.992  3.3370  1.3984  0.4662
  142SAPE  H12B15486   3.108   4.748  10.905  1.0185 -0.1974 -1.5933
  142SAPE   C1115487   3.172   4.558  10.804  0.2472  0.4944  0.5216
  142SAPE  H11A15488   3.278   4.579  10.831  0.7879 -0.2976 -0.8811
  142SAPE  H11B15489   3.158   4.593  10.700 -3.0207 -0.1569  0.6580
  142SAPE     P15490   3.211   4.288  10.795  0.1236  0.1299 -0.6118
  142SAPE   O1315491   3.329   4.287  10.883 -0.1378  0.7584  0.5624
  142SAPE   O1415492   3.113   4.179  10.836 -0.1953  0.2612  0.4567
  142SAPE   O1215493   3.133   4.423  10.790 -0.4480 -0.2373 -0.4637
  142SAPE   O1115494   3.256   4.278  10.644  0.0564  0.5180 -0.7112
  142SAPE    C115495   3.165   4.326  10.542 -0.0684  0.1293  0.0187
  142SAPE    HA15496   3.066   4.277  10.555  0.0841  0.1006  1.2375
  142SAPE    HB15497   3.154   4.436  10.531  0.0524  0.0162 -1.3393
  142SAPE    C215498   3.198   4.268  10.397 -0.3243 -0.0655  0.5423
  142SAPE    HS15499   3.127   4.304  10.319  1.9095  0.6007 -1.2837
  142SAPE   O2115500   3.216   4.127  10.406  0.0857 -0.1073 -0.1486
  142SAPE   C2115501   3.146   4.062  10.321  0.6170  0.0896 -0.2383
  142SAPE   O2215502   3.051   4.100  10.260 -0.0073  0.1684 -0.6488
  142SAPE   C2215503   3.206   3.921  10.314  0.0366  0.0758  0.3165
  142SAPE   H2R15504   3.303   3.930  10.260 -0.1259  1.5488  0.2338
  142SAPE   H2S15505   3.235   3.897  10.419 -1.6279  0.2782  0.8434
  142SAPE    C315506   3.344   4.314  10.364  0.7113 -0.3802  0.0342
  142SAPE    HX15507   3.417   4.290  10.444 -0.6810  0.0227  1.4734
  142SAPE    HY15508   3.336   4.425  10.363 -0.4852 -0.4492 -0.8326
  142SAPE   O3115509   3.376   4.264  10.234 -0.1622  0.0077 -0.3323
  142SAPE   C3115510   3.465   4.168  10.238  0.1471  0.5539 -0.3666
  142SAPE   O3215511   3.517   4.117  10.336 -0.2719 -0.7216  0.4791
  142SAPE   C3215512   3.458   4.101  10.095  0.6999 -0.2789  0.2236
  142SAPE   H2X15513   3.470   4.187  10.025 -3.3863 -0.3417 -0.8396
  142SAPE   H2Y15514   3.366   4.043  10.072  0.7485  0.5792 -2.5155
  142SAPE   C2315515   3.116   3.819  10.237  0.4083 -0.1552 -0.6111
  142SAPE   H3R15516   3.087   3.835  10.131  0.5757 -1.3443 -0.8552
  142SAPE   H3S15517   3.017   3.824  10.289  2.0499  0.8561  2.7119
  142SAPE   C2415518   3.162   3.674  10.247 -0.6939  0.7715 -0.4739
  142SAPE   H4R15519   3.196   3.652  10.351  2.6762 -2.5597 -2.0294
  142SAPE   H4S15520   3.255   3.669  10.188  0.1569  2.0281  0.6827
  142SAPE   C2515521   3.053   3.578  10.215  0.1482  0.7804 -0.0333
  142SAPE   H5R15522   2.996   3.530  10.296 -0.7535  1.5280 -0.2075
  142SAPE   C2615523   3.007   3.548  10.090 -0.6430 -0.7333 -0.7423
  142SAPE   H6R15524   2.924   3.476  10.087 -1.7842  0.3903  1.5109
  142SAPE   C2715525   3.051   3.606   9.959  0.0876 -0.4376 -0.6020
  142SAPE   H7R15526   3.145   3.664   9.973 -0.6879  0.9439 -0.8587
  142SAPE   H7S15527   2.978   3.683   9.924 -0.8676  0.2851  2.6725
  142SAPE   C2815528   3.074   3.492   9.857 -0.7154 -0.8304 -0.3058
  142SAPE   H8R15529   3.114   3.403   9.907  1.6313  0.6182  0.5601
  142SAPE   C2915530   3.042   3.482   9.728  0.5849  0.3125 -0.4743
  142SAPE   H9R15531   3.081   3.391   9.679 -0.8891 -0.7048  0.1835
  142SAPE  C21015532   2.966   3.578   9.638 -0.3384 -0.0295  0.2746
  142SAPE  H10R15533   2.925   3.671   9.683 -1.4984 -0.6734  0.5886
  142SAPE  H10S15534   2.876   3.527   9.599 -1.5318  1.8459  0.4060
  142SAPE  C21115535   3.059   3.617   9.525  0.1431 -0.2120  0.5018
  142SAPE  H11R15536   3.164   3.616   9.555  0.2586 -1.2306  0.0806
  142SAPE  C21215537   3.030   3.646   9.397 -0.3095  0.6892  0.7606
  142SAPE  H12R15538   3.110   3.664   9.324  0.5409  2.0602  1.9688
  142SAPE  C21315539   2.889   3.637   9.338 -0.5254  0.4265 -0.5241
  142SAPE  H13R15540   2.865   3.725   9.274 -0.1578 -0.5564 -2.0574
  142SAPE  H13S15541   2.808   3.647   9.414  0.2174  0.4106  0.2776
  142SAPE  C21415542   2.870   3.508   9.256  0.6097 -0.1036 -0.0199
  142SAPE  H14R15543   2.812   3.427   9.301  0.7033  0.4065  1.0433
  142SAPE  C21515544   2.918   3.489   9.130 -0.0788 -0.2968 -0.0253
  142SAPE  H15R15545   2.906   3.395   9.074  2.5073  1.1079 -3.2625
  142SAPE  C21615546   3.002   3.581   9.056  0.0837  0.4279 -0.0142
  142SAPE  H16R15547   3.110   3.561   9.071  0.6332  2.9500 -0.0989
  142SAPE  H16S15548   2.984   3.684   9.095 -0.3380  0.3175  0.0881
  142SAPE  C21715549   2.969   3.594   8.905 -0.2917 -0.0557 -0.2949
  142SAPE  H17R15550   3.026   3.684   8.871  2.1655 -0.9695  1.0949
  142SAPE  H17S15551   2.859   3.604   8.898 -0.3628 -1.8296 -2.4626
  142SAPE  C21815552   3.011   3.467   8.822 -0.1956 -0.7578  0.5002
  142SAPE  H18R15553   2.958   3.480   8.725 -0.1613  2.3737  0.8198
  142SAPE  H18S15554   2.959   3.386   8.878 -1.2857 -0.3979  0.0368
  142SAPE  C21915555   3.162   3.444   8.803  0.4563  0.0102 -0.3670
  142SAPE  H19R15556   3.173   3.336   8.779 -1.2132 -0.1856 -0.3145
  142SAPE  H19S15557   3.212   3.473   8.898  0.6528 -2.0181  0.2092
  142SAPE  C22015558   3.235   3.506   8.685 -0.0891  0.2016 -0.1534
  142SAPE  H20R15559   3.202   3.473   8.584  0.5543 -1.2642  0.0900
  142SAPE  H20S15560   3.342   3.476   8.692  0.0283  0.7440  0.5244
  142SAPE  H20T15561   3.225   3.616   8.690  1.0341  0.3305 -0.6231
  142SAPE   C3315562   3.569   4.004  10.075 -0.4094  0.9647  0.3848
  142SAPE   H3X15563   3.668   4.046  10.103  0.7231 -0.9394 -0.5481
  142SAPE   H3Y15564   3.583   3.995   9.965 -0.6548  0.7042  0.3725
  142SAPE   C3415565   3.542   3.864  10.135 -0.0543  0.7536 -0.5870
  142SAPE   H4X15566   3.447   3.828  10.092 -1.8168  0.2286  3.2653
  142SAPE   H4Y15567   3.527   3.870  10.245 -1.2683 -1.2049 -0.6020
  142SAPE   C3515568   3.647   3.754  10.113  0.0209 -0.2884 -0.1301
  142SAPE   H5X15569   3.627   3.667  10.180 -1.6509 -0.9646 -1.4336
  142SAPE   H5Y15570   3.743   3.801  10.143 -0.8963  0.1476  2.3546
  142SAPE   C3615571   3.663   3.705   9.971  0.0438  0.7146 -0.1461
  142SAPE   H6X15572   3.662   3.799   9.911 -2.6471  1.1378  0.4467
  142SAPE   H6Y15573   3.581   3.640   9.933  0.7779 -1.1054  1.2507
  142SAPE   C3715574   3.802   3.632   9.946  0.3658 -0.1413 -0.7487
  142SAPE   H7X15575   3.788   3.528   9.982 -4.2850  1.2076  2.2390
  142SAPE   H7Y15576   3.872   3.697  10.002  0.7477  0.2414 -1.6464
  142SAPE   C3815577   3.832   3.625   9.793  0.3766  0.0215 -0.1272
  142SAPE   H8X15578   3.939   3.610   9.768  0.4527 -0.9275  0.6961
  142SAPE   H8Y15579   3.812   3.726   9.752 -1.0604  0.8150  2.3027
  142SAPE   C3915580   3.746   3.510   9.723  0.6886  0.1992 -0.0153
  142SAPE   H9X15581   3.643   3.520   9.762  0.8329  0.7370  0.2503
  142SAPE   H9Y15582   3.787   3.409   9.740  1.0623  0.2355 -0.6329
  142SAPE  C31015583   3.735   3.545   9.566 -0.0298  0.0417 -0.0292
  142SAPE  H10X15584   3.832   3.581   9.526  0.4753 -0.0140  1.1151
  142SAPE  H10Y15585   3.669   3.634   9.550 -0.0171  0.6223  2.7122
  142SAPE  C31115586   3.694   3.424   9.485  0.2944 -0.0345 -0.1461
  142SAPE  H11X15587   3.594   3.392   9.523  0.6801 -1.4568 -0.2669
  142SAPE  H11Y15588   3.754   3.331   9.495 -1.6233 -1.3373 -0.0262
  142SAPE  C31215589   3.670   3.456   9.338  0.7672  0.9620 -0.7645
  142SAPE  H12X15590   3.603   3.539   9.307 -1.4855 -0.3020  0.4040
  142SAPE  H12Y15591   3.612   3.373   9.293 -0.1630  1.7147 -0.9756
  142SAPE  C31315592   3.805   3.468   9.267 -0.1779  0.0571  0.1908
  142SAPE  H13X15593   3.874   3.388   9.303 -1.3459 -1.5576 -1.0185
  142SAPE  H13Y15594   3.847   3.564   9.304 -2.3816  0.4564  1.8482
  142SAPE  C31415595   3.808   3.464   9.115  0.2241  0.4096  0.3093
  142SAPE  H14X15596   3.755   3.555   9.080 -0.1866 -0.0872 -0.3868
  142SAPE  H14Y15597   3.739   3.384   9.080 -1.5600  1.5817  1.0217
  142SAPE  C31515598   3.947   3.468   9.042  0.5757  0.5113 -1.1590
  142SAPE  H15X15599   4.018   3.394   9.085  0.4298  1.1185  0.1887
  142SAPE  H15Y15600   3.999   3.566   9.053  2.9705 -0.7594 -0.6236
  142SAPE  C31615601   3.936   3.448   8.887 -0.9786 -0.3866 -0.3364
  142SAPE  H16X15602   3.837   3.485   8.852  0.0253  1.9007 -0.9230
  142SAPE  H16Y15603   3.936   3.339   8.864  0.8234 -0.1313 -1.7245
  142SAPE  C31715604   4.044   3.526   8.818 -1.4303 -0.5542  0.2606
  142SAPE  H17X15605   4.146   3.493   8.847 -0.6876  1.7550  0.4922
  142SAPE  H17Y15606   4.014   3.630   8.844 -2.2151 -0.8907  0.7569
  142SAPE  C31815607   4.038   3.521   8.662 -0.2082 -0.0878 -0.2005
  142SAPE  H18X15608   4.121   3.574   8.611  1.7453 -0.8615  2.0151
  142SAPE  H18Y15609   3.945   3.572   8.628 -0.0945  0.0615 -0.2861
  142SAPE  H18Z15610   4.034   3.415   8.630 -0.6681  0.0819 -0.7265
  143SAPE     N15611   5.138   4.132  11.127  0.1890  0.5529  0.0687
  143SAPE   HN115612   5.150   4.103  11.028  1.4512  0.8671  0.1189
  143SAPE   HN215613   5.044   4.129  11.171  0.4537 -0.9429  0.5973
  143SAPE   HN315614   5.165   4.232  11.129 -0.2061  0.6713 -0.3379
  143SAPE   C1215615   5.235   4.053  11.217  0.1096 -0.7903 -0.0353
  143SAPE  H12A15616   5.199   3.949  11.203  0.3424 -0.8243 -0.3936
  143SAPE  H12B15617   5.210   4.075  11.323 -2.4910  1.9289 -1.0596
  143SAPE   C1115618   5.377   4.093  11.181 -0.3563 -0.1899  0.3499
  143SAPE  H11A15619   5.437   4.065  11.270  0.7240 -0.3515 -0.4202
  143SAPE  H11B15620   5.381   4.204  11.180  1.0200 -0.2291  0.3220
  143SAPE     P15621   5.488   3.886  11.058 -0.3611 -0.0224 -0.0537
  143SAPE   O1315622   5.625   3.904  11.114 -0.0484  0.2710  0.3059
  143SAPE   O1415623   5.397   3.788  11.121  0.4346  0.3936  0.0611
  143SAPE   O1215624   5.424   4.030  11.066 -0.0732  0.6766 -0.1674
  143SAPE   O1115625   5.490   3.872  10.903  0.3508  0.4738  0.4293
  143SAPE    C115626   5.376   3.863  10.824  0.8408 -0.3874  0.0433
  143SAPE    HA15627   5.288   3.825  10.880 -0.4405  1.2447 -0.7654
  143SAPE    HB15628   5.352   3.963  10.781 -2.3786 -0.9594  0.2892
  143SAPE    C215629   5.404   3.768  10.702  0.1000  0.7336  0.0154
  143SAPE    HS15630   5.322   3.764  10.627  2.8874 -2.5428 -3.2893
  143SAPE   O2115631   5.428   3.633  10.748 -0.2884 -0.1820  0.1911
  143SAPE   C2115632   5.317   3.560  10.758 -0.3868 -0.7775 -0.5069
  143SAPE   O2215633   5.204   3.594  10.731 -0.2598  0.5312  0.2169
  143SAPE   C2215634   5.361   3.418  10.806 -0.0276 -0.6242 -0.2067
  143SAPE   H2R15635   5.434   3.389  10.728  0.3860  0.7756 -0.3594
  143SAPE   H2S15636   5.410   3.433  10.905  1.2010  2.8397 -1.2203
  143SAPE    C315637   5.532   3.819  10.625  0.0900  0.2053 -0.5807
  143SAPE    HX15638   5.615   3.849  10.692  0.0383  0.1791 -0.5050
  143SAPE    HY15639   5.498   3.918  10.588  1.6975  1.3554  0.8647
  143SAPE   O3115640   5.562   3.735  10.515 -0.2199 -0.1467 -0.1655
  143SAPE   C3115641   5.659   3.647  10.536 -0.5021 -0.1164 -1.2351
  143SAPE   O3215642   5.725   3.643  10.639 -0.2673  0.2291  0.2642
  143SAPE   C3215643   5.700   3.580  10.407  0.2668  0.0988 -0.0254
  143SAPE   H2X15644   5.806   3.608  10.391  0.1703  0.8371  0.5869
  143SAPE   H2Y15645   5.642   3.614  10.318  1.1913 -0.5868 -0.9157
  143SAPE   C2315646   5.244   3.318  10.812  0.4307 -0.1738  0.0393
  143SAPE   H3R15647   5.166   3.366  10.875 -0.0941 -1.0603  0.0721
  143SAPE   H3S15648   5.271   3.230  10.874 -1.2913 -0.2961  0.6501
  143SAPE   C2415649   5.189   3.269  10.674  0.2126  0.0444  0.0704
  143SAPE   H4R15650   5.282   3.224  10.633  0.8317  1.2036  0.1462
  143SAPE   H4S15651   5.161   3.363  10.621  0.1038  0.0428  0.1255
  143SAPE   C2515652   5.080   3.168  10.686 -0.0764 -0.3546  0.1251
  143SAPE   H5R15653   4.990   3.195  10.743 -0.4411  1.8797 -1.3897
  143SAPE   C2615654   5.078   3.050  10.620  0.3265 -0.3921  0.3903
  143SAPE   H6R15655   4.993   2.982  10.632  0.1794 -0.2802 -0.0153
  143SAPE   C2715656   5.187   3.004  10.519 -0.2849  0.6462 -0.9017
  143SAPE   H7R15657   5.198   2.894  10.513 -0.8199  0.5513 -0.3033
  143SAPE   H7S15658   5.289   3.041  10.541  0.1320 -0.4446 -0.9690
  143SAPE   C2815659   5.151   3.047  10.380  0.6479 -0.7359  0.9308
  143SAPE   H8R15660   5.168   3.155  10.367 -2.9620  0.0202  1.5093
  143SAPE   C2915661   5.115   2.973  10.272 -0.2069  0.4347  0.1481
  143SAPE   H9R15662   5.082   3.028  10.183  3.0553  0.9270 -0.8925
  143SAPE  C21015663   5.085   2.825  10.261 -0.7112  0.4780  0.6418
  143SAPE  H10R15664   5.093   2.775  10.360  1.1018  1.6151  1.1228
  143SAPE  H10S15665   5.163   2.774  10.200 -2.5430  0.3444 -1.7517
  143SAPE  C21115666   4.955   2.797  10.191 -0.6945 -0.1243  0.2763
  143SAPE  H11R15667   4.872   2.774  10.259 -1.8356  0.4615 -0.8854
  143SAPE  C21215668   4.927   2.791  10.059  0.0291 -0.4041 -0.3622
  143SAPE  H12R15669   4.823   2.780  10.025 -0.5985 -0.8442  1.5785
  143SAPE  C21315670   5.023   2.808   9.947 -0.2316  0.1117  0.1494
  143SAPE  H13R15671   5.131   2.802   9.972 -0.0191 -1.1337 -0.9460
  143SAPE  H13S15672   5.008   2.910   9.906  0.0141 -0.1664 -0.6525
  143SAPE  C21415673   5.000   2.706   9.840 -0.8112 -0.5675  0.3128
  143SAPE  H14R15674   5.019   2.602   9.870 -1.4513 -1.0191 -0.7611
  143SAPE  C21515675   4.959   2.732   9.709 -0.3303 -0.6217  0.0508
  143SAPE  H15R15676   4.943   2.646   9.642  0.9164 -1.4516  0.7927
  143SAPE  C21615677   4.922   2.870   9.657 -0.4353  0.4752 -0.5853
  143SAPE  H16R15678   4.936   2.953   9.729 -1.3054  0.7106 -0.6725
  143SAPE  H16S15679   4.816   2.881   9.626 -1.2682 -1.0101  1.5167
  143SAPE  C21715680   5.002   2.904   9.528 -0.4576 -0.2417 -0.2497
  143SAPE  H17R15681   5.101   2.864   9.557 -0.9879 -0.6827  1.0193
  143SAPE  H17S15682   4.992   3.015   9.526  1.9910  0.0277 -1.6236
  143SAPE  C21815683   4.958   2.842   9.401 -0.9583 -0.4804 -0.2429
  143SAPE  H18R15684   4.852   2.873   9.385 -0.1520  1.9007 -1.2790
  143SAPE  H18S15685   4.950   2.731   9.405  0.0953 -0.7184 -2.7726
  143SAPE  C21915686   5.034   2.878   9.273 -0.2288  0.6777  0.3340
  143SAPE  H19R15687   5.144   2.877   9.292  0.2731  1.9337 -2.1137
  143SAPE  H19S15688   5.007   2.983   9.249 -2.0435  0.2536  0.4182
  143SAPE  C22015689   4.994   2.792   9.146 -0.3061 -0.4612  0.5156
  143SAPE  H20R15690   5.000   2.683   9.163 -0.7204 -0.4031  1.0727
  143SAPE  H20S15691   5.047   2.822   9.053 -1.5420  1.3049  0.3316
  143SAPE  H20T15692   4.889   2.822   9.125  1.0111  4.3306 -0.6215
  143SAPE   C3315693   5.686   3.431  10.414 -0.0650  0.2929  0.2772
  143SAPE   H3X15694   5.591   3.397  10.367 -0.3066  0.1470  0.8626
  143SAPE   H3Y15695   5.687   3.392  10.518  0.7855  1.2274  0.6354
  143SAPE   C3415696   5.802   3.355  10.348  0.6819 -0.1653  0.3433
  143SAPE   H4X15697   5.792   3.245  10.363  0.6713  0.0555  2.0870
  143SAPE   H4Y15698   5.894   3.389  10.398  0.3387  2.9104 -0.8767
  143SAPE   C3515699   5.819   3.387  10.197  0.3999  0.2097  0.3676
  143SAPE   H5X15700   5.922   3.366  10.162  0.2721 -1.2944  0.8247
  143SAPE   H5Y15701   5.808   3.494  10.166  1.1969 -0.2825 -1.7848
  143SAPE   C3615702   5.718   3.305  10.107 -0.0568 -0.5492  0.6600
  143SAPE   H6X15703   5.611   3.331  10.119  0.1837  3.0446 -2.9430
  143SAPE   H6Y15704   5.731   3.198  10.134  0.3308 -0.2661  1.6318
  143SAPE   C3715705   5.758   3.313   9.958 -0.3497  0.0145 -0.4897
  143SAPE   H7X15706   5.864   3.281   9.950 -0.8687 -2.1693  0.5938
  143SAPE   H7Y15707   5.757   3.419   9.926  2.9978  1.0200  2.0838
  143SAPE   C3815708   5.667   3.217   9.883  0.0279  0.1273 -0.1156
  143SAPE   H8X15709   5.560   3.234   9.909  1.1963  2.9748  4.0808
  143SAPE   H8Y15710   5.703   3.117   9.915 -2.1701 -0.2472  1.3753
  143SAPE   C3915711   5.675   3.244   9.732  0.2313 -0.4380  0.1680
  143SAPE   H9X15712   5.774   3.213   9.691 -0.5784 -0.1793 -2.1666
  143SAPE   H9Y15713   5.670   3.352   9.709 -0.4247 -0.8834 -2.0061
  143SAPE  C31015714   5.551   3.216   9.655  0.0918 -0.0789  0.0257
  143SAPE  H10X15715   5.467   3.266   9.708 -0.2249 -3.5668  3.1890
  143SAPE  H10Y15716   5.530   3.109   9.676 -0.1318 -0.0014  0.1941
  143SAPE  C31115717   5.563   3.246   9.504 -0.6971  0.6331 -0.9602
  143SAPE  H11X15718   5.672   3.245   9.484 -0.6782 -1.6580 -1.0270
  143SAPE  H11Y15719   5.515   3.341   9.472 -0.5620  1.0183 -0.0477
  143SAPE  C31215720   5.505   3.131   9.428 -0.0864 -0.1002 -0.0941
  143SAPE  H12X15721   5.396   3.132   9.449 -0.1008  0.4371 -0.1844
  143SAPE  H12Y15722   5.553   3.040   9.472 -0.0469  0.7950  1.8252
  143SAPE  C31315723   5.531   3.133   9.277 -0.5033  0.2207  0.5271
  143SAPE  H13X15724   5.594   3.047   9.247  0.1807 -0.0183  2.4999
  143SAPE  H13Y15725   5.578   3.232   9.262  1.3286 -0.6690  0.0375
  143SAPE  C31415726   5.399   3.119   9.201 -0.1287  0.1763 -0.0752
  143SAPE  H14X15727   5.326   3.192   9.240 -0.4165 -0.6244  0.9270
  143SAPE  H14Y15728   5.362   3.015   9.205 -0.5995  0.3328 -0.3335
  143SAPE  C31515729   5.412   3.145   9.052  0.0093  0.0208 -0.1300
  143SAPE  H15X15730   5.474   3.060   9.014 -1.0977 -0.9437  0.1566
  143SAPE  H15Y15731   5.469   3.238   9.029 -2.5650  1.8720  0.5671
  143SAPE  C31615732   5.279   3.148   8.972  0.2614  0.3366  0.0696
  143SAPE  H16X15733   5.224   3.233   9.019  0.6403  1.5246 -1.5518
  143SAPE  H16Y15734   5.213   3.064   9.005 -0.9913  1.4055  0.3952
  143SAPE  C31715735   5.304   3.167   8.823 -0.2087  0.4802  0.4702
  143SAPE  H17X15736   5.406   3.211   8.813 -1.0261  2.2425 -0.4600
  143SAPE  H17Y15737   5.237   3.253   8.803 -1.4523 -0.3665  0.9464
  143SAPE  C31815738   5.304   3.041   8.740  0.1189  0.5365  0.2435
  143SAPE  H18X15739   5.220   2.973   8.768  0.9131 -1.3893 -1.7055
  143SAPE  H18Y15740   5.385   2.970   8.767 -0.0164 -0.2090 -1.1821
  143SAPE  H18Z15741   5.302   3.059   8.630 -1.6411 -0.0639  0.1347
  144SAPE     N15742   0.071   3.774  10.262  0.0805  0.1935  0.2615
  144SAPE   HN115743   0.079   3.872  10.229 -1.1545 -0.1625 -1.2448
  144SAPE   HN215744   0.162   3.751  10.307 -0.5342  0.1866  1.5529
  144SAPE   HN315745   0.063   3.702  10.187 -1.3522 -1.0634  1.5417
  144SAPE   C1215746  -0.055   3.757  10.349 -0.3474  0.0513  0.2618
  144SAPE  H12A15747  -0.142   3.787  10.287  0.4599  0.5774 -0.6592
  144SAPE  H12B15748  -0.046   3.829  10.434  0.2389 -0.8427  0.9842
  144SAPE   C1115749  -0.072   3.616  10.403  0.6951 -0.4248  0.0754
  144SAPE  H11A15750  -0.169   3.623  10.457  0.3104  1.6928 -0.7680
  144SAPE  H11B15751   0.014   3.598  10.470  1.1057 -0.4601 -0.4568
  144SAPE     P15752  -0.034   3.374  10.325 -0.3638  0.0747 -0.1999
  144SAPE   O1315753   0.083   3.348  10.242  0.7332 -0.2758  1.1405
  144SAPE   O1415754  -0.024   3.345  10.472  0.2656  0.1034  0.8115
  144SAPE   O1215755  -0.084   3.526  10.298  0.1592  0.7277  0.1176
  144SAPE   O1115756  -0.155   3.285  10.269 -0.0927  0.0941 -0.1203
  144SAPE    C115757  -0.277   3.351  10.232 -0.3033  0.5353 -0.0421
  144SAPE    HA15758  -0.357   3.276  10.245 -0.3482  0.5455 -0.2486
  144SAPE    HB15759  -0.301   3.438  10.297  2.7493  0.3943  1.4487
  144SAPE    C215760  -0.293   3.398  10.076 -0.2917  0.4944 -0.2308
  144SAPE    HS15761  -0.238   3.494  10.074  0.7770 -0.1170 -1.0991
  144SAPE   O2115762  -0.431   3.414  10.036 -0.4305  0.1704 -0.0243
  144SAPE   C2115763  -0.509   3.508  10.091  0.9040 -0.1335 -0.2524
  144SAPE   O2215764  -0.478   3.588  10.176  0.0216  0.4627  0.6955
  144SAPE   C2215765  -0.650   3.494  10.043 -0.8317 -0.2326  0.1119
  144SAPE   H2R15766  -0.654   3.445   9.944  1.3904  2.2982 -1.3441
  144SAPE   H2S15767  -0.690   3.435  10.129  0.3352  2.1829  2.4697
  144SAPE    C315768  -0.219   3.299   9.984  0.4374  0.1961 -0.0981
  144SAPE    HX15769  -0.267   3.199   9.991 -1.3513  1.0571  0.6184
  144SAPE    HY15770  -0.118   3.275  10.023  0.7127 -0.3449 -1.1128
  144SAPE   O3115771  -0.217   3.342   9.840 -0.5351  0.2022 -0.6703
  144SAPE   C3115772  -0.118   3.409   9.794 -0.6143  0.0189  0.2535
  144SAPE   O3215773  -0.023   3.459   9.851  0.3520  0.1172  0.1921
  144SAPE   C3215774  -0.133   3.425   9.642  0.3697 -0.0759  0.8014
  144SAPE   H2X15775  -0.185   3.523   9.628 -0.9105 -0.9961 -1.2725
  144SAPE   H2Y15776  -0.201   3.346   9.603  1.4714 -0.6288 -0.0254
  144SAPE   C2315777  -0.720   3.635  10.036  0.2552 -0.2011 -0.6065
  144SAPE   H3R15778  -0.684   3.712  10.108 -0.1704  0.3719 -1.0019
  144SAPE   H3S15779  -0.828   3.640  10.061  0.8983  1.2373  2.2798
  144SAPE   C2415780  -0.678   3.696   9.900  0.2680  0.1145  0.4415
  144SAPE   H4R15781  -0.569   3.675   9.894  0.3559  0.9578 -1.5764
  144SAPE   H4S15782  -0.707   3.803   9.895 -1.8243 -0.4615 -0.9814
  144SAPE   C2515783  -0.758   3.637   9.789  0.5649 -0.8279 -0.2991
  144SAPE   H5R15784  -0.866   3.660   9.792  1.0045  1.4204  0.2509
  144SAPE   C2615785  -0.719   3.556   9.689  0.6846 -0.1679  0.0766
  144SAPE   H6R15786  -0.791   3.512   9.620 -0.6423 -1.1543  1.9991
  144SAPE   C2715787  -0.578   3.523   9.664 -0.6997 -0.5801  0.0214
  144SAPE   H7R15788  -0.512   3.547   9.749 -1.1332 -0.1018  0.2290
  144SAPE   H7S15789  -0.544   3.584   9.577  0.7091 -2.8338 -1.0973
  144SAPE   C2815790  -0.567   3.378   9.626  0.1250 -0.4312 -0.4126
  144SAPE   H8R15791  -0.582   3.318   9.717 -0.3563  0.4380  0.0949
  144SAPE   C2915792  -0.542   3.325   9.503 -0.0701 -0.7004  0.2023
  144SAPE   H9R15793  -0.535   3.216   9.490  2.3972 -0.3451 -2.2991
  144SAPE  C21015794  -0.518   3.404   9.379  0.4066 -0.3703  0.4108
  144SAPE  H10R15795  -0.444   3.346   9.321  1.0820  0.8203  0.0296
  144SAPE  H10S15796  -0.461   3.498   9.396 -3.4677  2.7467 -2.0054
  144SAPE  C21115797  -0.639   3.433   9.293  0.5377 -0.0991  0.3394
  144SAPE  H11R15798  -0.732   3.455   9.348 -0.2735 -0.1623 -0.9632
  144SAPE  C21215799  -0.641   3.419   9.156  0.0635 -0.2970 -0.7035
  144SAPE  H12R15800  -0.740   3.439   9.112 -1.5344 -1.3470  2.0925
  144SAPE  C21315801  -0.520   3.396   9.072  0.1333 -0.2920  0.6655
  144SAPE  H13R15802  -0.433   3.449   9.116  0.1823  0.0372  0.1843
  144SAPE  H13S15803  -0.527   3.448   8.974 -1.7524 -1.1880  0.2875
  144SAPE  C21415804  -0.479   3.248   9.048  0.2399  0.1313 -0.6352
  144SAPE  H14R15805  -0.490   3.174   9.128 -3.2954 -0.5543 -1.5929
  144SAPE  C21515806  -0.456   3.192   8.933 -0.7807 -0.3413  0.0718
  144SAPE  H15R15807  -0.427   3.086   8.926 -0.5331 -0.3735  1.3641
  144SAPE  C21615808  -0.440   3.255   8.793  0.2649  0.4686  0.1853
  144SAPE  H16R15809  -0.383   3.181   8.732 -0.5064 -0.3008  0.3779
  144SAPE  H16S15810  -0.388   3.353   8.797  0.3074  0.4131  1.0904
  144SAPE  C21715811  -0.576   3.265   8.725  0.1988 -0.0878 -0.5621
  144SAPE  H17R15812  -0.636   3.342   8.779 -1.2495 -0.9884 -0.8247
  144SAPE  H17S15813  -0.634   3.171   8.738 -2.0270  1.4822  1.9657
  144SAPE  C21815814  -0.567   3.309   8.574  0.4445 -0.0342 -0.7390
  144SAPE  H18R15815  -0.504   3.233   8.523  1.4782 -0.9938  1.7536
  144SAPE  H18S15816  -0.511   3.404   8.568 -0.6501  0.5769 -1.7012
  144SAPE  C21915817  -0.700   3.323   8.495 -0.0534 -0.2579 -0.5364
  144SAPE  H19R15818  -0.738   3.420   8.533 -1.4658 -0.8184 -0.4419
  144SAPE  H19S15819  -0.763   3.237   8.527  0.1397 -0.1718  0.0866
  144SAPE  C22015820  -0.672   3.336   8.338  0.6037  0.0630  0.1750
  144SAPE  H20R15821  -0.598   3.418   8.324  1.3460 -0.8663 -1.7962
  144SAPE  H20S15822  -0.761   3.350   8.272  1.1921 -0.9049 -0.8644
  144SAPE  H20T15823  -0.619   3.244   8.304  0.9679  0.0215  0.8459
  144SAPE   C3315824   0.002   3.425   9.569 -0.2664 -0.1959  0.2445
  144SAPE   H3X15825   0.062   3.333   9.588 -0.2190 -0.1362  0.3870
  144SAPE   H3Y15826   0.079   3.500   9.599 -0.7363  0.7984 -0.9212
  144SAPE   C3415827  -0.015   3.442   9.415  0.6245 -0.4268 -0.3719
  144SAPE   H4X15828   0.081   3.413   9.368  0.1511  1.8407 -2.9334
  144SAPE   H4Y15829  -0.044   3.544   9.384 -0.2813 -1.1533 -2.0207
  144SAPE   C3515830  -0.115   3.341   9.349  0.6167 -0.1387 -0.2018
  144SAPE   H5X15831  -0.218   3.372   9.377  1.0777  1.1661  0.1142
  144SAPE   H5Y15832  -0.098   3.236   9.382  1.3012 -0.9181 -2.7598
  144SAPE   C3615833  -0.118   3.340   9.193  0.7017 -0.0927  0.4463
  144SAPE   H6X15834  -0.196   3.266   9.165 -0.2745  0.6462  1.1507
  144SAPE   H6Y15835  -0.022   3.296   9.160  0.8098 -0.0601  0.7160
  144SAPE   C3715836  -0.147   3.473   9.131 -0.2393  0.0400  0.4657
  144SAPE   H7X15837  -0.069   3.551   9.150 -0.6027  0.3701  0.6099
  144SAPE   H7Y15838  -0.236   3.521   9.176  0.8608  1.6671  0.9832
  144SAPE   C3815839  -0.171   3.462   8.977 -0.3281  0.0720  0.0750
  144SAPE   H8X15840  -0.222   3.551   8.935  0.9466  0.1777 -1.3362
  144SAPE   H8Y15841  -0.253   3.392   8.947 -1.5568 -0.8619  4.7429
  144SAPE   C3915842  -0.042   3.432   8.885 -0.4709 -0.7700 -0.1453
  144SAPE   H9X15843   0.002   3.349   8.944  0.5052  1.0529  1.8309
  144SAPE   H9Y15844   0.027   3.519   8.892  1.5214 -2.2907 -0.1338
  144SAPE  C31015845  -0.064   3.378   8.745 -0.1505  0.5835  0.2022
  144SAPE  H10X15846  -0.125   3.458   8.697  0.8221  1.4834  0.4392
  144SAPE  H10Y15847  -0.133   3.291   8.750  1.4586 -0.8305 -0.8873
  144SAPE  C31115848   0.068   3.345   8.665 -0.7339 -0.7149  0.1151
  144SAPE  H11X15849   0.104   3.244   8.694 -0.3838 -0.2696  1.3110
  144SAPE  H11Y15850   0.141   3.424   8.694 -0.7728 -0.8931  0.7179
  144SAPE  C31215851   0.055   3.339   8.513 -0.0406 -0.1766 -0.0086
  144SAPE  H12X15852   0.158   3.354   8.476  0.3230 -1.8068  0.2712
  144SAPE  H12Y15853  -0.004   3.431   8.490 -1.3451 -0.1183  3.0497
  144SAPE  C31315854  -0.022   3.218   8.460 -0.8937  0.7059  0.1175
  144SAPE  H13X15855   0.008   3.131   8.522  0.8252  1.4933  0.4799
  144SAPE  H13Y15856   0.010   3.202   8.355 -1.2409  1.1775 -0.0623
  144SAPE  C31415857  -0.171   3.233   8.470 -0.3878  0.0750  0.1223
  144SAPE  H14X15858  -0.191   3.342   8.469 -0.3719  0.0811  0.3597
  144SAPE  H14Y15859  -0.216   3.190   8.562 -2.4171  2.6471  0.4467
  144SAPE  C31515860  -0.238   3.159   8.352  0.5978  0.7686 -0.0696
  144SAPE  H15X15861  -0.342   3.149   8.388  0.3429 -1.0877 -1.2003
  144SAPE  H15Y15862  -0.203   3.055   8.330 -1.8000  0.0044 -0.4788
  144SAPE  C31615863  -0.250   3.242   8.221  0.6295 -0.3264  0.3100
  144SAPE  H16X15864  -0.148   3.279   8.201  0.6237  0.9639  2.4298
  144SAPE  H16Y15865  -0.313   3.330   8.246  1.2921  0.2755 -0.1094
  144SAPE  C31715866  -0.307   3.159   8.107 -0.3688 -0.0425  0.7324
  144SAPE  H17X15867  -0.413   3.131   8.125  0.7543 -6.1636 -0.1117
  144SAPE  H17Y15868  -0.249   3.065   8.093 -1.1332 -0.4257  0.0683
  144SAPE  C31815869  -0.306   3.232   7.977  0.3356 -0.0530  0.0550
  144SAPE  H18X15870  -0.369   3.177   7.904 -0.3407 -1.2599  1.4999
  144SAPE  H18Y15871  -0.205   3.241   7.931  1.7203 -1.1261  2.6516
  144SAPE  H18Z15872  -0.347   3.335   7.984  4.0748  1.7629 -1.6034
  145SAPE     N15873   4.138   1.537  10.878  0.1379  0.3915 -0.6827
  145SAPE   HN115874   4.115   1.596  10.795 -0.7012 -1.2450 -1.6802
  145SAPE   HN215875   4.233   1.496  10.868 -0.2228 -0.8236  0.5424
  145SAPE   HN315876   4.066   1.466  10.901  0.4422  0.0711 -0.7159
  145SAPE   C1215877   4.150   1.624  11.001  0.1830 -0.4828  0.1623
  145SAPE  H12A15878   4.169   1.555  11.085  0.7522 -1.8566 -1.0441
  145SAPE  H12B15879   4.053   1.678  11.013  0.7314  0.7052 -0.5368
  145SAPE   C1115880   4.268   1.719  10.987 -0.3966  0.5503  0.4917
  145SAPE  H11A15881   4.366   1.667  10.990  0.8840  2.7325 -0.9251
  145SAPE  H11B15882   4.253   1.781  11.078 -0.2134 -1.3499  1.9104
  145SAPE     P15883   4.364   1.908  10.841  0.1268 -0.0636  0.0210
  145SAPE   O1315884   4.313   2.028  10.912 -0.5674  0.2172 -0.0791
  145SAPE   O1415885   4.503   1.863  10.867 -0.7390  0.2970  0.1136
  145SAPE   O1215886   4.259   1.795  10.869 -0.2893 -0.2897  0.3217
  145SAPE   O1115887   4.351   1.934  10.683 -0.0660 -0.3529 -0.4723
  145SAPE    C115888   4.379   1.826  10.594  0.3419 -0.5404 -0.3584
  145SAPE    HA15889   4.430   1.739  10.641  1.7035 -1.0114 -2.5408
  145SAPE    HB15890   4.287   1.789  10.545 -1.6491  3.4421 -0.0463
  145SAPE    C215891   4.471   1.871  10.479  0.1917 -0.4063 -0.2828
  145SAPE    HS15892   4.535   1.948  10.529  0.6140  1.0242 -2.8347
  145SAPE   O2115893   4.389   1.926  10.374  0.7020 -0.7395  0.1502
  145SAPE   C2115894   4.461   2.003  10.298 -0.1017  0.0521  0.4806
  145SAPE   O2215895   4.581   2.038  10.316  0.4770 -0.1111 -0.0229
  145SAPE   C2215896   4.382   2.037  10.167 -0.3574  0.3810  0.1152
  145SAPE   H2R15897   4.310   1.956  10.141 -1.7386  2.0650 -1.4847
  145SAPE   H2S15898   4.331   2.129  10.201  0.9882  1.5374 -0.8883
  145SAPE    C315899   4.559   1.748  10.429  0.5612  0.0149  0.5436
  145SAPE    HX15900   4.619   1.716  10.517  0.4838 -0.8161  0.3005
  145SAPE    HY15901   4.635   1.784  10.357 -0.2684 -0.7011 -0.7249
  145SAPE   O3115902   4.491   1.635  10.371 -0.0057  0.1005 -0.1671
  145SAPE   C3115903   4.476   1.652  10.243  0.1508  0.2640  0.1817
  145SAPE   O3215904   4.516   1.741  10.175 -0.3377  0.1920 -0.7637
  145SAPE   C3215905   4.403   1.526  10.190 -0.4608  0.9277 -0.0587
  145SAPE   H2X15906   4.320   1.505  10.260  0.1982  0.2418  0.5442
  145SAPE   H2Y15907   4.472   1.439  10.195 -0.6515  0.6660 -1.5540
  145SAPE   C2315908   4.476   2.070  10.049 -0.2192 -0.2723 -0.2789
  145SAPE   H3R15909   4.562   2.000  10.041  0.4671  0.1796  2.1965
  145SAPE   H3S15910   4.520   2.167  10.081 -0.1877 -0.4973  0.3743
  145SAPE   C2415911   4.415   2.097   9.913 -0.1281  0.6282 -0.0707
  145SAPE   H4R15912   4.504   2.127   9.853 -0.4966  3.6761  0.7531
  145SAPE   H4S15913   4.347   2.184   9.905 -0.4821  0.2070 -2.2281
  145SAPE   C2515914   4.348   1.971   9.862  0.1446  0.6861  0.1904
  145SAPE   H5R15915   4.246   1.956   9.902 -0.6682 -1.1643 -2.3129
  145SAPE   C2615916   4.392   1.880   9.774 -0.2050 -0.1556  0.5465
  145SAPE   H6R15917   4.322   1.810   9.726  0.4944  0.9142 -2.2441
  145SAPE   C2715918   4.520   1.868   9.699 -0.3718 -0.1689  0.2496
  145SAPE   H7R15919   4.530   1.759   9.678 -2.1275 -0.2808 -0.1953
  145SAPE   H7S15920   4.606   1.894   9.763  0.1311 -1.0602 -0.0467
  145SAPE   C2815921   4.529   1.952   9.573 -0.0177  0.5144  0.0743
  145SAPE   H8R15922   4.602   2.034   9.568 -1.2492  1.5838 -3.2168
  145SAPE   C2915923   4.459   1.938   9.456  0.3710  0.6036 -0.2190
  145SAPE   H9R15924   4.481   2.005   9.372  2.9316  0.4344  0.2486
  145SAPE  C21015925   4.354   1.833   9.422  0.1427 -0.0886  0.7217
  145SAPE  H10R15926   4.299   1.807   9.515 -2.0981 -2.1403 -1.0546
  145SAPE  H10S15927   4.401   1.746   9.372  2.2227  0.4944  1.5381
  145SAPE  C21115928   4.246   1.900   9.337  0.2459 -0.0534 -0.4493
  145SAPE  H11R15929   4.159   1.945   9.387  1.2430  0.7544  0.6208
  145SAPE  C21215930   4.246   1.901   9.198  0.2947 -0.1112 -0.8281
  145SAPE  H12R15931   4.161   1.949   9.147 -0.3320 -0.7910 -0.4566
  145SAPE  C21315932   4.355   1.846   9.107 -0.1720  0.0154 -0.0402
  145SAPE  H13R15933   4.429   1.782   9.159  1.1568  2.5048  1.3293
  145SAPE  H13S15934   4.410   1.937   9.075 -0.8346  1.3297  2.3243
  145SAPE  C21415935   4.281   1.781   8.993  0.1013 -0.8681 -0.1859
  145SAPE  H14R15936   4.173   1.800   8.988 -0.5278 -3.9152 -0.3893
  145SAPE  C21515937   4.332   1.700   8.894 -0.3766 -0.5282 -0.3534
  145SAPE  H15R15938   4.262   1.658   8.821  0.2597 -0.0543 -1.2531
  145SAPE  C21615939   4.478   1.661   8.875 -0.0242  0.4797 -0.7492
  145SAPE  H16R15940   4.493   1.564   8.822 -0.2043  0.0644 -0.0526
  145SAPE  H16S15941   4.532   1.657   8.972  1.5880 -0.7663 -1.6433
  145SAPE  C21715942   4.547   1.772   8.804  0.2252  0.6104  0.0731
  145SAPE  H17R15943   4.518   1.870   8.847 -1.2702 -0.1031  0.7879
  145SAPE  H17S15944   4.523   1.767   8.696 -2.4812  0.3811  0.6105
  145SAPE  C21815945   4.697   1.763   8.821  0.0067  0.0178  0.0817
  145SAPE  H18R15946   4.727   1.670   8.769  1.7352  0.2630  0.5663
  145SAPE  H18S15947   4.718   1.766   8.931  0.8844 -0.8721 -0.0508
  145SAPE  C21915948   4.776   1.881   8.769  0.0846 -0.1090  0.3047
  145SAPE  H19R15949   4.730   1.981   8.780  0.8712  0.3033 -0.0527
  145SAPE  H19S15950   4.789   1.865   8.660  2.2231 -2.4721  0.7929
  145SAPE  C22015951   4.921   1.889   8.830  0.5863  0.0303 -0.0885
  145SAPE  H20R15952   4.974   1.978   8.790  2.0337  0.7719  3.1165
  145SAPE  H20S15953   4.981   1.802   8.798 -0.5393 -0.3078 -1.3397
  145SAPE  H20T15954   4.897   1.902   8.938 -1.1030 -1.5035 -0.2341
  145SAPE   C3315955   4.349   1.554  10.048  0.4818 -0.5253  0.1157
  145SAPE   H3X15956   4.431   1.554   9.972 -0.8794  0.7238 -1.4256
  145SAPE   H3Y15957   4.300   1.652  10.031  1.2285  0.1178  1.5820
  145SAPE   C3415958   4.252   1.445  10.002 -0.2869 -0.0199  0.4212
  145SAPE   H4X15959   4.159   1.441  10.063  0.7228 -1.7891  1.9468
  145SAPE   H4Y15960   4.296   1.345  10.022 -0.4238  0.1539  1.7202
  145SAPE   C3515961   4.216   1.454   9.848  0.8454  0.5460 -0.0670
  145SAPE   H5X15962   4.302   1.405   9.798  0.7857  1.6343 -1.2888
  145SAPE   H5Y15963   4.206   1.558   9.812 -0.4981  0.0562 -1.2233
  145SAPE   C3615964   4.082   1.382   9.815  0.5581 -0.0245 -0.3201
  145SAPE   H6X15965   4.004   1.416   9.887  1.8813  1.1880  0.5726
  145SAPE   H6Y15966   4.088   1.276   9.849  0.6976  0.0218 -0.1992
  145SAPE   C3715967   4.040   1.388   9.670 -0.4113 -0.5489  0.0239
  145SAPE   H7X15968   3.985   1.481   9.643 -0.6834 -0.4112  0.9833
  145SAPE   H7Y15969   3.969   1.306   9.647 -0.4756 -0.4321 -0.1923
  145SAPE   C3815970   4.157   1.370   9.570  0.0710 -0.5016  0.4906
  145SAPE   H8X15971   4.214   1.282   9.606  0.6007  0.0142  0.9363
  145SAPE   H8Y15972   4.220   1.462   9.569 -1.6428  0.7461  1.5696
  145SAPE   C3915973   4.110   1.355   9.423 -0.1344  0.1672 -0.3814
  145SAPE   H9X15974   4.056   1.445   9.388  0.3249  0.1640 -1.1248
  145SAPE   H9Y15975   4.037   1.272   9.411 -0.6109  0.7155 -1.3074
  145SAPE  C31015976   4.227   1.338   9.321 -0.5030 -0.4975 -0.0669
  145SAPE  H10X15977   4.281   1.253   9.368 -0.0658  1.0263  2.3717
  145SAPE  H10Y15978   4.295   1.424   9.307 -1.2018  0.0159 -0.3653
  145SAPE  C31115979   4.177   1.312   9.176  0.2582 -0.2147 -0.2638
  145SAPE  H11X15980   4.156   1.409   9.126 -0.7760  0.3140  1.1434
  145SAPE  H11Y15981   4.078   1.262   9.172 -0.5596  1.2313  1.0211
  145SAPE  C31215982   4.286   1.256   9.082  0.2499 -0.3594 -0.3143
  145SAPE  H12X15983   4.339   1.163   9.114  3.8689  1.6596  0.0824
  145SAPE  H12Y15984   4.369   1.329   9.092  0.7999 -0.6332 -2.4082
  145SAPE  C31315985   4.261   1.270   8.932  0.3655  0.7659  0.2807
  145SAPE  H13X15986   4.350   1.223   8.885 -0.4044 -0.3649 -0.0950
  145SAPE  H13Y15987   4.252   1.378   8.908 -0.5097  1.0584  1.7782
  145SAPE  C31415988   4.139   1.192   8.875  0.1904  0.3556 -0.0955
  145SAPE  H14X15989   4.051   1.216   8.939 -1.2095 -3.0578 -0.5033
  145SAPE  H14Y15990   4.147   1.081   8.879 -0.2895  0.2835 -0.9117
  145SAPE  C31515991   4.090   1.223   8.733  0.8598 -0.6233  0.6778
  145SAPE  H15X15992   4.168   1.184   8.665  0.6562 -0.3607  0.2848
  145SAPE  H15Y15993   4.069   1.331   8.714 -0.9969 -0.4499  3.2188
  145SAPE  C31615994   3.959   1.152   8.687  0.3341  0.2387  0.8716
  145SAPE  H16X15995   3.878   1.166   8.761  1.5261 -1.5892  2.6614
  145SAPE  H16Y15996   3.972   1.041   8.689 -2.7402 -0.2148  0.4470
  145SAPE  C31715997   3.911   1.203   8.552 -0.9150 -0.1622 -0.0737
  145SAPE  H17X15998   3.997   1.188   8.484  0.1788  1.5623  0.8593
  145SAPE  H17Y15999   3.891   1.312   8.554 -2.0035 -0.2130 -2.8722
  145SAPE  C31816000   3.796   1.123   8.503 -0.0033  0.0729  0.1679
  145SAPE  H18X16001   3.787   1.140   8.393 -0.7542  2.7114  0.5646
  145SAPE  H18Y16002   3.703   1.151   8.557 -0.0289 -0.6533  0.4997
  145SAPE  H18Z16003   3.816   1.018   8.531 -0.8778  0.2497  1.5310
  146SAPE     N16004   4.313   0.985  10.969  0.2860 -0.1264  0.0339
  146SAPE   HN116005   4.369   0.923  11.031 -0.4757 -0.8348  0.0348
  146SAPE   HN216006   4.374   1.037  10.904  0.7738  0.2511  0.7850
  146SAPE   HN316007   4.255   1.053  11.023  1.1843  2.6401 -2.2492
  146SAPE   C1216008   4.213   0.913  10.884  0.1287  0.6500 -0.3918
  146SAPE  H12A16009   4.157   0.850  10.956 -1.6349 -2.1777 -3.8978
  146SAPE  H12B16010   4.264   0.846  10.812 -0.8452 -1.4616  0.7938
  146SAPE   C1116011   4.114   1.018  10.823 -0.6849  0.0958  0.0687
  146SAPE  H11A16012   4.030   0.971  10.767 -1.0702 -0.1965  0.8758
  146SAPE  H11B16013   4.180   1.076  10.755  1.2888 -0.0315  1.7771
  146SAPE     P16014   3.949   1.211  10.908 -0.1783  0.1607  0.2101
  146SAPE   O1316015   3.825   1.141  10.940  0.4661  0.3736  0.3394
  146SAPE   O1416016   3.981   1.331  10.987 -0.0529 -0.4062 -0.3384
  146SAPE   O1216017   4.072   1.106  10.926 -0.0352  0.4175  1.0082
  146SAPE   O1116018   3.940   1.256  10.752  0.4260  0.0387 -0.7432
  146SAPE    C116019   3.821   1.199  10.685  0.3927 -0.4392 -0.6402
  146SAPE    HA16020   3.828   1.214  10.575  0.1109 -2.0060 -0.8975
  146SAPE    HB16021   3.815   1.089  10.696  2.4094 -0.8141 -2.5043
  146SAPE    C216022   3.678   1.264  10.719  0.0324 -0.0418  0.4204
  146SAPE    HS16023   3.635   1.221  10.812 -2.0020 -2.0243 -1.3145
  146SAPE   O2116024   3.586   1.250  10.613 -0.1363  0.7938  0.4277
  146SAPE   C2116025   3.454   1.252  10.634  0.1500 -0.0413  0.0857
  146SAPE   O2216026   3.403   1.262  10.744  0.0813  0.4063 -0.2225
  146SAPE   C2216027   3.378   1.246  10.500  0.0783 -0.0795 -0.6815
  146SAPE   H2R16028   3.441   1.296  10.424  2.3879 -0.9710  0.5665
  146SAPE   H2S16029   3.371   1.138  10.474  0.0942 -0.4242  0.6524
  146SAPE    C316030   3.691   1.412  10.747 -0.2504  0.6642 -0.0272
  146SAPE    HX16031   3.757   1.416  10.836  1.8993 -0.8232 -1.4828
  146SAPE    HY16032   3.598   1.462  10.783  0.3985  1.6067  0.4041
  146SAPE   O3116033   3.758   1.488  10.647 -0.2038 -0.2976  0.2077
  146SAPE   C3116034   3.669   1.537  10.560  0.4563  1.0858  0.4505
  146SAPE   O3216035   3.545   1.539  10.575 -0.1522 -0.2874 -0.6506
  146SAPE   C3216036   3.730   1.570  10.429 -0.3162  0.3900  0.4078
  146SAPE   H2X16037   3.838   1.545  10.432 -0.3395  0.3183  0.6391
  146SAPE   H2Y16038   3.702   1.676  10.410  0.4639  0.7864  1.3756
  146SAPE   C2316039   3.245   1.316  10.516  0.1395  0.3114  0.3682
  146SAPE   H3R16040   3.266   1.421  10.546  2.1548  0.2748 -0.7724
  146SAPE   H3S16041   3.193   1.266  10.601  0.8414 -1.4318 -0.1929
  146SAPE   C2416042   3.158   1.332  10.387  0.0346  0.3897  0.4356
  146SAPE   H4R16043   3.066   1.389  10.414 -0.0582  0.3743  0.1580
  146SAPE   H4S16044   3.135   1.230  10.351  1.4693 -0.1305  0.9453
  146SAPE   C2516045   3.236   1.413  10.293  0.4174 -1.0145  0.2617
  146SAPE   H5R16046   3.237   1.516  10.333  0.0969 -1.7015  2.1326
  146SAPE   C2616047   3.294   1.386  10.173 -0.4490 -0.6687  0.0830
  146SAPE   H6R16048   3.344   1.472  10.126 -1.5707 -0.1496 -0.1975
  146SAPE   C2716049   3.303   1.258  10.092 -0.9555 -0.9568 -0.1501
  146SAPE   H7R16050   3.339   1.179  10.161 -1.1626 -0.2910  0.7332
  146SAPE   H7S16051   3.396   1.250  10.031 -0.2343 -2.4254  1.0468
  146SAPE   C2816052   3.185   1.216  10.015  0.5577  0.1305  0.6280
  146SAPE   H8R16053   3.094   1.189  10.072  1.0593 -1.4580  0.7249
  146SAPE   C2916054   3.173   1.224   9.880  0.2938  0.2681  0.6755
  146SAPE   H9R16055   3.091   1.162   9.841  1.2798 -0.3098 -0.5434
  146SAPE  C21016056   3.269   1.259   9.770 -0.3840  0.3158 -0.5686
  146SAPE  H10R16057   3.294   1.164   9.718 -1.0908 -1.0300  1.4446
  146SAPE  H10S16058   3.364   1.303   9.808  0.2433  0.8339 -2.5849
  146SAPE  C21116059   3.222   1.374   9.684  0.3932  0.9129 -0.5058
  146SAPE  H11R16060   3.215   1.467   9.742  1.3293  0.9768 -0.4803
  146SAPE  C21216061   3.205   1.374   9.551 -0.0390 -0.6768  0.2825
  146SAPE  H12R16062   3.166   1.460   9.495 -3.3337 -0.9549  1.9210
  146SAPE  C21316063   3.249   1.269   9.461  0.1082  0.2892 -0.5560
  146SAPE  H13R16064   3.326   1.205   9.510 -0.7514  0.7514  1.5152
  146SAPE  H13S16065   3.298   1.322   9.377 -0.6763  0.9091 -0.6374
  146SAPE  C21416066   3.133   1.189   9.404  0.4217  0.2227  0.0091
  146SAPE  H14R16067   3.073   1.128   9.474 -0.9697  1.5856  0.0364
  146SAPE  C21516068   3.095   1.197   9.273 -0.1186  0.1428 -0.5036
  146SAPE  H15R16069   3.005   1.138   9.250 -0.8625  0.9390  0.3066
  146SAPE  C21616070   3.149   1.282   9.165  0.1441 -0.3778 -0.4940
  146SAPE  H16R16071   3.256   1.296   9.188  0.2668  1.2017 -1.8960
  146SAPE  H16S16072   3.104   1.383   9.176  0.6955 -0.0702 -1.0663
  146SAPE  C21716073   3.134   1.216   9.030  0.2588 -0.6383  0.1265
  146SAPE  H17R16074   3.030   1.180   9.015 -0.9177  2.6706 -0.5180
  146SAPE  H17S16075   3.209   1.135   9.015 -0.2585 -0.7661 -2.1544
  146SAPE  C21816076   3.172   1.313   8.914  0.5257  0.4336  0.0496
  146SAPE  H18R16077   3.273   1.354   8.938 -0.5861  2.0261  2.4531
  146SAPE  H18S16078   3.102   1.400   8.910 -0.1824 -0.1637 -2.0749
  146SAPE  C21916079   3.179   1.241   8.774  0.1688 -0.0279 -0.2647
  146SAPE  H19R16080   3.080   1.245   8.723 -0.3534 -2.2710  0.4786
  146SAPE  H19S16081   3.197   1.132   8.786 -0.3015 -0.0959 -0.1761
  146SAPE  C22016082   3.280   1.299   8.675 -0.2930  0.4615  0.0687
  146SAPE  H20R16083   3.379   1.300   8.724  1.2431  1.7013 -2.8422
  146SAPE  H20S16084   3.256   1.401   8.636 -2.2269 -0.0363 -0.1610
  146SAPE  H20T16085   3.292   1.230   8.589 -0.3616  0.2196  0.2530
  146SAPE   C3316086   3.675   1.501  10.298  0.5544  0.5956 -0.4485
  146SAPE   H3X16087   3.677   1.559  10.202 -1.6677 -0.9872 -1.5356
  146SAPE   H3Y16088   3.576   1.456  10.323  1.5193 -0.9118  0.8030
  146SAPE   C3416089   3.755   1.375  10.260 -0.0498 -0.3793 -0.1601
  146SAPE   H4X16090   3.757   1.301  10.343 -0.9722  0.2999  0.4923
  146SAPE   H4Y16091   3.861   1.409  10.255 -0.2433  0.3114  0.3184
  146SAPE   C3516092   3.708   1.297  10.139 -0.5949  0.5558  0.0722
  146SAPE   H5X16093   3.606   1.256  10.159  0.3369 -0.1469  4.3986
  146SAPE   H5Y16094   3.781   1.214  10.129 -0.6117  0.3607  1.4234
  146SAPE   C3616095   3.697   1.370  10.003  0.0632 -0.1610  0.1547
  146SAPE   H6X16096   3.789   1.433   9.996 -0.0367  0.1122  1.2455
  146SAPE   H6Y16097   3.612   1.442   9.995  0.2779  0.0126 -0.7297
  146SAPE   C3716098   3.679   1.265   9.884  0.1019 -0.0348  0.2760
  146SAPE   H7X16099   3.582   1.212   9.900  0.7838 -0.6024  3.2127
  146SAPE   H7Y16100   3.763   1.194   9.901 -0.0779 -0.0200  1.3477
  146SAPE   C3816101   3.691   1.335   9.742  0.1765 -0.4154  0.0796
  146SAPE   H8X16102   3.785   1.392   9.730  0.2980 -0.7554 -0.6371
  146SAPE   H8Y16103   3.595   1.391   9.744 -0.2462 -1.1095 -0.2958
  146SAPE   C3916104   3.683   1.235   9.626 -0.0158  0.5542  0.3632
  146SAPE   H9X16105   3.605   1.166   9.664 -0.2786  0.3801 -0.4732
  146SAPE   H9Y16106   3.775   1.173   9.630 -0.5253 -0.1900  0.8238
  146SAPE  C31016107   3.651   1.307   9.501  0.2671 -0.0871  0.1424
  146SAPE  H10X16108   3.713   1.398   9.491  0.0434  0.0980  0.4033
  146SAPE  H10Y16109   3.543   1.332   9.505  0.3382  0.4329 -0.9050
  146SAPE  C31116110   3.650   1.220   9.369  0.0774 -0.8630  0.0666
  146SAPE  H11X16111   3.655   1.295   9.287 -0.9279  0.2957  1.0243
  146SAPE  H11Y16112   3.553   1.167   9.359 -0.5093  0.3477 -1.0997
  146SAPE  C31216113   3.773   1.124   9.367 -0.0874  0.6886  0.5683
  146SAPE  H12X16114   3.754   1.046   9.445 -0.7898 -0.4781 -0.7336
  146SAPE  H12Y16115   3.859   1.187   9.398  1.2530 -0.4425 -0.7319
  146SAPE  C31316116   3.811   1.065   9.230 -0.5928 -0.1464 -0.6151
  146SAPE  H13X16117   3.896   0.993   9.232 -3.6329 -4.0446 -0.3301
  146SAPE  H13Y16118   3.857   1.145   9.169 -1.3929  0.0211 -1.0165
  146SAPE  C31416119   3.702   0.990   9.142 -0.0648  0.0643 -0.2593
  146SAPE  H14X16120   3.737   0.977   9.037 -3.6460 -1.6168 -1.3773
  146SAPE  H14Y16121   3.607   1.047   9.145  0.1831  0.4802 -0.2418
  146SAPE  C31516122   3.676   0.846   9.186  0.0895  0.0901  0.0235
  146SAPE  H15X16123   3.605   0.845   9.272  0.8916  0.6983  0.7165
  146SAPE  H15Y16124   3.767   0.793   9.221 -0.3780 -0.8421 -0.1560
  146SAPE  C31616125   3.611   0.750   9.078 -0.4899 -0.6258  0.6412
  146SAPE  H16X16126   3.565   0.662   9.127 -0.1582  0.1910  2.4940
  146SAPE  H16Y16127   3.697   0.723   9.013 -1.0310  1.2906 -0.9575
  146SAPE  C31716128   3.500   0.823   8.997 -0.0223  0.2588 -0.1748
  146SAPE  H17X16129   3.518   0.921   8.948 -1.1172  1.6438  2.0390
  146SAPE  H17Y16130   3.419   0.849   9.069  1.2207 -1.4968  1.9514
  146SAPE  C31816131   3.436   0.738   8.890  0.6670  0.1409  0.0574
  146SAPE  H18X16132   3.501   0.732   8.799 -0.8037  3.4811 -1.3472
  146SAPE  H18Y16133   3.347   0.788   8.846  0.6715 -1.4046 -1.8498
  146SAPE  H18Z16134   3.396   0.643   8.931 -0.3798  0.1413 -0.9247
  147SAPE     N16135   5.459   4.479   5.959  0.8551  0.3948 -0.2640
  147SAPE   HN116136   5.369   4.527   5.981  0.3465 -0.4358 -0.4761
  147SAPE   HN216137   5.531   4.550   5.941 -0.8626  2.3227  0.0986
  147SAPE   HN316138   5.443   4.448   5.861 -0.0815  0.8917 -0.2846
  147SAPE   C1216139   5.494   4.368   6.049 -0.4924 -0.2412 -0.6363
  147SAPE  H12A16140   5.437   4.277   6.020  0.6782 -0.8618 -1.0301
  147SAPE  H12B16141   5.475   4.403   6.153 -2.6676  1.6841 -1.5846
  147SAPE   C1116142   5.640   4.343   6.031  1.0982  0.7209 -0.0005
  147SAPE  H11A16143   5.659   4.293   5.933  1.4460 -1.3271  1.0607
  147SAPE  H11B16144   5.649   4.277   6.120  2.6433  2.4973  1.2223
  147SAPE     P16145   5.849   4.447   6.140  0.3559  0.2878 -0.1859
  147SAPE   O1316146   5.953   4.359   6.076  0.1489 -0.2021 -0.3344
  147SAPE   O1416147   5.891   4.583   6.170 -0.0160 -0.5171  0.3076
  147SAPE   O1216148   5.719   4.455   6.050 -0.0017 -0.4408 -0.1633
  147SAPE   O1116149   5.805   4.378   6.275 -0.6825  0.1586  0.2065
  147SAPE    C116150   5.711   4.448   6.354  0.0810  0.0152 -0.0560
  147SAPE    HA16151   5.748   4.551   6.373 -0.2399  0.3337 -1.1120
  147SAPE    HB16152   5.608   4.442   6.314 -0.4399  1.4308  0.9807
  147SAPE    C216153   5.701   4.391   6.502  0.2185 -0.5329  0.8559
  147SAPE    HS16154   5.697   4.483   6.564 -1.5031  0.7558 -1.0248
  147SAPE   O2116155   5.808   4.307   6.537 -0.6674 -0.0729 -0.0608
  147SAPE   C2116156   5.928   4.368   6.562  0.3586  0.2547  0.2971
  147SAPE   O2216157   5.936   4.487   6.557 -0.5774 -0.3904  0.4306
  147SAPE   C2216158   6.031   4.278   6.611  0.2635  1.3188 -0.7702
  147SAPE   H2R16159   6.029   4.182   6.555  0.2796  0.8933 -0.0485
  147SAPE   H2S16160   6.130   4.318   6.581  0.3285  0.8279 -1.2143
  147SAPE    C316161   5.564   4.311   6.513 -0.0556  0.1865 -0.3301
  147SAPE    HX16162   5.580   4.222   6.448 -0.0345 -1.0535  1.3202
  147SAPE    HY16163   5.475   4.367   6.477  0.3542  1.5358  0.6794
  147SAPE   O3116164   5.538   4.265   6.650  0.3277 -0.5076  0.3510
  147SAPE   C3116165   5.465   4.345   6.717  0.6161 -0.9436  0.2027
  147SAPE   O3216166   5.451   4.465   6.692 -0.5616  0.1447  0.5944
  147SAPE   C3216167   5.378   4.281   6.828  0.2958  0.8880  0.2867
  147SAPE   H2X16168   5.326   4.191   6.787 -0.8443  1.1899  1.0311
  147SAPE   H2Y16169   5.297   4.349   6.859 -0.7791  0.1354 -0.7569
  147SAPE   C2316170   6.021   4.262   6.763  0.8986  0.2220  0.6808
  147SAPE   H3R16171   6.074   4.167   6.786  1.6588  0.4415 -0.1218
  147SAPE   H3S16172   5.914   4.241   6.787  0.9461 -3.2760 -1.4130
  147SAPE   C2416173   6.089   4.365   6.845  0.7882 -0.3609  0.1424
  147SAPE   H4R16174   6.164   4.431   6.796  3.0075 -0.2186  3.4256
  147SAPE   H4S16175   6.152   4.328   6.928 -1.8994 -0.1238  2.4430
  147SAPE   C2516176   5.980   4.444   6.917  0.1731  0.8094 -0.1838
  147SAPE   H5R16177   5.919   4.503   6.847  1.1535  1.9366 -0.1229
  147SAPE   C2616178   5.940   4.447   7.050 -0.1440 -0.3820  0.5636
  147SAPE   H6R16179   5.859   4.514   7.083 -0.3208  0.1361 -0.8423
  147SAPE   C2716180   6.008   4.377   7.161  0.9795 -0.0633  0.2847
  147SAPE   H7R16181   5.999   4.430   7.258 -0.3009 -0.1758  0.2388
  147SAPE   H7S16182   6.116   4.359   7.140  0.0022 -4.0898 -2.2712
  147SAPE   C2816183   5.961   4.237   7.187  0.0654 -0.2454 -0.0099
  147SAPE   H8R16184   5.929   4.198   7.089  2.7322 -0.5912 -0.7962
  147SAPE   C2916185   5.944   4.168   7.304 -0.0057  0.0592  0.0613
  147SAPE   H9R16186   5.894   4.071   7.293 -0.7157  0.4352 -0.1707
  147SAPE  C21016187   5.988   4.213   7.444  0.2317  0.1303 -0.6272
  147SAPE  H10R16188   5.908   4.262   7.503  1.7521  1.3410  0.5406
  147SAPE  H10S16189   6.065   4.294   7.441 -0.4716  0.8658  0.4567
  147SAPE  C21116190   6.036   4.099   7.528 -0.9136 -0.2171 -0.0792
  147SAPE  H11R16191   5.953   4.044   7.575 -0.4510 -1.9561 -1.2011
  147SAPE  C21216192   6.161   4.058   7.557 -0.6397 -0.3955  0.6468
  147SAPE  H12R16193   6.178   3.968   7.618 -1.8383 -1.2118 -0.1856
  147SAPE  C21316194   6.284   4.134   7.512 -0.0987 -0.4962 -0.3001
  147SAPE  H13R16195   6.295   4.212   7.591 -1.9862  0.8493 -1.2795
  147SAPE  H13S16196   6.278   4.186   7.414 -0.3945 -0.5318 -0.3038
  147SAPE  C21416197   6.398   4.043   7.523  0.1591  0.1606  0.3301
  147SAPE  H14R16198   6.400   3.952   7.460 -1.5511  0.3384 -0.0504
  147SAPE  C21516199   6.496   4.053   7.611 -0.5548  0.1275  0.5328
  147SAPE  H15R16200   6.571   3.974   7.612 -2.0726 -1.3900 -0.3979
  147SAPE  C21616201   6.517   4.163   7.709  0.4688  0.6530 -0.6868
  147SAPE  H16R16202   6.494   4.266   7.677  2.7554  1.8267  1.1620
  147SAPE  H16S16203   6.627   4.172   7.725  0.8221 -2.4593 -0.6572
  147SAPE  C21716204   6.441   4.138   7.844 -0.3590  0.1089 -0.0685
  147SAPE  H17R16205   6.480   4.038   7.873  1.9514  1.2029  0.8607
  147SAPE  H17S16206   6.330   4.134   7.832 -0.7074  1.9253  1.9358
  147SAPE  C21816207   6.491   4.241   7.949  0.5113  0.2206 -0.2513
  147SAPE  H18R16208   6.443   4.336   7.918  1.1428  0.2908 -1.0588
  147SAPE  H18S16209   6.599   4.264   7.936  0.5416  1.5154  1.7993
  147SAPE  C21916210   6.449   4.196   8.088 -1.0132 -0.7121 -0.5500
  147SAPE  H19R16211   6.486   4.275   8.157 -1.0496 -0.7752 -0.4582
  147SAPE  H19S16212   6.500   4.099   8.108 -0.4688 -0.5911 -1.3183
  147SAPE  C22016213   6.304   4.171   8.108 -0.3162 -0.9116 -0.3933
  147SAPE  H20R16214   6.266   4.093   8.039  0.5800 -1.3467 -0.4065
  147SAPE  H20S16215   6.252   4.265   8.083 -2.0505 -1.1727  1.8961
  147SAPE  H20T16216   6.276   4.146   8.213  1.2671  1.3998  0.6681
  147SAPE   C3316217   5.469   4.249   6.949  0.5553  0.3848 -0.0831
  147SAPE   H3X16218   5.499   4.348   6.989  2.3436  0.8011 -2.2933
  147SAPE   H3Y16219   5.564   4.203   6.914 -2.0155 -3.1773 -3.1431
  147SAPE   C3416220   5.419   4.143   7.055  0.4642 -0.0085 -0.0100
  147SAPE   H4X16221   5.382   4.055   7.000  1.7993  0.2702 -1.4314
  147SAPE   H4Y16222   5.332   4.182   7.111 -0.7523  0.7314 -2.3127
  147SAPE   C3516223   5.522   4.113   7.159 -0.2843  0.7255  0.5924
  147SAPE   H5X16224   5.585   4.203   7.174  0.8206 -0.2683  2.1817
  147SAPE   H5Y16225   5.588   4.034   7.116 -2.9289 -0.9685 -0.6580
  147SAPE   C3616226   5.454   4.060   7.290 -0.4637 -0.0661 -0.1548
  147SAPE   H6X16227   5.403   3.964   7.265 -0.0324 -0.0405 -1.1929
  147SAPE   H6Y16228   5.383   4.136   7.330 -0.1632  0.2589 -0.2334
  147SAPE   C3716229   5.553   4.016   7.397  0.6028  0.2569  0.1664
  147SAPE   H7X16230   5.647   4.073   7.383  1.1696 -1.0323 -1.7612
  147SAPE   H7Y16231   5.575   3.910   7.374  0.3391  0.6035 -1.9024
  147SAPE   C3816232   5.501   4.034   7.532 -0.4642  0.3124 -0.5238
  147SAPE   H8X16233   5.483   4.143   7.534  2.0300  0.8542 -2.1240
  147SAPE   H8Y16234   5.585   4.007   7.599 -0.5985 -1.9739 -1.1753
  147SAPE   C3916235   5.374   3.949   7.559 -0.3596  0.6782  0.1867
  147SAPE   H9X16236   5.407   3.844   7.546 -0.6725  0.6098 -0.0473
  147SAPE   H9Y16237   5.292   3.977   7.490 -0.9105  3.0878  1.6915
  147SAPE  C31016238   5.330   3.976   7.693  0.4138  0.0300 -1.3421
  147SAPE  H10X16239   5.309   4.085   7.701 -0.9460 -0.3340  1.0342
  147SAPE  H10Y16240   5.407   3.954   7.770 -0.0444 -0.0999 -0.9107
  147SAPE  C31116241   5.202   3.893   7.724  0.0228 -0.1770 -0.1030
  147SAPE  H11X16242   5.235   3.793   7.689  0.3058 -0.7125  1.5705
  147SAPE  H11Y16243   5.121   3.937   7.663  0.0927  0.5836  0.3334
  147SAPE  C31216244   5.170   3.871   7.871 -0.1505  0.2921 -0.4949
  147SAPE  H12X16245   5.153   3.968   7.922 -1.1692 -0.7465  1.2494
  147SAPE  H12Y16246   5.261   3.834   7.923 -0.4123  0.5821  0.1865
  147SAPE  C31316247   5.045   3.776   7.889  0.2730 -0.1800  0.3836
  147SAPE  H13X16248   5.070   3.682   7.834  1.9842  0.6910 -0.4037
  147SAPE  H13Y16249   4.959   3.825   7.839  0.5273 -0.8265 -0.7418
  147SAPE  C31416250   5.018   3.737   8.033  0.1331  0.7547 -0.1053
  147SAPE  H14X16251   5.007   3.832   8.090  1.4545  0.4685  0.6725
  147SAPE  H14Y16252   5.095   3.680   8.089 -0.1645 -1.2119 -1.5617
  147SAPE  C31516253   4.878   3.682   8.048  0.5037 -0.6803  0.1331
  147SAPE  H15X16254   4.811   3.765   8.019  0.2054 -0.6666  0.8321
  147SAPE  H15Y16255   4.864   3.670   8.158 -1.6420 -0.4429 -0.0806
  147SAPE  C31616256   4.855   3.539   7.986  0.6883 -0.9844  0.0269
  147SAPE  H16X16257   4.921   3.532   7.897  0.9231 -2.5682  0.2981
  147SAPE  H16Y16258   4.751   3.513   7.956  1.5943 -0.8143 -3.8711
  147SAPE  C31716259   4.907   3.429   8.084  0.7771  0.1857 -0.3247
  147SAPE  H17X16260   4.850   3.437   8.179 -0.8431 -0.6780 -1.1799
  147SAPE  H17Y16261   5.014   3.454   8.105  0.3466  3.4745 -1.3633
  147SAPE  C31816262   4.886   3.283   8.030 -0.2912  0.0596 -0.6430
  147SAPE  H18X16263   4.901   3.209   8.112 -2.1117  1.8356  1.4373
  147SAPE  H18Y16264   4.960   3.276   7.948  0.5825  3.4514 -0.2903
  147SAPE  H18Z16265   4.789   3.265   7.978 -0.1076 -0.5720 -0.7855
  148SAPE     N16266   4.437   2.900   6.496  0.0116  0.2703 -0.2621
  148SAPE   HN116267   4.441   3.003   6.488 -3.2071  0.4809 -0.6849
  148SAPE   HN216268   4.517   2.854   6.448 -0.7484 -1.0272 -0.3504
  148SAPE   HN316269   4.350   2.871   6.446 -1.1154  1.1374  1.1289
  148SAPE   C1216270   4.429   2.853   6.634  0.3076  0.2549 -0.6775
  148SAPE  H12A16271   4.334   2.893   6.678  0.4122 -1.4499  1.2715
  148SAPE  H12B16272   4.521   2.872   6.693 -0.5389  1.3306  0.3483
  148SAPE   C1116273   4.404   2.702   6.634  1.1302 -0.1759 -0.5207
  148SAPE  H11A16274   4.369   2.671   6.735 -0.6476 -1.0448 -1.3667
  148SAPE  H11B16275   4.493   2.637   6.617  0.1555 -1.6338 -0.2340
  148SAPE     P16276   4.250   2.517   6.529  0.1740  0.7568 -0.3339
  148SAPE   O1316277   4.155   2.511   6.414  0.2328 -0.1441 -0.2972
  148SAPE   O1416278   4.366   2.429   6.518 -0.6478  0.1406  0.2255
  148SAPE   O1216279   4.300   2.667   6.544 -0.8677 -0.0937  0.0305
  148SAPE   O1116280   4.177   2.488   6.668  0.4308 -0.4155  0.5144
  148SAPE    C116281   4.083   2.588   6.714  0.1655 -0.0759 -0.5257
  148SAPE    HA16282   4.092   2.586   6.824  0.4206 -1.1008 -0.5504
  148SAPE    HB16283   4.097   2.692   6.677  1.5164 -0.6774 -1.8256
  148SAPE    C216284   3.943   2.543   6.679  0.5374 -0.0069  0.5736
  148SAPE    HS16285   3.933   2.547   6.568 -0.1880 -1.2660  0.5732
  148SAPE   O2116286   3.841   2.619   6.742  0.2033 -0.0920 -0.4642
  148SAPE   C2116287   3.822   2.740   6.692 -0.6000 -0.6984  0.3569
  148SAPE   O2216288   3.883   2.801   6.606 -0.2678 -0.0150  0.2414
  148SAPE   C2216289   3.714   2.805   6.785  0.4693  0.3276  0.2362
  148SAPE   H2R16290   3.614   2.765   6.758  0.7394  0.3090 -0.7825
  148SAPE   H2S16291   3.748   2.766   6.883  1.9461  0.4200 -0.2168
  148SAPE    C316292   3.908   2.396   6.711 -0.0532 -0.3543  0.5032
  148SAPE    HX16293   3.977   2.342   6.643  0.5994 -0.0299  0.9035
  148SAPE    HY16294   3.803   2.386   6.676  0.1953 -1.2602 -0.0200
  148SAPE   O3116295   3.917   2.361   6.853 -0.5105  0.0931  0.1121
  148SAPE   C3116296   3.990   2.257   6.879  0.4840 -0.7719  0.2140
  148SAPE   O3216297   4.054   2.194   6.797 -0.5440 -0.1456  0.4138
  148SAPE   C3216298   3.998   2.251   7.034 -0.7379 -0.4995  0.2120
  148SAPE   H2X16299   3.923   2.311   7.089 -1.8401 -2.6297  1.1702
  148SAPE   H2Y16300   4.105   2.273   7.056 -0.5436 -1.8738  0.7854
  148SAPE   C2316301   3.703   2.963   6.791  0.4068  0.6924 -0.2504
  148SAPE   H3R16302   3.657   2.980   6.691  3.0587 -1.9370 -2.0967
  148SAPE   H3S16303   3.800   3.017   6.799  1.2264  0.0125 -3.8019
  148SAPE   C2416304   3.591   2.992   6.890  0.5659 -0.5270 -0.3273
  148SAPE   H4R16305   3.513   2.917   6.867 -0.0207  0.4897 -1.7879
  148SAPE   H4S16306   3.539   3.082   6.851 -0.0447  0.0043  1.5864
  148SAPE   C2516307   3.624   3.005   7.034 -1.0450  0.4309 -0.1170
  148SAPE   H5R16308   3.705   2.936   7.061 -1.7760 -0.1750  0.5600
  148SAPE   C2616309   3.575   3.083   7.129 -0.2210  0.2322 -0.0637
  148SAPE   H6R16310   3.601   3.072   7.235  0.9533  0.2550 -0.3327
  148SAPE   C2716311   3.467   3.185   7.104  0.4372  0.2204 -0.4542
  148SAPE   H7R16312   3.369   3.141   7.129 -0.0859  2.1346  1.1220
  148SAPE   H7S16313   3.459   3.214   6.997  1.0588  1.1810 -0.2576
  148SAPE   C2816314   3.475   3.305   7.190  0.4450 -0.2572  0.4818
  148SAPE   H8R16315   3.492   3.397   7.131  2.5299 -1.0984 -0.3230
  148SAPE   C2916316   3.437   3.319   7.320 -0.3361 -0.5409 -0.0873
  148SAPE   H9R16317   3.437   3.420   7.364 -2.6901 -1.7571  3.0696
  148SAPE  C21016318   3.378   3.214   7.405  0.4271 -0.1590  0.0874
  148SAPE  H10R16319   3.407   3.234   7.511 -3.0044  1.9139  0.8206
  148SAPE  H10S16320   3.420   3.113   7.384 -1.0460 -0.6625 -0.6285
  148SAPE  C21116321   3.225   3.208   7.390  0.1876  0.8311 -0.1583
  148SAPE  H11R16322   3.188   3.158   7.299 -0.1720 -0.2401  0.5667
  148SAPE  C21216323   3.136   3.234   7.484 -0.5553  0.1407 -0.5006
  148SAPE  H12R16324   3.033   3.222   7.448 -0.1126  1.1016 -2.1847
  148SAPE  C21316325   3.162   3.279   7.625 -0.6750  0.1409 -0.5897
  148SAPE  H13R16326   3.268   3.304   7.643 -1.2837  1.5831  1.3919
  148SAPE  H13S16327   3.137   3.204   7.703 -0.2552  0.9848  0.3722
  148SAPE  C21416328   3.085   3.403   7.659  0.2752  0.9395  0.1620
  148SAPE  H14R16329   2.987   3.428   7.615  0.7932  3.1216  0.1702
  148SAPE  C21516330   3.120   3.493   7.755  1.0386  0.9025  0.3147
  148SAPE  H15R16331   3.053   3.580   7.755 -0.3746 -0.1018 -1.2524
  148SAPE  C21616332   3.248   3.511   7.830 -0.4798  0.3883 -0.5378
  148SAPE  H16R16333   3.336   3.548   7.772 -0.3605  0.9036 -0.0340
  148SAPE  H16S16334   3.278   3.406   7.853 -1.6616  0.0668 -0.3907
  148SAPE  C21716335   3.237   3.587   7.961  0.3398 -0.1934 -0.1243
  148SAPE  H17R16336   3.197   3.691   7.960  1.5435  0.3387  1.8298
  148SAPE  H17S16337   3.332   3.586   8.019  2.3109 -2.7801 -3.0583
  148SAPE  C21816338   3.124   3.515   8.045  0.0309  0.3785 -0.4549
  148SAPE  H18R16339   3.114   3.408   8.018 -0.7043  0.4227 -0.3826
  148SAPE  H18S16340   3.022   3.551   8.020 -0.0252 -0.2101 -1.1150
  148SAPE  C21916341   3.154   3.533   8.191 -0.2410  0.4827  1.0544
  148SAPE  H19R16342   3.200   3.634   8.199  0.5869  0.1762  0.3745
  148SAPE  H19S16343   3.236   3.464   8.221  0.1309 -1.1756 -3.0622
  148SAPE  C22016344   3.031   3.530   8.281  0.0285  0.2010 -0.4809
  148SAPE  H20R16345   2.962   3.614   8.258 -0.6972  0.7030  2.9671
  148SAPE  H20S16346   3.064   3.537   8.386  0.6139 -0.6583 -0.6013
  148SAPE  H20T16347   2.973   3.435   8.284 -0.6455  0.6332  0.7218
  148SAPE   C3316348   3.994   2.105   7.080  0.5463 -0.0842 -0.7217
  148SAPE   H3X16349   4.070   2.045   7.025 -0.0718 -1.5697 -0.0221
  148SAPE   H3Y16350   3.893   2.064   7.058  1.4088 -2.0449 -1.2967
  148SAPE   C3416351   4.020   2.089   7.234  0.5197  0.0934 -0.3424
  148SAPE   H4X16352   4.109   2.149   7.263 -0.9295  1.9567  0.5470
  148SAPE   H4Y16353   4.044   1.981   7.244  1.7035  0.3985  0.2945
  148SAPE   C3516354   3.904   2.138   7.331 -0.2982  0.4534 -0.0234
  148SAPE   H5X16355   3.804   2.104   7.297 -0.5346 -0.6349  1.6439
  148SAPE   H5Y16356   3.895   2.248   7.337 -1.9139  0.2834  3.3032
  148SAPE   C3616357   3.913   2.087   7.478  0.6145 -0.1048  0.0307
  148SAPE   H6X16358   3.942   1.980   7.481  1.5075  0.1234  0.0017
  148SAPE   H6Y16359   3.817   2.110   7.529  1.7698  3.3694  0.9130
  148SAPE   C3716360   4.010   2.166   7.569  0.0712 -0.3146 -0.1190
  148SAPE   H7X16361   3.988   2.274   7.554 -1.4357 -0.3356  1.5788
  148SAPE   H7Y16362   4.111   2.132   7.539  0.1807 -0.7196  0.6740
  148SAPE   C3816363   3.995   2.121   7.717 -0.3567  0.1249 -0.7042
  148SAPE   H8X16364   3.987   2.010   7.726  0.0275  0.2499  2.2759
  148SAPE   H8Y16365   3.896   2.159   7.751  0.2631  1.4341 -0.3145
  148SAPE   C3916366   4.099   2.167   7.823 -0.5372  0.1911  0.8585
  148SAPE   H9X16367   4.100   2.278   7.823 -0.0490  0.1963  0.3575
  148SAPE   H9Y16368   4.194   2.118   7.790 -0.7772 -1.0477  1.9436
  148SAPE  C31016369   4.065   2.133   7.966  0.4301  0.8553  0.3487
  148SAPE  H10X16370   4.153   2.160   8.028 -0.1858  1.8737  0.8160
  148SAPE  H10Y16371   4.055   2.022   7.969  1.1667  0.6916 -1.8414
  148SAPE  C31116372   3.937   2.204   8.014  0.8441 -0.8158 -0.3450
  148SAPE  H11X16373   3.845   2.202   7.951 -0.6525 -0.8590  1.7223
  148SAPE  H11Y16374   3.943   2.314   8.010 -2.6142 -0.5288 -1.1612
  148SAPE  C31216375   3.904   2.166   8.158 -0.2885  0.2517  0.7871
  148SAPE  H12X16376   3.990   2.187   8.225  1.7118  2.3784 -2.2153
  148SAPE  H12Y16377   3.872   2.060   8.159  0.1085  0.1094  2.9650
  148SAPE  C31316378   3.784   2.248   8.215 -0.0740  0.0619 -0.9462
  148SAPE  H13X16379   3.768   2.187   8.306  1.3925 -0.2612 -0.8811
  148SAPE  H13Y16380   3.695   2.241   8.148 -2.1903  2.6521  1.3175
  148SAPE  C31416381   3.814   2.394   8.240  0.4665  0.1236 -0.4111
  148SAPE  H14X16382   3.827   2.446   8.143 -1.7354  0.1423 -0.7396
  148SAPE  H14Y16383   3.907   2.408   8.299  0.8913  0.9300 -1.2541
  148SAPE  C31516384   3.686   2.463   8.311 -0.3352  0.0073 -0.0649
  148SAPE  H15X16385   3.643   2.408   8.398 -2.3554 -1.1498 -1.6805
  148SAPE  H15Y16386   3.610   2.456   8.230  1.9521  0.1869 -2.3601
  148SAPE  C31616387   3.708   2.605   8.363 -0.1752  0.2443  0.0534
  148SAPE  H16X16388   3.775   2.667   8.299 -0.1843 -0.0210 -0.2138
  148SAPE  H16Y16389   3.751   2.597   8.465 -0.4017 -0.7399  0.0844
  148SAPE  C31716390   3.567   2.667   8.374  0.0835  0.4720  0.0579
  148SAPE  H17X16391   3.514   2.609   8.453  0.8725 -1.4341 -0.7351
  148SAPE  H17Y16392   3.508   2.646   8.282 -0.3083 -0.1583  0.4402
  148SAPE  C31816393   3.571   2.821   8.386 -0.1358  0.3100  0.0893
  148SAPE  H18X16394   3.611   2.848   8.487 -0.2106 -1.1361  0.5330
  148SAPE  H18Y16395   3.467   2.856   8.374 -0.0130  0.9509  0.7980
  148SAPE  H18Z16396   3.636   2.871   8.311 -0.2681  0.6623  0.2073
  149SAPE     N16397   2.838   5.860   5.967  0.4112 -0.2154  0.3256
  149SAPE   HN116398   2.875   5.816   5.880 -2.1247  0.0485 -0.9858
  149SAPE   HN216399   2.752   5.814   6.003 -0.8862  1.3933 -0.5723
  149SAPE   HN316400   2.814   5.956   5.937 -0.1847 -0.6986 -0.8105
  149SAPE   C1216401   2.951   5.879   6.068 -0.0071  0.5461  0.0571
  149SAPE  H12A16402   2.925   5.972   6.123  0.7237  0.5140  0.4702
  149SAPE  H12B16403   3.041   5.902   6.007 -0.8894  3.1251 -0.3869
  149SAPE   C1116404   2.969   5.760   6.159  0.2903 -0.2389 -0.5747
  149SAPE  H11A16405   2.882   5.734   6.222 -1.1533  2.4857 -1.2787
  149SAPE  H11B16406   3.039   5.791   6.239 -0.5005 -1.5650  0.6948
  149SAPE     P16407   2.948   5.531   6.009 -0.1148 -0.3144 -0.1194
  149SAPE   O1316408   2.883   5.585   5.888  0.2208  0.0333 -0.4516
  149SAPE   O1416409   3.054   5.434   5.970  0.2978  0.5234 -0.1438
  149SAPE   O1216410   3.028   5.647   6.095 -0.0148 -0.0602 -0.2256
  149SAPE   O1116411   2.841   5.470   6.117 -0.5379  0.4849  0.0976
  149SAPE    C116412   2.867   5.362   6.208 -0.0204 -0.4961  0.5232
  149SAPE    HA16413   2.769   5.315   6.230 -1.5809  2.3049  0.1729
  149SAPE    HB16414   2.934   5.281   6.173  1.7265  0.9828  0.2801
  149SAPE    C216415   2.942   5.411   6.336 -0.2656  0.5163  0.7917
  149SAPE    HS16416   2.888   5.505   6.360  2.7089  2.1233  1.5670
  149SAPE   O2116417   3.079   5.420   6.306 -0.5907 -0.3074 -0.0493
  149SAPE   C2116418   3.134   5.526   6.368 -0.0535 -0.5696  1.1991
  149SAPE   O2216419   3.074   5.608   6.436  0.1505 -1.1587 -0.3921
  149SAPE   C2216420   3.284   5.522   6.342  0.7422  0.3137  0.0592
  149SAPE   H2R16421   3.324   5.419   6.350  2.0921  0.4806 -3.0966
  149SAPE   H2S16422   3.309   5.559   6.241  1.5096 -0.1715  0.0662
  149SAPE    C316423   2.923   5.302   6.443  0.1997  0.4938 -0.0109
  149SAPE    HX16424   2.975   5.219   6.390 -1.8304  0.2838 -1.7970
  149SAPE    HY16425   2.813   5.291   6.452  0.1005  1.5288  0.1980
  149SAPE   O3116426   2.996   5.340   6.563  0.7244 -0.0016  0.2206
  149SAPE   C3116427   2.923   5.424   6.646 -0.1502  0.6248 -0.1395
  149SAPE   O3216428   2.803   5.444   6.639  0.0911  0.0725 -0.2391
  149SAPE   C3216429   3.009   5.479   6.763  0.1024 -0.0751  0.5656
  149SAPE   H2X16430   3.058   5.577   6.745  1.5549 -1.0067 -0.8264
  149SAPE   H2Y16431   3.094   5.409   6.781 -0.6885 -1.7226 -1.6522
  149SAPE   C2316432   3.356   5.623   6.433 -0.0948  0.0630  0.0352
  149SAPE   H3R16433   3.310   5.721   6.410  1.4715  0.3298 -2.3811
  149SAPE   H3S16434   3.454   5.617   6.381 -0.0953  0.6170 -0.0279
  149SAPE   C2416435   3.361   5.588   6.586 -0.3058  0.7272 -0.2425
  149SAPE   H4R16436   3.412   5.489   6.586 -0.7845  0.4736  0.8098
  149SAPE   H4S16437   3.255   5.568   6.614 -0.1271  0.5285  0.3006
  149SAPE   C2516438   3.450   5.687   6.660 -0.5830 -0.9386  0.1493
  149SAPE   H5R16439   3.510   5.745   6.589  1.6044 -3.4792 -0.2403
  149SAPE   C2616440   3.439   5.727   6.792  0.5590  0.1037  0.2378
  149SAPE   H6R16441   3.508   5.799   6.837  0.5014  2.2753 -2.8177
  149SAPE   C2716442   3.351   5.653   6.890  0.1309  0.1750  0.1100
  149SAPE   H7R16443   3.319   5.557   6.846  0.3835 -0.9478  2.2523
  149SAPE   H7S16444   3.259   5.712   6.913 -0.8782 -1.3108  0.0146
  149SAPE   C2816445   3.434   5.622   7.011 -0.2365  0.0923  0.5374
  149SAPE   H8R16446   3.501   5.537   6.992 -1.2121 -0.2907 -1.4552
  149SAPE   C2916447   3.440   5.685   7.132 -0.1783 -1.0059  0.5331
  149SAPE   H9R16448   3.510   5.651   7.209  1.0869  0.3192  0.0026
  149SAPE  C21016449   3.351   5.801   7.163  0.1041 -0.3132 -0.4305
  149SAPE  H10R16450   3.258   5.774   7.217 -0.5008 -0.3777 -1.4712
  149SAPE  H10S16451   3.334   5.865   7.074  2.2784  1.0147  0.0345
  149SAPE  C21116452   3.425   5.888   7.259  0.0348 -0.3208 -1.2035
  149SAPE  H11R16453   3.455   5.981   7.208 -0.6669  1.1668  0.9420
  149SAPE  C21216454   3.421   5.896   7.395  0.4939 -0.6377  0.0737
  149SAPE  H12R16455   3.480   5.975   7.443  0.1774  0.8812 -1.8952
  149SAPE  C21316456   3.361   5.782   7.472 -0.5481  0.6169  0.4136
  149SAPE  H13R16457   3.327   5.701   7.405  1.1842  0.8263 -0.7721
  149SAPE  H13S16458   3.263   5.811   7.517 -1.7063 -3.6078  1.0212
  149SAPE  C21416459   3.464   5.727   7.569 -0.4340 -0.1422  0.2733
  149SAPE  H14R16460   3.521   5.646   7.521 -0.4151  0.8421 -1.4680
  149SAPE  C21516461   3.479   5.747   7.697  0.3823 -0.2240 -0.0013
  149SAPE  H15R16462   3.568   5.703   7.743  0.5631  0.1889  0.0434
  149SAPE  C21616463   3.401   5.851   7.781  0.2343 -0.2943  0.0498
  149SAPE  H16R16464   3.305   5.877   7.730  0.7759  1.5529 -0.1094
  149SAPE  H16S16465   3.462   5.943   7.793 -2.4781  1.5703  0.5861
  149SAPE  C21716466   3.362   5.792   7.915  0.5345  0.0553 -0.2813
  149SAPE  H17R16467   3.292   5.709   7.890 -0.2224  1.0810 -1.6539
  149SAPE  H17S16468   3.301   5.863   7.974 -2.4126 -3.5494  1.4401
  149SAPE  C21816469   3.486   5.751   7.994  0.4380  0.1602  0.4991
  149SAPE  H18R16470   3.563   5.829   7.976 -0.5496  0.7276 -1.6442
  149SAPE  H18S16471   3.522   5.651   7.963  2.1376  1.1511 -0.9397
  149SAPE  C21916472   3.464   5.774   8.149 -0.3578  0.5131  0.1413
  149SAPE  H19R16473   3.428   5.877   8.170  0.9603  1.1383 -0.5183
  149SAPE  H19S16474   3.559   5.763   8.206  0.4279  2.6536 -0.6482
  149SAPE  C22016475   3.366   5.683   8.218 -0.0978 -0.6522 -0.5572
  149SAPE  H20R16476   3.347   5.722   8.320  0.4313 -2.8288  0.4336
  149SAPE  H20S16477   3.417   5.586   8.234 -0.1421 -0.1588  3.7002
  149SAPE  H20T16478   3.276   5.680   8.153 -2.0218  1.6957  1.7853
  149SAPE   C3316479   2.920   5.489   6.891 -0.0806  0.2921  0.2559
  149SAPE   H3X16480   2.877   5.393   6.927 -0.6328 -0.2133 -1.6406
  149SAPE   H3Y16481   2.833   5.554   6.868  0.1254 -0.2066 -2.2977
  149SAPE   C3416482   3.002   5.556   7.006  0.0819  1.1299 -0.0847
  149SAPE   H4X16483   3.029   5.657   6.969  0.7061  0.3763 -1.8178
  149SAPE   H4Y16484   3.090   5.496   7.040 -0.2047 -0.0022 -1.2430
  149SAPE   C3516485   2.930   5.575   7.146 -0.7902 -0.3105 -0.2715
  149SAPE   H5X16486   2.910   5.472   7.183 -1.8982 -0.7748 -2.0738
  149SAPE   H5Y16487   2.835   5.631   7.134  0.5247  1.9491 -0.7745
  149SAPE   C3616488   3.011   5.658   7.244 -0.5906  0.0591 -0.0071
  149SAPE   H6X16489   3.040   5.755   7.199 -1.1046 -0.2502 -1.0252
  149SAPE   H6Y16490   3.103   5.604   7.273 -1.3677 -0.6154  1.3210
  149SAPE   C3716491   2.925   5.691   7.373  0.7004 -0.0590 -0.2302
  149SAPE   H7X16492   2.877   5.594   7.397 -1.4605  0.2933 -2.6233
  149SAPE   H7Y16493   2.852   5.769   7.340  2.4240  1.5410 -0.4660
  149SAPE   C3816494   3.002   5.754   7.492  0.2659 -0.0365  0.6203
  149SAPE   H8X16495   3.046   5.849   7.453  1.8802 -0.3030  1.6646
  149SAPE   H8Y16496   3.090   5.694   7.526  0.2794  0.2508  1.1057
  149SAPE   C3916497   2.917   5.791   7.616  0.0777  0.4745  0.1972
  149SAPE   H9X16498   2.880   5.699   7.666  0.8217  0.1604  0.1941
  149SAPE   H9Y16499   2.825   5.838   7.576  1.5740  2.3664 -1.2232
  149SAPE  C31016500   3.001   5.878   7.709 -0.0057  0.9533  0.3177
  149SAPE  H10X16501   3.003   5.980   7.667 -1.1517  0.4524 -1.0136
  149SAPE  H10Y16502   3.101   5.835   7.688 -1.3265 -2.4937  0.3709
  149SAPE  C31116503   2.961   5.862   7.854  0.5321 -0.4408  0.1700
  149SAPE  H11X16504   3.050   5.892   7.914 -0.7683  2.3072  0.8919
  149SAPE  H11Y16505   2.922   5.759   7.872  0.6876 -0.2506  1.8084
  149SAPE  C31216506   2.853   5.977   7.883 -0.0102  0.2407 -0.6970
  149SAPE  H12X16507   2.769   5.976   7.810  0.0833  2.0611 -0.8594
  149SAPE  H12Y16508   2.909   6.072   7.868 -0.4520  0.8523  1.3035
  149SAPE  C31316509   2.805   5.985   8.030 -0.4555 -0.4713 -0.0855
  149SAPE  H13X16510   2.899   5.980   8.089  0.1564 -1.4268 -1.0849
  149SAPE  H13Y16511   2.739   5.899   8.054 -1.2256  0.5855  1.7231
  149SAPE  C31416512   2.730   6.108   8.064  0.3695 -0.3480 -0.2945
  149SAPE  H14X16513   2.662   6.080   8.147  0.4410 -0.4765 -0.2774
  149SAPE  H14Y16514   2.668   6.115   7.972  1.0793 -1.0884 -0.8439
  149SAPE  C31516515   2.812   6.239   8.073  0.5435 -0.6615  1.2618
  149SAPE  H15X16516   2.863   6.273   7.980 -0.5514 -1.6203  0.2607
  149SAPE  H15Y16517   2.896   6.217   8.142  0.0167 -1.3976  1.6867
  149SAPE  C31616518   2.736   6.364   8.123  0.3906 -0.3028 -0.7552
  149SAPE  H16X16519   2.809   6.447   8.128 -0.8700  0.8626 -1.1407
  149SAPE  H16Y16520   2.703   6.337   8.226  0.8741 -0.4897 -0.6468
  149SAPE  C31716521   2.628   6.425   8.035  0.0181  0.1571 -0.1387
  149SAPE  H17X16522   2.527   6.381   8.051  0.3065 -0.8149 -0.8662
  149SAPE  H17Y16523   2.650   6.396   7.931 -0.5724 -0.0631 -0.2031
  149SAPE  C31816524   2.613   6.574   8.063  0.3376 -0.0719 -0.1407
  149SAPE  H18X16525   2.706   6.627   8.033 -0.0249  1.8315  1.9303
  149SAPE  H18Y16526   2.591   6.590   8.170 -1.0311  0.9775 -0.5521
  149SAPE  H18Z16527   2.523   6.608   8.007  0.4479 -1.1085 -0.9829
  150SAPE     N16528   1.840   0.826   6.043  0.7558 -0.5044 -0.3005
  150SAPE   HN116529   1.746   0.869   6.033  0.2500 -1.5126  0.0534
  150SAPE   HN216530   1.845   0.738   5.988 -1.0902 -0.4717 -0.5845
  150SAPE   HN316531   1.843   0.797   6.143 -1.7029 -0.7778 -0.2347
  150SAPE   C1216532   1.946   0.922   6.016 -0.2544  0.2784  0.5517
  150SAPE  H12A16533   1.973   0.908   5.909  0.6075  0.7048  0.7052
  150SAPE  H12B16534   2.029   0.890   6.083  0.1033  1.3561  0.6450
  150SAPE   C1116535   1.897   1.055   6.050 -0.2965 -0.7764 -0.0148
  150SAPE  H11A16536   1.808   1.087   5.991  0.8625  2.2884 -0.2918
  150SAPE  H11B16537   1.976   1.121   6.009 -0.5214 -0.9954 -0.8055
  150SAPE     P16538   1.812   1.207   6.246  0.1342  0.3577 -0.9432
  150SAPE   O1316539   1.855   1.321   6.167  0.6290 -0.6767  0.3843
  150SAPE   O1416540   1.669   1.181   6.236  0.2114 -0.2301 -0.2071
  150SAPE   O1216541   1.884   1.075   6.189  0.4147 -0.7903  0.1591
  150SAPE   O1116542   1.870   1.217   6.393  0.4317 -0.3125 -0.1110
  150SAPE    C116543   1.897   1.095   6.463  0.3153 -0.1802  0.7572
  150SAPE    HA16544   1.886   1.002   6.404  0.7284 -0.3872  0.9957
  150SAPE    HB16545   2.003   1.089   6.495  0.3057 -2.5563  0.5324
  150SAPE    C216546   1.802   1.071   6.580 -0.4235  0.1510 -1.1234
  150SAPE    HS16547   1.712   1.084   6.516  0.9331  1.7302 -2.8471
  150SAPE   O2116548   1.824   1.170   6.684 -0.3380  0.2752 -0.3348
  150SAPE   C2116549   1.717   1.216   6.746  0.8444 -0.4812  0.2166
  150SAPE   O2216550   1.599   1.185   6.718 -0.1155  0.8083 -0.1202
  150SAPE   C2216551   1.758   1.322   6.850  0.1800  0.4652 -0.0176
  150SAPE   H2R16552   1.853   1.286   6.896 -0.8935 -2.7067 -0.0258
  150SAPE   H2S16553   1.767   1.408   6.781 -0.3693  1.1288  0.7214
  150SAPE    C316554   1.805   0.918   6.635 -0.2910 -0.8744  0.7092
  150SAPE    HX16555   1.905   0.907   6.681  0.2856 -0.3322 -0.3999
  150SAPE    HY16556   1.797   0.863   6.539  1.7369 -2.3691  1.3332
  150SAPE   O3116557   1.703   0.906   6.728 -0.2679  0.2055 -0.2346
  150SAPE   C3116558   1.624   0.798   6.711 -0.0228 -0.1678 -0.6345
  150SAPE   O3216559   1.641   0.711   6.627 -0.0693  0.2270 -0.3247
  150SAPE   C3216560   1.520   0.777   6.819 -0.1922 -0.4197  0.9434
  150SAPE   H2X16561   1.479   0.676   6.799  1.4548 -0.7789 -0.8736
  150SAPE   H2Y16562   1.436   0.849   6.804 -0.5773 -1.2585 -1.3460
  150SAPE   C2316563   1.657   1.324   6.978 -0.1875  0.1222 -0.2721
  150SAPE   H3R16564   1.693   1.239   7.039  3.6293  1.8009  0.0950
  150SAPE   H3S16565   1.555   1.303   6.938 -0.0200  0.9895 -1.2033
  150SAPE   C2416566   1.657   1.455   7.052 -0.2328 -0.1424  0.7081
  150SAPE   H4R16567   1.561   1.460   7.107 -1.3456  3.2883 -1.2025
  150SAPE   H4S16568   1.657   1.549   6.993 -1.3574  0.0337  0.9723
  150SAPE   C2516569   1.777   1.452   7.144 -0.5456  0.0011  0.5129
  150SAPE   H5R16570   1.872   1.417   7.102 -1.1613 -0.3507 -0.6255
  150SAPE   C2616571   1.771   1.497   7.274  0.0512  0.6848  0.0334
  150SAPE   H6R16572   1.864   1.499   7.332  0.1129  0.4809 -0.0565
  150SAPE   C2716573   1.648   1.553   7.350 -0.3739  0.4561 -0.0810
  150SAPE   H7R16574   1.568   1.479   7.328  0.7098 -0.1349 -2.3168
  150SAPE   H7S16575   1.628   1.662   7.338 -4.1649  0.0303  1.0461
  150SAPE   C2816576   1.669   1.519   7.497  0.4638 -0.6688  0.7862
  150SAPE   H8R16577   1.680   1.411   7.515  0.2521 -0.5282  1.8076
  150SAPE   C2916578   1.674   1.594   7.606 -0.4197 -0.0934 -0.0274
  150SAPE   H9R16579   1.707   1.558   7.705  1.0639  0.0488 -0.4397
  150SAPE  C21016580   1.654   1.744   7.612 -0.0250  0.4781 -0.5000
  150SAPE  H10R16581   1.707   1.805   7.536 -2.9224  3.9720  0.0567
  150SAPE  H10S16582   1.687   1.789   7.708  0.4910 -2.0973  0.6161
  150SAPE  C21116583   1.504   1.770   7.596 -0.4339  0.3346 -0.1878
  150SAPE  H11R16584   1.470   1.790   7.493 -2.0184  3.0514  0.7362
  150SAPE  C21216585   1.425   1.783   7.703 -0.2467 -0.3195  0.9698
  150SAPE  H12R16586   1.325   1.820   7.677  0.0373 -1.5097 -2.3281
  150SAPE  C21316587   1.454   1.768   7.848 -0.0453  1.0118  0.4176
  150SAPE  H13R16588   1.552   1.722   7.874  0.0951  0.5038 -0.9173
  150SAPE  H13S16589   1.384   1.695   7.893 -0.6858  0.6580 -1.0921
  150SAPE  C21416590   1.440   1.887   7.935  0.3181 -0.2992 -0.0523
  150SAPE  H14R16591   1.381   1.969   7.891  1.7750  0.9631  0.2303
  150SAPE  C21516592   1.491   1.905   8.060  0.3181  0.2580  0.4662
  150SAPE  H15R16593   1.452   1.991   8.116 -1.4320 -0.7387  0.8644
  150SAPE  C21616594   1.581   1.820   8.143  0.9408  0.9715 -0.7136
  150SAPE  H16R16595   1.558   1.714   8.117 -4.6070  1.4158  1.0901
  150SAPE  H16S16596   1.559   1.842   8.249  1.7534  2.2340 -0.7905
  150SAPE  C21716597   1.729   1.839   8.119 -0.1109 -0.4812  0.8565
  150SAPE  H17R16598   1.747   1.948   8.135 -1.1666 -0.1479 -0.0722
  150SAPE  H17S16599   1.758   1.815   8.014 -1.1924 -0.5692  0.5597
  150SAPE  C21816600   1.817   1.758   8.208  0.6599  0.4329 -0.3987
  150SAPE  H18R16601   1.791   1.660   8.163 -0.3298  0.7995 -0.6377
  150SAPE  H18S16602   1.786   1.777   8.313  1.9424 -0.6227  0.2061
  150SAPE  C21916603   1.963   1.789   8.198 -0.2168 -0.9904 -0.2806
  150SAPE  H19R16604   1.973   1.893   8.236  0.4002 -1.0794 -0.1905
  150SAPE  H19S16605   1.990   1.782   8.091  3.5887  2.2194  0.2375
  150SAPE  C22016606   2.048   1.706   8.291 -0.7096  0.4588  0.6221
  150SAPE  H20R16607   2.037   1.750   8.393  0.5243  1.5153  0.3259
  150SAPE  H20S16608   2.156   1.703   8.263 -0.9283  1.6203 -0.4491
  150SAPE  H20T16609   2.025   1.598   8.283  0.8747  0.0662  0.9659
  150SAPE   C3316610   1.570   0.783   6.965 -0.5101  0.4564 -0.3883
  150SAPE   H3X16611   1.673   0.742   6.976 -0.5029  0.8035  0.9023
  150SAPE   H3Y16612   1.499   0.718   7.020 -0.1838  0.0886 -0.3912
  150SAPE   C3416613   1.564   0.920   7.034 -0.7693  0.0663  0.0095
  150SAPE   H4X16614   1.463   0.963   7.017 -1.1483 -0.5429  0.6665
  150SAPE   H4Y16615   1.639   0.993   6.998 -0.4242 -0.3492 -0.1309
  150SAPE   C3516616   1.600   0.912   7.179 -0.4703 -0.2563  0.6554
  150SAPE   H5X16617   1.696   0.857   7.172  0.1325  0.9216 -1.4149
  150SAPE   H5Y16618   1.521   0.853   7.230 -0.9532  0.6220  0.9418
  150SAPE   C3616619   1.596   1.042   7.264 -0.3609  0.0934 -0.3085
  150SAPE   H6X16620   1.515   1.111   7.233 -1.5420 -1.3818 -0.6382
  150SAPE   H6Y16621   1.679   1.112   7.244  0.1534  0.2177  1.9788
  150SAPE   C3716622   1.588   1.018   7.420  0.1822  0.0792  0.1837
  150SAPE   H7X16623   1.670   0.953   7.457 -0.0993 -0.2090  0.3073
  150SAPE   H7Y16624   1.491   0.969   7.441  1.0890 -1.7240  0.3926
  150SAPE   C3816625   1.600   1.146   7.492  0.3855 -0.0166  0.2828
  150SAPE   H8X16626   1.513   1.211   7.473  0.7332  0.4173  0.1594
  150SAPE   H8Y16627   1.686   1.200   7.447 -2.1551  1.3486 -3.3882
  150SAPE   C3916628   1.605   1.141   7.646 -0.7132 -0.0529 -0.1170
  150SAPE   H9X16629   1.644   1.237   7.687  2.1374 -0.4318 -1.6968
  150SAPE   H9Y16630   1.686   1.070   7.671  0.4291  0.5395 -1.9057
  150SAPE  C31016631   1.474   1.115   7.718 -0.0528 -0.7292  0.5287
  150SAPE  H10X16632   1.444   1.009   7.728  2.4477 -1.6922 -1.1556
  150SAPE  H10Y16633   1.388   1.166   7.670 -0.1282 -0.4288  0.9741
  150SAPE  C31116634   1.481   1.165   7.864 -0.1533  0.7001 -0.2246
  150SAPE  H11X16635   1.474   1.275   7.877 -0.2921  0.6107  0.4996
  150SAPE  H11Y16636   1.576   1.126   7.907 -1.1017  1.2631  2.5932
  150SAPE  C31216637   1.364   1.109   7.950 -0.2704 -0.4221  0.4578
  150SAPE  H12X16638   1.339   1.004   7.924  0.5484 -0.5760  0.2879
  150SAPE  H12Y16639   1.273   1.169   7.927 -0.2142 -0.0516  1.1543
  150SAPE  C31316640   1.406   1.107   8.095  0.5395  0.0818 -0.4358
  150SAPE  H13X16641   1.410   1.215   8.122 -0.5094 -0.1569  0.7341
  150SAPE  H13Y16642   1.507   1.061   8.097 -0.7667 -3.2416 -2.3807
  150SAPE  C31416643   1.303   1.034   8.192  1.1638  0.4408 -0.4521
  150SAPE  H14X16644   1.299   0.928   8.156  1.4083  1.0354 -2.3159
  150SAPE  H14Y16645   1.200   1.076   8.183  0.3644 -1.7449 -2.6520
  150SAPE  C31516646   1.350   1.032   8.338  0.4596  0.1678 -0.0757
  150SAPE  H15X16647   1.329   1.130   8.385  1.9495  0.7223 -0.5199
  150SAPE  H15Y16648   1.459   1.018   8.351  0.5212 -0.2076 -0.9162
  150SAPE  C31616649   1.284   0.913   8.405 -0.2849  1.2363 -0.1348
  150SAPE  H16X16650   1.294   0.815   8.353  2.4837  2.1133 -1.4338
  150SAPE  H16Y16651   1.176   0.938   8.397  0.3361  4.3620 -0.0310
  150SAPE  C31716652   1.324   0.881   8.546 -0.5738  0.5567 -0.1817
  150SAPE  H17X16653   1.339   0.974   8.605 -1.8598  0.5686  0.1499
  150SAPE  H17Y16654   1.420   0.827   8.538 -0.8185 -0.2636  1.8653
  150SAPE  C31816655   1.219   0.800   8.624  0.5477  0.3933 -0.1097
  150SAPE  H18X16656   1.261   0.794   8.726  0.2434  0.6714  0.0368
  150SAPE  H18Y16657   1.196   0.707   8.568  2.1822 -0.1264  0.0435
  150SAPE  H18Z16658   1.124   0.857   8.634  0.1744  0.1443 -1.8698
  151SAPE     N16659   4.550   1.412   6.348 -0.4579  0.1315 -0.0967
  151SAPE   HN116660   4.507   1.424   6.254 -1.2757 -1.0284  0.1015
  151SAPE   HN216661   4.653   1.405   6.337  0.0182  0.8434  2.9750
  151SAPE   HN316662   4.524   1.318   6.385  1.4023 -1.2133 -1.9849
  151SAPE   C1216663   4.523   1.510   6.458 -0.0001 -0.2392  0.6908
  151SAPE  H12A16664   4.547   1.459   6.554 -0.8515 -0.5774  0.7385
  151SAPE  H12B16665   4.415   1.535   6.448  0.3271  0.4484 -1.9363
  151SAPE   C1116666   4.621   1.633   6.446  1.0584  0.8210 -0.9063
  151SAPE  H11A16667   4.594   1.701   6.530  0.6741 -0.2159 -0.1780
  151SAPE  H11B16668   4.597   1.689   6.353 -0.4257  1.2268 -0.3061
  151SAPE     P16669   4.856   1.567   6.331  0.0285  0.3316 -0.1929
  151SAPE   O1316670   4.798   1.449   6.261 -0.3881  0.0565 -0.4700
  151SAPE   O1416671   4.875   1.690   6.250  0.0754 -0.9326  0.4595
  151SAPE   O1216672   4.761   1.598   6.457 -0.4717 -0.3923 -0.3525
  151SAPE   O1116673   4.985   1.524   6.405 -0.2255  0.4787  0.4946
  151SAPE    C116674   4.998   1.473   6.537 -0.2288  0.4440 -0.0974
  151SAPE    HA16675   4.915   1.402   6.558  0.1772 -0.3185 -0.9887
  151SAPE    HB16676   5.098   1.427   6.545  0.1900  1.0037 -1.7124
  151SAPE    C216677   4.999   1.597   6.639 -1.8147 -0.5611  0.3177
  151SAPE    HS16678   4.904   1.654   6.633 -0.0827  2.7496  1.9478
  151SAPE   O2116679   5.117   1.677   6.612 -0.0788 -0.8106 -0.4207
  151SAPE   C2116680   5.110   1.802   6.574 -0.0509 -0.0372 -0.1028
  151SAPE   O2216681   5.008   1.879   6.574  0.2403  0.1629 -0.0718
  151SAPE   C2216682   5.242   1.847   6.523 -0.2993 -0.3437  0.2637
  151SAPE   H2R16683   5.277   1.763   6.459 -1.5258 -1.3694  0.8887
  151SAPE   H2S16684   5.246   1.938   6.459  0.3641 -0.0411  0.7316
  151SAPE    C316685   5.031   1.537   6.783  0.6462 -0.7512 -0.3973
  151SAPE    HX16686   5.134   1.495   6.776  0.8233 -0.0082 -3.3233
  151SAPE    HY16687   4.956   1.461   6.812 -0.1002  0.9995  2.7795
  151SAPE   O3116688   5.023   1.642   6.889 -0.8472  0.3078  0.7518
  151SAPE   C3116689   4.902   1.679   6.930  0.2135 -0.4042 -1.2157
  151SAPE   O3216690   4.801   1.637   6.882  0.2261  0.1506 -0.8573
  151SAPE   C3216691   4.921   1.795   7.035  0.2882  0.0173 -0.2081
  151SAPE   H2X16692   4.950   1.878   6.968 -1.2348  0.2931 -0.5622
  151SAPE   H2Y16693   5.002   1.771   7.107 -1.2173  0.4172  1.7166
  151SAPE   C2316694   5.353   1.874   6.631 -0.1462 -0.3266  0.1874
  151SAPE   H3R16695   5.449   1.903   6.583 -0.5210 -1.6665 -1.4446
  151SAPE   H3S16696   5.363   1.783   6.694  2.6106  0.4997  1.1022
  151SAPE   C2416697   5.312   1.985   6.728  0.3213  0.5878 -0.6717
  151SAPE   H4R16698   5.205   1.969   6.755  0.4560 -0.3300 -0.6539
  151SAPE   H4S16699   5.311   2.086   6.681 -2.5481  1.4167  0.9099
  151SAPE   C2516700   5.395   2.000   6.853  0.1044 -0.4566  0.6574
  151SAPE   H5R16701   5.460   2.089   6.849 -0.3712 -0.1160  0.4413
  151SAPE   C2616702   5.397   1.914   6.954 -0.0383  0.2624 -0.2397
  151SAPE   H6R16703   5.479   1.925   7.027  1.1845  0.9104 -1.6585
  151SAPE   C2716704   5.308   1.793   6.978 -0.1584  0.1951  0.0830
  151SAPE   H7R16705   5.263   1.753   6.884 -0.8663 -1.6211  1.1355
  151SAPE   H7S16706   5.223   1.817   7.045  2.0368 -0.7073  3.4294
  151SAPE   C2816707   5.379   1.673   7.033  0.3987  0.7165 -0.1336
  151SAPE   H8R16708   5.478   1.649   6.990  1.2175  3.3397  0.1146
  151SAPE   C2916709   5.355   1.603   7.147  0.7075 -0.2999  0.3061
  151SAPE   H9R16710   5.413   1.512   7.172 -0.1421 -0.3893  2.1124
  151SAPE  C21016711   5.251   1.636   7.246 -0.4386  0.0521  0.0333
  151SAPE  H10R16712   5.155   1.588   7.217 -0.4836 -0.1156  0.4470
  151SAPE  H10S16713   5.239   1.746   7.231 -1.1650 -0.1583 -1.0799
  151SAPE  C21116714   5.282   1.590   7.388  0.0382  0.7010  0.4590
  151SAPE  H11R16715   5.278   1.481   7.393  3.6189  0.3245 -1.6508
  151SAPE  C21216716   5.333   1.664   7.486  0.4501  0.7092 -0.4778
  151SAPE  H12R16717   5.364   1.616   7.580  0.8022 -0.1486 -1.0150
  151SAPE  C21316718   5.359   1.811   7.497 -0.7061 -0.5262  0.2020
  151SAPE  H13R16719   5.354   1.843   7.603 -0.5302 -0.0361  0.0635
  151SAPE  H13S16720   5.282   1.875   7.450 -0.7028 -0.2564  0.5682
  151SAPE  C21416721   5.495   1.842   7.442 -0.2181  0.4575  0.5820
  151SAPE  H14R16722   5.495   1.864   7.334  0.3653 -0.4602  0.3873
  151SAPE  C21516723   5.613   1.830   7.506 -0.0680 -0.2610 -0.6558
  151SAPE  H15R16724   5.703   1.870   7.458  0.0416 -0.0442 -0.2757
  151SAPE  C21616725   5.637   1.790   7.650  0.1079 -0.4092 -0.1842
  151SAPE  H16R16726   5.543   1.794   7.709 -0.5954 -2.6260 -1.0533
  151SAPE  H16S16727   5.707   1.863   7.696  0.0106  1.0305 -2.1719
  151SAPE  C21716728   5.696   1.647   7.670 -0.1714 -1.1296  0.3327
  151SAPE  H17R16729   5.800   1.629   7.635 -0.4448 -3.3759  0.5697
  151SAPE  H17S16730   5.626   1.585   7.610  0.9082 -2.9958  0.9367
  151SAPE  C21816731   5.682   1.596   7.815  0.4217  0.0176 -0.2229
  151SAPE  H18R16732   5.581   1.624   7.852  1.1935 -0.7239  2.7589
  151SAPE  H18S16733   5.767   1.644   7.867  0.7887 -0.6837 -0.1521
  151SAPE  C21916734   5.694   1.441   7.822  0.5891  0.1346  0.4272
  151SAPE  H19R16735   5.794   1.415   7.782  0.6897  0.0473  0.7345
  151SAPE  H19S16736   5.609   1.411   7.757 -1.3769  2.2211  1.8694
  151SAPE  C22016737   5.670   1.374   7.958  0.1403 -0.7997 -0.1224
  151SAPE  H20R16738   5.559   1.365   7.962 -0.0419 -0.2473 -2.5277
  151SAPE  H20S16739   5.718   1.274   7.960  0.1086 -0.8519  2.5609
  151SAPE  H20T16740   5.713   1.446   8.031  1.2630  0.2561 -1.7566
  151SAPE   C3316741   4.785   1.830   7.104 -0.2350 -0.7206  0.2688
  151SAPE   H3X16742   4.695   1.862   7.046  0.1198 -0.2824 -0.0503
  151SAPE   H3Y16743   4.809   1.917   7.168  1.0108 -1.5776  1.0019
  151SAPE   C3416744   4.750   1.723   7.220  1.0126  0.2710  0.8591
  151SAPE   H4X16745   4.750   1.621   7.177  1.5720 -0.1894  1.9208
  151SAPE   H4Y16746   4.649   1.757   7.252  0.3775 -0.0118 -0.7262
  151SAPE   C3516747   4.836   1.740   7.346 -0.1382 -0.4886  0.0408
  151SAPE   H5X16748   4.934   1.780   7.312 -0.8920  1.4178 -0.0350
  151SAPE   H5Y16749   4.845   1.647   7.406  0.1869 -0.2753  0.3295
  151SAPE   C3616750   4.780   1.838   7.450 -0.1056 -0.2462  0.3962
  151SAPE   H6X16751   4.707   1.778   7.509  1.8216 -1.3622  1.7573
  151SAPE   H6Y16752   4.728   1.918   7.393  1.3669  0.0699 -0.5729
  151SAPE   C3716753   4.879   1.898   7.544 -0.4864  0.7147  0.0459
  151SAPE   H7X16754   4.837   1.964   7.623 -1.8691 -0.0151 -0.0587
  151SAPE   H7Y16755   4.947   1.955   7.477  1.1242  1.2938  2.0708
  151SAPE   C3816756   4.961   1.788   7.612  0.1799 -0.3580 -0.1066
  151SAPE   H8X16757   5.022   1.741   7.532  1.5048 -0.5935  1.0033
  151SAPE   H8Y16758   4.894   1.711   7.655 -0.3324 -0.0869 -0.4111
  151SAPE   C3916759   5.065   1.852   7.705 -0.2561 -0.5721  0.0408
  151SAPE   H9X16760   5.015   1.939   7.752  1.8780 -0.2769  1.9228
  151SAPE   H9Y16761   5.144   1.897   7.641 -1.2238  1.7441  0.3928
  151SAPE  C31016762   5.120   1.762   7.809 -0.7203  0.4097  0.7408
  151SAPE  H10X16763   5.163   1.669   7.766  0.6829 -0.9629  4.7143
  151SAPE  H10Y16764   5.043   1.727   7.881 -0.7796 -0.3815  0.3014
  151SAPE  C31116765   5.232   1.835   7.887 -0.1549  0.3988 -0.1600
  151SAPE  H11X16766   5.179   1.918   7.940 -1.5639 -0.3432 -0.3516
  151SAPE  H11Y16767   5.300   1.884   7.815 -0.1738  0.9749  0.2068
  151SAPE  C31216768   5.305   1.743   7.990 -0.0416 -0.5194  0.5823
  151SAPE  H12X16769   5.412   1.774   7.985 -0.3153  0.8224  2.2059
  151SAPE  H12Y16770   5.308   1.639   7.952 -0.9321 -1.0158  1.8223
  151SAPE  C31316771   5.248   1.738   8.135 -0.1520 -0.3544  0.4968
  151SAPE  H13X16772   5.138   1.739   8.122  0.0448 -0.4652 -1.3999
  151SAPE  H13Y16773   5.298   1.823   8.186  0.0786 -0.2924  0.1718
  151SAPE  C31416774   5.290   1.612   8.210 -0.1693  0.5323 -0.1741
  151SAPE  H14X16775   5.259   1.528   8.144  0.3851 -0.9736  1.4056
  151SAPE  H14Y16776   5.229   1.594   8.301 -0.2883 -2.0862 -0.6857
  151SAPE  C31516777   5.444   1.619   8.234  0.6695 -0.7181 -0.0314
  151SAPE  H15X16778   5.470   1.704   8.300  1.5321 -2.2559  1.6894
  151SAPE  H15Y16779   5.506   1.626   8.142 -0.5483  1.0855 -0.7734
  151SAPE  C31616780   5.501   1.497   8.318 -0.3374 -0.4668 -0.2432
  151SAPE  H16X16781   5.468   1.401   8.274  0.5968 -0.5463 -0.7967
  151SAPE  H16Y16782   5.452   1.498   8.418  0.5867  0.3380  0.2244
  151SAPE  C31716783   5.655   1.531   8.340  0.0522 -0.0237  0.4173
  151SAPE  H17X16784   5.676   1.623   8.399 -0.9726  0.9120 -0.6289
  151SAPE  H17Y16785   5.694   1.565   8.242  0.1288 -1.5798 -0.1194
  151SAPE  C31816786   5.737   1.420   8.384  0.3394  0.1234 -0.2078
  151SAPE  H18X16787   5.742   1.419   8.495  2.0892  1.2724 -0.2359
  151SAPE  H18Y16788   5.841   1.441   8.349  0.6310 -1.5297 -0.4228
  151SAPE  H18Z16789   5.710   1.324   8.336 -0.4826  0.1764  0.1441
  152SAPE     N16790   1.187   2.345   6.231  0.0725 -0.2880 -0.2789
  152SAPE   HN116791   1.096   2.388   6.204 -0.1499 -1.6002 -1.7774
  152SAPE   HN216792   1.260   2.372   6.161  1.9769 -0.5586  1.5152
  152SAPE   HN316793   1.182   2.243   6.213  4.7134 -0.6305 -0.9537
  152SAPE   C1216794   1.247   2.358   6.370  0.1074 -0.4247 -0.2135
  152SAPE  H12A16795   1.340   2.299   6.353  0.6199  0.7924 -1.9683
  152SAPE  H12B16796   1.183   2.305   6.442  1.8231  0.1336  1.8289
  152SAPE   C1116797   1.286   2.502   6.407  0.1257  0.0015 -0.0971
  152SAPE  H11A16798   1.337   2.506   6.505  0.1044 -1.2595 -0.0156
  152SAPE  H11B16799   1.192   2.556   6.432 -0.4772 -0.6074 -1.0236
  152SAPE     P16800   1.516   2.579   6.281  0.0785 -0.0524 -0.3926
  152SAPE   O1316801   1.558   2.459   6.211  0.2382  1.0690 -0.4288
  152SAPE   O1416802   1.555   2.706   6.214 -0.0484  0.2537  0.4052
  152SAPE   O1216803   1.357   2.568   6.306 -0.4827  0.2004  0.2776
  152SAPE   O1116804   1.571   2.568   6.432 -0.0742  0.0761 -0.1718
  152SAPE    C116805   1.702   2.525   6.442  0.1300  0.4084 -0.2691
  152SAPE    HA16806   1.718   2.422   6.403 -0.6073  0.3588 -0.4670
  152SAPE    HB16807   1.769   2.594   6.388 -1.7178  1.5843 -1.1577
  152SAPE    C216808   1.743   2.517   6.593  0.0977  0.6367  0.2167
  152SAPE    HS16809   1.671   2.446   6.639 -0.9405  0.4515 -1.5669
  152SAPE   O2116810   1.744   2.643   6.646  0.0133 -0.4609 -0.1465
  152SAPE   C2116811   1.640   2.689   6.708  0.1602 -0.2982 -0.9494
  152SAPE   O2216812   1.537   2.627   6.725 -0.5182 -0.4245 -0.3298
  152SAPE   C2216813   1.663   2.836   6.738 -0.0411 -0.5130 -0.3997
  152SAPE   H2R16814   1.772   2.852   6.746 -0.4509  2.8809 -0.2304
  152SAPE   H2S16815   1.630   2.895   6.650 -2.3435 -0.7381  0.2407
  152SAPE    C316816   1.878   2.440   6.602 -0.1591 -0.3283 -0.0566
  152SAPE    HX16817   1.945   2.488   6.527 -1.7823  3.3822  0.6434
  152SAPE    HY16818   1.856   2.335   6.573  0.5827 -0.3353 -0.6293
  152SAPE   O3116819   1.947   2.448   6.726  0.5158  0.6023  0.3475
  152SAPE   C3116820   1.882   2.393   6.829  0.1712 -0.7291 -0.1552
  152SAPE   O3216821   1.790   2.314   6.831 -0.3319 -0.1360  0.0306
  152SAPE   C3216822   1.931   2.472   6.952 -0.1005 -0.2986 -0.6862
  152SAPE   H2X16823   1.901   2.578   6.937 -0.4935 -0.2530  0.3427
  152SAPE   H2Y16824   2.042   2.465   6.956 -0.0816  0.5966  1.5924
  152SAPE   C2316825   1.586   2.892   6.856 -0.5592  0.0425 -0.1808
  152SAPE   H3R16826   1.480   2.863   6.846  0.0137 -1.7915 -1.5603
  152SAPE   H3S16827   1.577   3.002   6.843  0.7823  0.0829 -0.9901
  152SAPE   C2416828   1.648   2.846   6.989 -0.3937 -0.0938 -0.7963
  152SAPE   H4R16829   1.757   2.866   6.985 -0.3647  0.1644  0.7829
  152SAPE   H4S16830   1.627   2.739   7.006 -0.0699  0.3679  4.0133
  152SAPE   C2516831   1.582   2.924   7.101 -0.2332 -0.4507  0.3416
  152SAPE   H5R16832   1.489   2.969   7.064  0.3090  0.6923  0.3275
  152SAPE   C2616833   1.622   2.947   7.228 -0.5777 -0.4004 -0.4906
  152SAPE   H6R16834   1.555   3.001   7.297  1.9596  0.9737  1.0256
  152SAPE   C2716835   1.748   2.888   7.285 -0.1246  0.3238  0.0333
  152SAPE   H7R16836   1.835   2.954   7.263  0.0087 -0.2301 -1.1654
  152SAPE   H7S16837   1.769   2.790   7.239  1.4801  0.0331  1.2890
  152SAPE   C2816838   1.724   2.856   7.434 -0.1747  0.0308  0.0480
  152SAPE   H8R16839   1.698   2.749   7.443 -1.1583  0.0997 -1.5530
  152SAPE   C2916840   1.744   2.926   7.545  0.4289 -0.2437  0.2212
  152SAPE   H9R16841   1.726   2.876   7.641  0.6046  0.5974  0.6996
  152SAPE  C21016842   1.781   3.074   7.553  0.0491  0.1895 -0.2207
  152SAPE  H10R16843   1.688   3.134   7.540  0.5214  1.0263  0.2170
  152SAPE  H10S16844   1.854   3.108   7.476  3.0940 -0.9843  1.9723
  152SAPE  C21116845   1.840   3.114   7.687  0.1014 -0.0013 -0.6388
  152SAPE  H11R16846   1.886   3.036   7.750  1.1395  1.8545  1.0227
  152SAPE  C21216847   1.832   3.236   7.748  0.4244  0.1556 -0.8306
  152SAPE  H12R16848   1.862   3.251   7.853 -2.7471 -1.6408  0.4976
  152SAPE  C21316849   1.769   3.353   7.673  0.2917  0.7665  0.4826
  152SAPE  H13R16850   1.664   3.350   7.710  0.5024  0.7056  1.0716
  152SAPE  H13S16851   1.767   3.334   7.563 -0.9751  0.5006  0.5279
  152SAPE  C21416852   1.822   3.498   7.698 -0.6784  0.4020  0.6963
  152SAPE  H14R16853   1.888   3.526   7.614 -1.9021 -0.2727 -0.5338
  152SAPE  C21516854   1.789   3.578   7.803  0.4504  0.3156 -1.2706
  152SAPE  H15R16855   1.830   3.678   7.823 -0.2248 -0.0027  2.5771
  152SAPE  C21616856   1.689   3.532   7.910 -0.5334  0.9252  0.1498
  152SAPE  H16R16857   1.703   3.422   7.921 -0.4496  1.1263  2.5139
  152SAPE  H16S16858   1.587   3.560   7.877 -0.6327  0.8469  0.3883
  152SAPE  C21716859   1.692   3.592   8.049 -0.5229 -0.1816 -0.7005
  152SAPE  H17R16860   1.647   3.694   8.059  1.2422  0.6811 -1.1239
  152SAPE  H17S16861   1.793   3.612   8.090  0.6680  2.6952 -4.4180
  152SAPE  C21816862   1.630   3.498   8.162 -0.3188  0.5392  0.6399
  152SAPE  H18R16863   1.671   3.398   8.138  1.9464  1.5039  0.2459
  152SAPE  H18S16864   1.520   3.492   8.153 -0.4012  1.5360  0.8838
  152SAPE  C21916865   1.657   3.549   8.303  0.0788  0.0623  1.1650
  152SAPE  H19R16866   1.575   3.524   8.374 -0.1912  1.4568  1.3655
  152SAPE  H19S16867   1.654   3.659   8.289 -0.1057 -0.1993 -1.0763
  152SAPE  C22016868   1.795   3.520   8.360 -0.7487 -0.1787 -0.3784
  152SAPE  H20R16869   1.806   3.413   8.388 -1.3505 -0.7945 -2.3432
  152SAPE  H20S16870   1.802   3.567   8.460 -3.0439 -0.0149 -0.2537
  152SAPE  H20T16871   1.879   3.553   8.295 -1.2188 -0.7501 -1.2964
  152SAPE   C3316872   1.894   2.424   7.096 -0.2945  0.8176  0.6780
  152SAPE   H3X16873   1.934   2.323   7.116  2.4904  1.6174 -0.4166
  152SAPE   H3Y16874   1.784   2.411   7.107 -0.1695  0.6269  1.8804
  152SAPE   C3416875   1.948   2.516   7.200  0.7559 -0.2459  0.1488
  152SAPE   H4X16876   1.925   2.623   7.179  1.1138 -0.3454 -0.8185
  152SAPE   H4Y16877   2.059   2.517   7.197  0.8841  4.0863 -0.4239
  152SAPE   C3516878   1.911   2.486   7.344  0.1718  0.0226 -0.2908
  152SAPE   H5X16879   1.920   2.375   7.354 -3.2102 -0.2308  1.4087
  152SAPE   H5Y16880   1.803   2.504   7.365  0.4306  0.7786  0.4290
  152SAPE   C3616881   1.993   2.564   7.446 -0.2204 -0.2818  0.2073
  152SAPE   H6X16882   1.984   2.673   7.428  0.2413 -0.2098  0.3959
  152SAPE   H6Y16883   2.101   2.540   7.439  0.3274  1.7111  1.0390
  152SAPE   C3716884   1.939   2.542   7.590  0.1710  0.9981  0.5934
  152SAPE   H7X16885   1.943   2.433   7.608  0.9184  0.8743 -0.2319
  152SAPE   H7Y16886   1.832   2.573   7.593  0.0710  0.9015 -1.0154
  152SAPE   C3816887   2.010   2.623   7.702 -0.6408 -0.2642  0.4569
  152SAPE   H8X16888   1.987   2.730   7.681  1.4126  0.3112  0.9725
  152SAPE   H8Y16889   2.117   2.605   7.679 -0.9427 -0.0633 -1.2551
  152SAPE   C3916890   1.974   2.593   7.843  0.1678 -0.0883 -1.0047
  152SAPE   H9X16891   2.020   2.499   7.882  2.5147  2.1418  2.0197
  152SAPE   H9Y16892   1.864   2.594   7.859  0.2654 -0.7594 -0.2017
  152SAPE  C31016893   2.040   2.688   7.952 -0.2592 -0.2780  0.1225
  152SAPE  H10X16894   2.150   2.695   7.953 -0.1609 -1.5101 -0.7408
  152SAPE  H10Y16895   2.001   2.643   8.046 -0.3528 -0.5333 -0.0392
  152SAPE  C31116896   1.986   2.830   7.955  0.7544 -0.4957 -0.3795
  152SAPE  H11X16897   1.876   2.820   7.958  0.6751  0.5680  0.9499
  152SAPE  H11Y16898   2.011   2.892   7.866 -0.6868  2.6097  1.2282
  152SAPE  C31216899   2.049   2.908   8.075 -0.3720 -0.0485  0.3634
  152SAPE  H12X16900   2.155   2.935   8.056  0.1464 -2.3763 -0.2801
  152SAPE  H12Y16901   2.056   2.833   8.156  0.8650 -1.0769 -0.6647
  152SAPE  C31316902   1.979   3.034   8.124  0.1081 -0.2443 -0.3540
  152SAPE  H13X16903   1.970   3.112   8.046 -0.6404 -2.2926 -2.4494
  152SAPE  H13Y16904   2.046   3.076   8.202  1.0512 -0.9021 -0.7893
  152SAPE  C31416905   1.842   3.011   8.177 -0.8219 -0.1899  0.3233
  152SAPE  H14X16906   1.835   2.929   8.251 -1.8975 -0.8444 -0.4770
  152SAPE  H14Y16907   1.781   2.980   8.089 -0.0498 -0.7648 -0.0138
  152SAPE  C31516908   1.777   3.134   8.247 -0.2054  1.0446 -0.2156
  152SAPE  H15X16909   1.748   3.203   8.165  0.8615 -1.2704 -2.7133
  152SAPE  H15Y16910   1.854   3.180   8.312  1.0638  0.0082 -0.9322
  152SAPE  C31616911   1.642   3.091   8.318 -0.1684 -0.6097  0.5183
  152SAPE  H16X16912   1.667   3.029   8.406  0.1189 -2.4038 -0.7613
  152SAPE  H16Y16913   1.589   3.019   8.252 -1.3829 -0.7912  1.6584
  152SAPE  C31716914   1.552   3.212   8.359 -0.9263  0.0213  0.0587
  152SAPE  H17X16915   1.497   3.238   8.266 -2.0757 -1.8362  0.1574
  152SAPE  H17Y16916   1.611   3.298   8.395 -3.5033  1.7674  0.3420
  152SAPE  C31816917   1.464   3.176   8.477  0.3280 -0.4494 -0.0103
  152SAPE  H18X16918   1.519   3.106   8.544  0.2741  0.0121  0.5281
  152SAPE  H18Y16919   1.383   3.113   8.434 -0.0262  0.8685 -1.3170
  152SAPE  H18Z16920   1.406   3.260   8.521 -1.6713 -0.4683 -2.3727
  153SAPE     N16921   5.732   2.392   5.864  0.2316 -0.3606 -0.2993
  153SAPE   HN116922   5.691   2.368   5.771  0.2314 -1.3089 -0.0622
  153SAPE   HN216923   5.653   2.404   5.930 -0.9633 -3.9837 -0.8112
  153SAPE   HN316924   5.784   2.482   5.855 -2.2155  1.0832 -0.9308
  153SAPE   C1216925   5.809   2.270   5.913 -0.2934  0.2792  0.1978
  153SAPE  H12A16926   5.861   2.219   5.829 -0.3663  2.4969 -1.2470
  153SAPE  H12B16927   5.731   2.200   5.950 -1.9258  0.3228 -2.8602
  153SAPE   C1116928   5.917   2.294   6.023  0.5457 -0.7458 -0.4009
  153SAPE  H11A16929   5.955   2.198   6.064 -1.8102 -2.4136 -1.8767
  153SAPE  H11B16930   5.863   2.329   6.114 -0.7551 -2.4189 -0.4886
  153SAPE     P16931   6.016   2.532   5.999 -0.2568  0.5254  0.1142
  153SAPE   O1316932   6.148   2.577   5.959 -0.6061  0.6292 -0.4235
  153SAPE   O1416933   5.907   2.587   5.919  0.3475 -0.0711  0.4382
  153SAPE   O1216934   6.024   2.379   5.987  0.5408  0.2966 -0.0556
  153SAPE   O1116935   5.998   2.548   6.146 -0.0814 -0.5879 -0.1874
  153SAPE    C116936   6.105   2.512   6.240 -1.0140  0.2948 -0.5162
  153SAPE    HA16937   6.198   2.482   6.187  0.8126 -0.7530  2.9799
  153SAPE    HB16938   6.144   2.600   6.296 -0.4706  0.7929 -1.6440
  153SAPE    C216939   6.074   2.402   6.350  0.1577 -0.1385 -0.7825
  153SAPE    HS16940   6.035   2.320   6.285  0.2580  0.8121 -2.0799
  153SAPE   O2116941   5.975   2.448   6.446 -0.2314  0.3465  0.1532
  153SAPE   C2116942   5.874   2.373   6.461  1.2000  0.2652  0.3804
  153SAPE   O2216943   5.846   2.273   6.401 -0.1237  0.8260 -0.0677
  153SAPE   C2216944   5.774   2.445   6.552  0.4914 -0.0117 -0.0162
  153SAPE   H2R16945   5.820   2.464   6.652 -1.1061  0.4806  0.6682
  153SAPE   H2S16946   5.766   2.545   6.506 -0.2720  0.1288  0.3994
  153SAPE    C316947   6.207   2.351   6.419 -0.2657 -0.6732  0.0895
  153SAPE    HX16948   6.274   2.302   6.346  1.9847 -0.3863  1.8316
  153SAPE    HY16949   6.170   2.270   6.486  1.5906 -0.2305  1.7585
  153SAPE   O3116950   6.276   2.458   6.496 -0.3792  0.0321  1.0610
  153SAPE   C3116951   6.355   2.407   6.586  0.2797 -0.0415 -0.2389
  153SAPE   O3216952   6.379   2.286   6.594 -0.0201 -0.3577  0.3994
  153SAPE   C3216953   6.416   2.529   6.672  0.0068 -0.0675  0.3256
  153SAPE   H2X16954   6.338   2.582   6.731  0.5812  0.2668  0.8035
  153SAPE   H2Y16955   6.454   2.598   6.594 -0.9309 -0.0974 -0.1721
  153SAPE   C2316956   5.633   2.384   6.567  0.0020  0.2036 -0.7729
  153SAPE   H3R16957   5.599   2.326   6.479 -1.5992 -0.1769  0.0759
  153SAPE   H3S16958   5.560   2.467   6.577  1.0075  1.1402 -0.8636
  153SAPE   C2416959   5.625   2.283   6.682 -0.5708 -0.2098  0.4500
  153SAPE   H4R16960   5.516   2.269   6.695 -0.2704 -1.2151  2.1737
  153SAPE   H4S16961   5.673   2.334   6.768  1.5593 -2.0589  0.4556
  153SAPE   C2516962   5.694   2.157   6.653 -0.4689 -0.1853 -1.0529
  153SAPE   H5R16963   5.652   2.093   6.573  1.7802  2.1325 -4.3858
  153SAPE   C2616964   5.814   2.122   6.713  0.3567 -0.5308 -0.0091
  153SAPE   H6R16965   5.852   2.020   6.697 -5.6627 -3.1667 -0.1269
  153SAPE   C2716966   5.884   2.187   6.828 -0.3260 -0.2877 -0.5804
  153SAPE   H7R16967   5.883   2.112   6.909  2.9733 -0.1631 -0.3020
  153SAPE   H7S16968   5.826   2.273   6.869 -4.0541 -3.0511  0.4550
  153SAPE   C2816969   6.025   2.227   6.798 -0.1535 -0.8689  0.1474
  153SAPE   H8R16970   6.032   2.323   6.746 -1.0965 -0.2620  1.1060
  153SAPE   C2916971   6.123   2.142   6.796 -0.4268  0.2141 -0.2857
  153SAPE   H9R16972   6.218   2.170   6.747 -0.2978 -2.4357 -1.7653
  153SAPE  C21016973   6.128   2.002   6.855 -0.1758 -0.7581  0.2813
  153SAPE  H10R16974   6.031   1.950   6.841  0.4617 -1.6616 -0.9667
  153SAPE  H10S16975   6.161   2.006   6.961 -0.5519 -1.3868  0.4244
  153SAPE  C21116976   6.216   1.913   6.777 -0.0300  0.2921  0.2998
  153SAPE  H11R16977   6.203   1.923   6.669 -2.4367 -0.1469  0.5018
  153SAPE  C21216978   6.324   1.849   6.822  0.2238  0.1795  0.2134
  153SAPE  H12R16979   6.382   1.800   6.742 -2.2885  1.3541 -2.5016
  153SAPE  C21316980   6.382   1.850   6.963  0.1822 -0.4916 -0.2805
  153SAPE  H13R16981   6.326   1.922   7.026 -0.5752 -0.0232 -1.4500
  153SAPE  H13S16982   6.487   1.886   6.964 -0.0992  0.3194  1.2426
  153SAPE  C21416983   6.389   1.710   7.031  0.9413 -0.7950  0.4198
  153SAPE  H14R16984   6.435   1.628   6.973 -1.7775 -2.1037 -0.0208
  153SAPE  C21516985   6.331   1.679   7.145  0.6798  0.1865  0.4390
  153SAPE  H15R16986   6.353   1.575   7.173  2.3438 -0.9052 -4.1086
  153SAPE  C21616987   6.258   1.778   7.239  0.3531 -0.0540  0.5031
  153SAPE  H16R16988   6.284   1.880   7.205  0.4571 -0.9085 -2.2253
  153SAPE  H16S16989   6.301   1.765   7.340 -0.2121 -0.1763  0.7333
  153SAPE  C21716990   6.108   1.763   7.260  0.8839  0.3401 -0.4761
  153SAPE  H17R16991   6.083   1.836   7.339 -2.2077  0.8815 -1.8214
  153SAPE  H17S16992   6.074   1.664   7.298  1.2438  0.3815 -0.0429
  153SAPE  C21816993   6.018   1.794   7.142 -0.5513  0.4000 -0.4007
  153SAPE  H18R16994   6.027   1.711   7.069  0.8796  0.2624 -0.1028
  153SAPE  H18S16995   6.066   1.883   7.095 -0.0661  0.4899  0.2553
  153SAPE  C21916996   5.869   1.817   7.181 -0.0649  0.0216  0.4436
  153SAPE  H19R16997   5.876   1.893   7.262  2.7276 -0.3846  0.6831
  153SAPE  H19S16998   5.829   1.729   7.235  1.4145 -0.2707  1.1345
  153SAPE  C22016999   5.782   1.854   7.066  0.1728 -0.3172 -0.0401
  153SAPE  H20R17000   5.686   1.869   7.121  0.6119 -0.0222  0.6616
  153SAPE  H20S17001   5.779   1.773   6.990  1.1066 -1.4530  1.0898
  153SAPE  H20T17002   5.818   1.945   7.014  1.2206 -1.1819 -0.8442
  153SAPE   C3317003   6.534   2.496   6.758  0.4126  0.2048  0.2747
  153SAPE   H3X17004   6.556   2.586   6.820  1.0192 -1.9156  3.4155
  153SAPE   H3Y17005   6.625   2.475   6.698  1.1578 -1.5298  1.8910
  153SAPE   C3417006   6.513   2.380   6.858 -0.5198  0.8564 -0.3329
  153SAPE   H4X17007   6.610   2.363   6.908 -1.1623  0.3258  0.7632
  153SAPE   H4Y17008   6.478   2.285   6.812 -1.8553  0.5031  1.3221
  153SAPE   C3517009   6.414   2.411   6.975  0.3376 -0.1362  0.2940
  153SAPE   H5X17010   6.310   2.422   6.936  0.9041  0.5542 -1.1036
  153SAPE   H5Y17011   6.441   2.510   7.019  1.1971 -1.2068  2.2850
  153SAPE   C3617012   6.422   2.295   7.074 -0.1022  0.0120 -0.1424
  153SAPE   H6X17013   6.523   2.249   7.078  0.1516  0.5828  0.2401
  153SAPE   H6Y17014   6.357   2.215   7.035  2.5285 -1.4606 -1.8193
  153SAPE   C3717015   6.370   2.327   7.223 -0.0210  0.6366  0.0737
  153SAPE   H7X17016   6.375   2.230   7.275 -2.2476 -0.8314 -2.1998
  153SAPE   H7Y17017   6.262   2.350   7.213 -0.0595  0.2126 -0.5520
  153SAPE   C3817018   6.447   2.441   7.296 -0.1710 -0.3651  0.3784
  153SAPE   H8X17019   6.410   2.540   7.260  0.7181  0.0327  0.5166
  153SAPE   H8Y17020   6.552   2.456   7.261 -0.3442 -0.1853 -0.0776
  153SAPE   C3917021   6.429   2.419   7.441 -0.8786 -0.5504 -0.3765
  153SAPE   H9X17022   6.459   2.313   7.454 -2.8863 -1.0749  0.3036
  153SAPE   H9Y17023   6.321   2.432   7.465 -0.8147 -0.1567 -0.2906
  153SAPE  C31017024   6.487   2.521   7.536  0.5852 -0.5866 -0.4369
  153SAPE  H10X17025   6.447   2.622   7.516  1.7503 -0.0879 -0.2982
  153SAPE  H10Y17026   6.597   2.525   7.519  0.7280 -0.9413  0.3554
  153SAPE  C31117027   6.458   2.484   7.680  0.6936  0.1558  0.7585
  153SAPE  H11X17028   6.481   2.379   7.706 -1.0640  0.3864  3.7245
  153SAPE  H11Y17029   6.349   2.503   7.692  0.6886  0.0539  0.8742
  153SAPE  C31217030   6.521   2.567   7.787 -0.1347  0.2039  0.3240
  153SAPE  H12X17031   6.627   2.534   7.790 -0.7545 -1.9122  1.0306
  153SAPE  H12Y17032   6.474   2.548   7.885 -0.9569 -1.9116 -0.4220
  153SAPE  C31317033   6.528   2.718   7.752  0.6742  0.3054  0.3186
  153SAPE  H13X17034   6.425   2.738   7.717  1.4450 -0.5128 -2.7429
  153SAPE  H13Y17035   6.590   2.741   7.662 -0.3377  1.8706 -0.0136
  153SAPE  C31417036   6.565   2.804   7.876  0.2292  0.7303  0.1803
  153SAPE  H14X17037   6.575   2.908   7.838  2.0160  0.0169 -1.4777
  153SAPE  H14Y17038   6.668   2.787   7.915 -0.2027  0.8833  1.4425
  153SAPE  C31517039   6.472   2.817   7.994  0.8548 -0.1313 -0.0226
  153SAPE  H15X17040   6.502   2.893   8.069  2.8925 -0.6865 -0.2194
  153SAPE  H15Y17041   6.473   2.722   8.053  2.3270  1.1854  2.2282
  153SAPE  C31617042   6.317   2.840   7.946 -0.3197 -0.6958  0.3593
  153SAPE  H16X17043   6.282   2.775   7.863 -1.8182  0.9350 -0.3532
  153SAPE  H16Y17044   6.319   2.941   7.901 -2.5698 -0.6170  0.3159
  153SAPE  C31717045   6.213   2.824   8.058  0.1933 -0.4122  0.2599
  153SAPE  H17X17046   6.263   2.871   8.145  1.0665  0.1785 -0.5352
  153SAPE  H17Y17047   6.186   2.721   8.090  3.9499 -1.3699  0.8484
  153SAPE  C31817048   6.088   2.911   8.044  0.8984  0.1144  0.2123
  153SAPE  H18X17049   6.121   3.016   8.056  3.0146 -0.1667 -2.2223
  153SAPE  H18Y17050   6.008   2.875   8.112  2.0804 -0.0800  1.5322
  153SAPE  H18Z17051   6.046   2.906   7.941 -0.1303  1.7771  0.5218
  154SAPE     N17052   3.945   2.019   6.257  0.0744  0.0806 -0.1290
  154SAPE   HN117053   3.992   1.947   6.315  0.2166 -1.1732 -1.7517
  154SAPE   HN217054   3.966   2.115   6.291 -4.6691  1.9606 -1.7087
  154SAPE   HN317055   3.843   2.002   6.249  0.2607 -0.6820 -0.9895
  154SAPE   C1217056   4.001   1.999   6.121 -0.0045  0.0867  0.5657
  154SAPE  H12A17057   4.110   2.014   6.136  0.1799  0.7221 -1.2151
  154SAPE  H12B17058   3.961   2.088   6.068 -1.1281 -1.2288 -0.8825
  154SAPE   C1117059   3.968   1.858   6.057  0.0201  0.8867 -0.1781
  154SAPE  H11A17060   4.045   1.852   5.977 -0.5320 -1.1335 -0.6209
  154SAPE  H11B17061   3.863   1.850   6.022 -0.7051  2.0293  1.5693
  154SAPE     P17062   4.120   1.682   6.189 -0.4816 -0.1927  0.1370
  154SAPE   O1317063   4.191   1.629   6.066  0.3318 -0.3041  0.1658
  154SAPE   O1417064   4.196   1.773   6.276 -0.5123 -0.5219  0.4332
  154SAPE   O1217065   3.980   1.751   6.157  0.4828 -0.2289  0.7145
  154SAPE   O1117066   4.055   1.560   6.264  0.0342  0.5555 -0.1829
  154SAPE    C117067   3.980   1.575   6.388 -0.2921  0.0402  0.6630
  154SAPE    HA17068   3.958   1.681   6.413 -0.7051 -0.4529  2.5315
  154SAPE    HB17069   3.878   1.533   6.373 -0.0183 -1.0344  1.6424
  154SAPE    C217070   4.048   1.507   6.512 -0.3912  0.1221 -0.1316
  154SAPE    HS17071   3.976   1.508   6.596  0.5459 -0.5105  0.7136
  154SAPE   O2117072   4.170   1.571   6.560 -0.3306 -0.3577  0.2616
  154SAPE   C2117073   4.144   1.681   6.638 -0.5256 -0.0258  0.2566
  154SAPE   O2217074   4.037   1.728   6.662  0.2312 -0.3850 -0.1971
  154SAPE   C2217075   4.277   1.745   6.686  0.1581  0.0058 -0.6840
  154SAPE   H2R17076   4.332   1.761   6.591  0.9418  2.3512  0.0897
  154SAPE   H2S17077   4.245   1.844   6.726 -0.0063 -0.4461  0.3323
  154SAPE    C317078   4.091   1.366   6.481  0.2339 -0.7111  0.2502
  154SAPE    HX17079   4.194   1.351   6.440 -0.4594  2.3983 -3.1950
  154SAPE    HY17080   4.034   1.316   6.400  0.7302  1.7038 -1.7331
  154SAPE   O3117081   4.079   1.294   6.605  0.4910  0.1490  0.2712
  154SAPE   C3117082   4.194   1.260   6.665 -0.4243  0.2716  0.1047
  154SAPE   O3217083   4.301   1.297   6.629 -0.1108 -0.4596 -0.1662
  154SAPE   C3217084   4.168   1.156   6.776  0.0685 -0.3031  0.3237
  154SAPE   H2X17085   4.271   1.129   6.808  0.4115  0.7959  0.2176
  154SAPE   H2Y17086   4.124   1.070   6.721 -1.7316  1.5922 -1.3855
  154SAPE   C2317087   4.357   1.663   6.787  0.2665  0.1999 -0.4077
  154SAPE   H3R17088   4.464   1.691   6.777  0.0593  1.3964  0.4246
  154SAPE   H3S17089   4.345   1.558   6.755 -0.1737  0.2613 -0.4458
  154SAPE   C2417090   4.299   1.684   6.933  0.6606  0.3406  0.6962
  154SAPE   H4R17091   4.194   1.652   6.947 -0.1555  2.2352 -0.6232
  154SAPE   H4S17092   4.293   1.795   6.934 -0.7761  0.4301 -2.8253
  154SAPE   C2517093   4.388   1.622   7.035  0.0100 -0.1496  0.6500
  154SAPE   H5R17094   4.460   1.548   7.000  0.6226 -0.3480  2.2501
  154SAPE   C2617095   4.401   1.668   7.162 -0.6258  0.5002  0.1461
  154SAPE   H6R17096   4.469   1.615   7.230  1.4842  1.6248 -0.9664
  154SAPE   C2717097   4.323   1.787   7.229  0.4184  0.2073 -0.7060
  154SAPE   H7R17098   4.257   1.834   7.154  1.0828  0.4989 -1.1075
  154SAPE   H7S17099   4.383   1.869   7.274  1.7071 -0.2306 -1.5849
  154SAPE   C2817100   4.242   1.720   7.341  0.2293  0.2700  0.8025
  154SAPE   H8R17101   4.185   1.639   7.293  1.3085 -0.2414  0.3699
  154SAPE   C2917102   4.212   1.751   7.466  0.2703 -0.7282  0.1312
  154SAPE   H9R17103   4.181   1.666   7.528  3.3229 -0.8501  1.7027
  154SAPE  C21017104   4.263   1.868   7.542 -0.3792  0.3376  0.2239
  154SAPE  H10R17105   4.172   1.899   7.598 -0.9087 -2.5855  1.1062
  154SAPE  H10S17106   4.285   1.954   7.474  1.6309  0.0556  0.4669
  154SAPE  C21117107   4.379   1.833   7.635  0.0810 -0.0851 -0.2029
  154SAPE  H11R17108   4.469   1.809   7.577  1.0781 -0.3307  1.3969
  154SAPE  C21217109   4.377   1.816   7.771 -0.2291 -0.3716  0.0932
  154SAPE  H12R17110   4.468   1.774   7.817 -0.4920  0.3974  1.3586
  154SAPE  C21317111   4.274   1.851   7.879 -0.3848 -0.2370 -0.1619
  154SAPE  H13R17112   4.169   1.859   7.845  0.4702 -0.2724 -3.1053
  154SAPE  H13S17113   4.302   1.953   7.913  1.2677  0.2184 -2.5805
  154SAPE  C21417114   4.282   1.744   7.988 -0.9765  0.3054  0.4447
  154SAPE  H14R17115   4.221   1.654   7.973  1.0342 -1.0006 -0.3305
  154SAPE  C21517116   4.344   1.741   8.101 -0.2969  0.3376  0.0416
  154SAPE  H15R17117   4.323   1.651   8.162  2.2858  0.8266  1.8540
  154SAPE  C21617118   4.447   1.838   8.164  0.4848 -0.2186  0.1425
  154SAPE  H16R17119   4.403   1.883   8.255 -0.9395  1.9101 -1.4953
  154SAPE  H16S17120   4.474   1.921   8.094  0.7737  0.1017  0.6230
  154SAPE  C21717121   4.571   1.762   8.204 -0.4908 -0.3300 -0.7328
  154SAPE  H17R17122   4.625   1.725   8.115 -1.7638 -1.1406 -1.1963
  154SAPE  H17S17123   4.548   1.668   8.260  1.6095 -0.4708 -0.0216
  154SAPE  C21817124   4.686   1.833   8.275  0.5224  0.3990 -0.7752
  154SAPE  H18R17125   4.671   1.843   8.385  1.8583 -1.2375 -0.3988
  154SAPE  H18S17126   4.696   1.938   8.241  1.9210  1.5667  2.7414
  154SAPE  C21917127   4.819   1.755   8.272  0.3061 -0.4939 -0.1710
  154SAPE  H19R17128   4.857   1.760   8.168  1.1696 -2.8395 -0.0264
  154SAPE  H19S17129   4.793   1.649   8.292 -0.7670 -0.0916  0.7097
  154SAPE  C22017130   4.943   1.803   8.352 -0.1110  0.3893  0.3407
  154SAPE  H20R17131   5.029   1.733   8.352  2.2015  2.9248 -2.5283
  154SAPE  H20S17132   4.928   1.817   8.461 -1.2114  1.8994  0.0280
  154SAPE  H20T17133   4.979   1.900   8.310 -1.6086  0.4741 -0.8344
  154SAPE   C3317134   4.075   1.203   6.890  0.2183 -0.3190 -0.2507
  154SAPE   H3X17135   4.072   1.122   6.966  1.3047  2.2785  2.7522
  154SAPE   H3Y17136   3.970   1.218   6.855 -0.5898 -2.3340  1.0984
  154SAPE   C3417137   4.117   1.329   6.972  0.2298 -0.1267  0.5424
  154SAPE   H4X17138   4.092   1.420   6.915 -2.6993  1.1681  3.5426
  154SAPE   H4Y17139   4.227   1.324   6.985  0.4619 -2.2076 -1.5295
  154SAPE   C3517140   4.046   1.341   7.105 -0.4281  0.6895 -0.3043
  154SAPE   H5X17141   3.941   1.308   7.102  0.1074 -1.6516  2.1744
  154SAPE   H5Y17142   4.054   1.446   7.140  2.4290 -0.1820  2.1250
  154SAPE   C3617143   4.120   1.267   7.222 -0.4095 -1.0621  0.5683
  154SAPE   H6X17144   4.221   1.307   7.243 -0.5495 -1.7886  2.8950
  154SAPE   H6Y17145   4.122   1.158   7.200 -0.4378 -0.8870 -0.3566
  154SAPE   C3717146   4.044   1.294   7.349 -0.0618 -0.0974 -0.1936
  154SAPE   H7X17147   3.939   1.257   7.346 -0.5204  0.6416  2.9766
  154SAPE   H7Y17148   4.035   1.405   7.354 -1.8208  0.0330 -3.4563
  154SAPE   C3817149   4.113   1.241   7.476 -0.0892 -0.0384 -1.0454
  154SAPE   H8X17150   4.218   1.273   7.493 -0.0109 -1.4475  1.7798
  154SAPE   H8Y17151   4.125   1.131   7.466  1.3098  0.0969 -0.9976
  154SAPE   C3917152   4.033   1.282   7.604  0.3691  0.2468  0.1736
  154SAPE   H9X17153   3.925   1.258   7.595  0.5795 -1.0834  0.8939
  154SAPE   H9Y17154   4.026   1.393   7.607 -0.5079  0.2583 -1.5026
  154SAPE  C31017155   4.080   1.230   7.742 -0.0788  0.0989 -0.2698
  154SAPE  H10X17156   4.182   1.272   7.754  0.3739 -0.8287 -0.7939
  154SAPE  H10Y17157   4.080   1.120   7.729  0.3474  0.0806 -0.1148
  154SAPE  C31117158   3.980   1.289   7.850 -0.0356 -0.5071 -0.1198
  154SAPE  H11X17159   3.882   1.237   7.841  0.1396 -0.7404 -0.6949
  154SAPE  H11Y17160   3.969   1.397   7.827 -2.3920 -0.0991  2.3675
  154SAPE  C31217161   4.041   1.293   7.989 -0.3843  0.4375 -0.3134
  154SAPE  H12X17162   4.145   1.331   7.987  0.4783 -0.9694  4.4163
  154SAPE  H12Y17163   4.052   1.189   8.028 -0.7065 -0.1635 -1.7841
  154SAPE  C31317164   3.959   1.378   8.091  0.0960  0.5272  0.0810
  154SAPE  H13X17165   3.857   1.334   8.084  0.2173 -0.0746  1.7721
  154SAPE  H13Y17166   3.963   1.484   8.058  3.0384  0.4896 -0.0080
  154SAPE  C31417167   4.009   1.371   8.228  0.1919  0.8524  0.4657
  154SAPE  H14X17168   4.003   1.270   8.273  0.0374  1.3838  1.6553
  154SAPE  H14Y17169   3.946   1.427   8.299  0.6075  1.6543  0.2134
  154SAPE  C31517170   4.156   1.421   8.248 -0.2880 -0.4170  0.4781
  154SAPE  H15X17171   4.149   1.524   8.207 -3.4443 -1.4389 -1.9732
  154SAPE  H15Y17172   4.230   1.372   8.182 -0.0505  1.6600 -0.9203
  154SAPE  C31617173   4.199   1.426   8.395 -0.2155 -0.2046 -0.3087
  154SAPE  H16X17174   4.231   1.324   8.428  0.6579  0.5595  1.3447
  154SAPE  H16Y17175   4.106   1.453   8.451  0.1982 -0.8256  0.7193
  154SAPE  C31717176   4.308   1.530   8.431  0.5348  1.0180  0.1265
  154SAPE  H17X17177   4.256   1.623   8.401  0.8888  1.4755  0.9135
  154SAPE  H17Y17178   4.398   1.512   8.369  0.9946  0.4688  0.9363
  154SAPE  C31817179   4.344   1.519   8.580 -0.5790  0.5388  1.0570
  154SAPE  H18X17180   4.262   1.532   8.654 -2.2590 -2.7822 -0.0144
  154SAPE  H18Y17181   4.417   1.601   8.594  0.1492  1.0877 -3.9066
  154SAPE  H18Z17182   4.409   1.433   8.604  1.2213  1.4074 -0.4579
  155SAPE     N17183   5.052   6.783   6.578  0.0246  0.3605 -0.4624
  155SAPE   HN117184   5.142   6.833   6.595 -0.1047  0.4598 -0.0565
  155SAPE   HN217185   5.079   6.687   6.546  0.5955  1.0450 -2.1771
  155SAPE   HN317186   5.001   6.836   6.505 -2.5053 -0.6765  0.4341
  155SAPE   C1217187   4.970   6.784   6.701 -0.7888  0.3349 -0.0594
  155SAPE  H12A17188   4.969   6.889   6.737 -1.2077  1.1357 -2.2766
  155SAPE  H12B17189   5.023   6.727   6.780  2.5765  0.2856 -2.1203
  155SAPE   C1117190   4.839   6.725   6.670  0.8617  0.5744  0.5361
  155SAPE  H11A17191   4.775   6.729   6.761 -1.0659 -0.1949 -0.7299
  155SAPE  H11B17192   4.846   6.617   6.643 -1.5099  0.8914 -1.6738
  155SAPE     P17193   4.623   6.781   6.535 -0.2034  0.5323 -0.1030
  155SAPE   O1317194   4.584   6.904   6.458 -0.3073  0.1510 -0.7497
  155SAPE   O1417195   4.598   6.654   6.465  0.0267 -0.0805  0.1011
  155SAPE   O1217196   4.777   6.794   6.571  0.1941 -0.1463  0.1571
  155SAPE   O1117197   4.536   6.776   6.670 -0.0836 -0.0644  0.1744
  155SAPE    C117198   4.430   6.871   6.674  0.6785 -0.4506 -0.5253
  155SAPE    HA17199   4.469   6.969   6.710 -1.3109 -0.5946  2.3878
  155SAPE    HB17200   4.388   6.866   6.571 -0.7968  0.5831 -0.0113
  155SAPE    C217201   4.316   6.833   6.774  0.9744  0.5101 -0.3412
  155SAPE    HS17202   4.225   6.893   6.749  1.0442 -0.0278 -2.0163
  155SAPE   O2117203   4.349   6.844   6.911  0.4928  0.1552 -0.3711
  155SAPE   C2117204   4.334   6.976   6.960 -0.4479 -0.2587 -0.0422
  155SAPE   O2217205   4.292   7.071   6.896  0.3584  0.4277  0.0067
  155SAPE   C2217206   4.391   6.983   7.101  0.0900  0.6363  0.5578
  155SAPE   H2R17207   4.448   6.891   7.124 -0.0511  1.0334  2.6945
  155SAPE   H2S17208   4.447   7.077   7.116  0.6756  0.3214  0.3828
  155SAPE    C317209   4.272   6.686   6.757 -0.1005 -0.0712  0.2519
  155SAPE    HX17210   4.344   6.620   6.809 -0.2373  0.7368  1.5110
  155SAPE    HY17211   4.266   6.680   6.646 -1.9533  3.7190 -0.0330
  155SAPE   O3117212   4.141   6.663   6.819 -0.0980 -0.0161 -0.3876
  155SAPE   C3117213   4.100   6.535   6.799  0.0528  0.3324  0.1817
  155SAPE   O3217214   4.159   6.441   6.756  0.2175  0.3869 -0.7761
  155SAPE   C3217215   3.959   6.516   6.850 -0.3958 -0.2129  0.1295
  155SAPE   H2X17216   3.957   6.411   6.886 -1.1583 -0.6768 -1.1594
  155SAPE   H2Y17217   3.887   6.527   6.766 -0.9868  0.5007  0.7061
  155SAPE   C2317218   4.286   6.956   7.214  0.0075 -0.4732  0.7557
  155SAPE   H3R17219   4.222   6.867   7.196  1.7793 -1.8495  0.8480
  155SAPE   H3S17220   4.220   7.043   7.229 -0.9650 -1.1605  0.5326
  155SAPE   C2417221   4.353   6.929   7.346 -0.1877 -0.1579  0.1898
  155SAPE   H4R17222   4.423   7.014   7.341  1.5799 -1.5844 -0.3724
  155SAPE   H4S17223   4.426   6.846   7.349  1.0251  0.7784 -1.7490
  155SAPE   C2517224   4.255   6.941   7.462 -0.3693  0.0021  1.2414
  155SAPE   H5R17225   4.152   6.929   7.424  0.9883 -2.9748 -1.9821
  155SAPE   C2617226   4.288   6.952   7.592 -0.3935 -0.6666 -0.2185
  155SAPE   H6R17227   4.217   6.936   7.675  1.8499 -1.4244  1.6791
  155SAPE   C2717228   4.422   6.989   7.652 -0.6294  0.9357 -0.5793
  155SAPE   H7R17229   4.496   6.923   7.604  1.0270  2.7913 -0.6889
  155SAPE   H7S17230   4.430   6.942   7.752 -0.2645 -1.7708 -1.8100
  155SAPE   C2817231   4.455   7.137   7.638  0.1444 -0.5288 -0.4195
  155SAPE   H8R17232   4.405   7.196   7.559 -0.5612 -0.0857  0.3451
  155SAPE   C2917233   4.548   7.198   7.719  0.4397  0.2373 -0.0381
  155SAPE   H9R17234   4.564   7.305   7.697 -2.0152  0.7249  0.2939
  155SAPE  C21017235   4.612   7.143   7.848  0.5787 -0.0056  0.0323
  155SAPE  H10R17236   4.587   7.036   7.866  2.2303 -0.1915  1.5324
  155SAPE  H10S17237   4.572   7.202   7.933  0.6794 -0.8244  0.6677
  155SAPE  C21117238   4.760   7.148   7.848 -0.4956 -0.7057  0.2298
  155SAPE  H11R17239   4.797   7.044   7.845 -1.4829 -1.0496 -1.0791
  155SAPE  C21217240   4.848   7.246   7.859  0.1332  0.0074 -0.2706
  155SAPE  H12R17241   4.956   7.223   7.863  0.2987  0.6112 -1.0926
  155SAPE  C21317242   4.807   7.394   7.882  0.1517  0.2837 -0.1165
  155SAPE  H13R17243   4.751   7.400   7.977 -0.0158 -1.8235 -0.0335
  155SAPE  H13S17244   4.724   7.410   7.810  0.2732 -0.5863 -0.4659
  155SAPE  C21417245   4.919   7.486   7.848  0.2096 -0.2309  0.5033
  155SAPE  H14R17246   4.970   7.465   7.753 -0.2824  0.2508  0.1307
  155SAPE  C21517247   4.953   7.606   7.903  0.4023  0.5009 -0.1485
  155SAPE  H15R17248   5.017   7.675   7.845  1.8007 -0.8951 -0.3196
  155SAPE  C21617249   4.882   7.664   8.024 -0.8617  0.7638  0.0908
  155SAPE  H16R17250   4.799   7.600   8.061  1.0950  0.2510  4.1198
  155SAPE  H16S17251   4.834   7.762   8.006 -1.9122  0.3538  0.5600
  155SAPE  C21717252   4.971   7.671   8.149 -0.0325  0.1269 -0.2829
  155SAPE  H17R17253   4.924   7.737   8.225  0.8365  1.6934 -1.0693
  155SAPE  H17S17254   5.076   7.704   8.134  0.5985 -1.2627  0.7963
  155SAPE  C21817255   4.969   7.530   8.218  0.0864 -0.5296 -0.0523
  155SAPE  H18R17256   5.035   7.465   8.157  1.7465  0.6205  0.4386
  155SAPE  H18S17257   4.865   7.492   8.221 -0.7301  1.5647 -0.0518
  155SAPE  C21917258   5.019   7.534   8.362 -0.1027 -0.3917  0.0455
  155SAPE  H19R17259   4.983   7.626   8.414  1.0216 -0.3673  0.8250
  155SAPE  H19S17260   5.128   7.555   8.355 -0.3605  1.3853  0.7876
  155SAPE  C22017261   5.001   7.405   8.437  0.0430 -0.4742 -0.3843
  155SAPE  H20R17262   5.073   7.408   8.521  1.1868 -1.1795 -1.3206
  155SAPE  H20S17263   5.031   7.325   8.367 -0.1625 -0.1900 -0.7999
  155SAPE  H20T17264   4.894   7.388   8.464 -0.0204 -1.7807 -1.3808
  155SAPE   C3317265   3.915   6.617   6.963  0.4995  1.1468  0.0771
  155SAPE   H3X17266   3.807   6.614   6.987  0.0037  0.4191 -2.0610
  155SAPE   H3Y17267   3.936   6.723   6.939 -2.3437  1.8312  0.2823
  155SAPE   C3417268   3.993   6.590   7.096 -0.8810  0.1973  0.2861
  155SAPE   H4X17269   4.096   6.623   7.070 -0.7207  0.0391  0.7129
  155SAPE   H4Y17270   3.996   6.480   7.110 -0.5752 -0.0475 -1.4313
  155SAPE   C3517271   3.942   6.664   7.220 -0.8117 -0.8868  0.4895
  155SAPE   H5X17272   3.836   6.634   7.231 -1.1720 -0.4933 -1.5947
  155SAPE   H5Y17273   3.938   6.775   7.216  1.0735 -0.8171 -1.4925
  155SAPE   C3617274   4.009   6.625   7.360 -1.2969  0.0263 -0.8192
  155SAPE   H6X17275   4.120   6.633   7.364 -1.3739  0.8243  1.9465
  155SAPE   H6Y17276   3.984   6.517   7.374  0.5293 -0.4549 -0.9816
  155SAPE   C3717277   3.944   6.704   7.483  0.6924 -0.0688  0.5473
  155SAPE   H7X17278   3.985   6.807   7.474  0.8246 -0.1750 -0.1241
  155SAPE   H7Y17279   3.983   6.645   7.569 -1.6935 -3.5926 -0.5496
  155SAPE   C3817280   3.790   6.694   7.475 -0.1448  0.7706  0.4499
  155SAPE   H8X17281   3.760   6.587   7.483 -0.9363  0.8308 -1.2294
  155SAPE   H8Y17282   3.744   6.724   7.379 -0.0265  2.2867  0.8427
  155SAPE   C3917283   3.715   6.771   7.581  0.3827  0.5730 -0.3036
  155SAPE   H9X17284   3.737   6.880   7.590 -0.9481  0.7202  2.1724
  155SAPE   H9Y17285   3.746   6.745   7.685  1.6912  3.0509  0.0151
  155SAPE  C31017286   3.569   6.759   7.566  0.5285  0.3257  0.3151
  155SAPE  H10X17287   3.535   6.782   7.462  2.9726 -1.4196 -0.9655
  155SAPE  H10Y17288   3.507   6.815   7.639  0.3179 -1.0682  1.2497
  155SAPE  C31117289   3.509   6.621   7.590 -0.3314  0.5743 -0.0939
  155SAPE  H11X17290   3.533   6.541   7.517  2.4460 -0.3841  1.7093
  155SAPE  H11Y17291   3.399   6.625   7.605 -0.1567  1.4326  1.0780
  155SAPE  C31217292   3.551   6.563   7.727  0.3389  0.0699  0.1896
  155SAPE  H12X17293   3.662   6.562   7.736  0.3694 -1.9934  0.0377
  155SAPE  H12Y17294   3.506   6.462   7.736  0.9323 -0.1715  0.5310
  155SAPE  C31317295   3.496   6.643   7.842  0.0133  0.2330  0.2657
  155SAPE  H13X17296   3.385   6.647   7.834  0.0425 -0.9594 -1.1606
  155SAPE  H13Y17297   3.541   6.744   7.831 -0.2429  0.4020  0.7348
  155SAPE  C31417298   3.537   6.605   7.985 -0.2960 -0.1291 -0.4910
  155SAPE  H14X17299   3.648   6.608   7.990 -0.3439  1.7889  0.0389
  155SAPE  H14Y17300   3.498   6.504   8.010 -1.0580  0.3710  0.4252
  155SAPE  C31517301   3.490   6.698   8.092 -0.4578 -0.0290  0.0072
  155SAPE  H15X17302   3.389   6.658   8.118 -0.5073  0.7182  1.0519
  155SAPE  H15Y17303   3.485   6.800   8.047  0.4580  0.7232  1.5187
  155SAPE  C31617304   3.577   6.691   8.223  0.5652 -0.2065 -0.3807
  155SAPE  H16X17305   3.675   6.739   8.206  0.3270 -0.3651 -2.3722
  155SAPE  H16Y17306   3.607   6.584   8.235  1.5234 -0.0552 -1.2682
  155SAPE  C31717307   3.510   6.737   8.348  0.7261  0.3510 -0.2012
  155SAPE  H17X17308   3.453   6.830   8.327 -0.0029  0.0037  0.1793
  155SAPE  H17Y17309   3.587   6.754   8.426  1.3398 -3.3123  0.1857
  155SAPE  C31817310   3.410   6.637   8.405  0.2366  0.0421  0.1884
  155SAPE  H18X17311   3.318   6.634   8.343  0.0324  1.1107  0.4110
  155SAPE  H18Y17312   3.379   6.664   8.508 -0.0517 -0.7782  0.3179
  155SAPE  H18Z17313   3.449   6.534   8.414  0.0397 -0.0016  0.5379
  156SAPE     N17314   1.986   3.141   6.073  1.0609  0.6486  0.4527
  156SAPE   HN117315   1.971   3.244   6.070  0.3989  0.5358 -0.7920
  156SAPE   HN217316   1.925   3.096   6.144  1.3755  0.6955  0.7591
  156SAPE   HN317317   2.085   3.118   6.098  0.2255 -3.0946  0.9327
  156SAPE   C1217318   1.959   3.080   5.929  0.5267  0.0381  0.0704
  156SAPE  H12A17319   1.849   3.066   5.928  0.6971 -3.0346  3.2526
  156SAPE  H12B17320   2.011   2.982   5.923  0.4025 -0.0510  0.4475
  156SAPE   C1117321   2.017   3.172   5.818 -0.7525  0.1188  0.3458
  156SAPE  H11A17322   1.950   3.260   5.810 -1.9763 -0.8874 -0.8995
  156SAPE  H11B17323   2.001   3.115   5.724  2.3099  0.6603 -0.6292
  156SAPE     P17324   2.226   3.323   5.880 -0.1427 -0.0112 -0.6003
  156SAPE   O1317325   2.372   3.293   5.874  0.1650 -0.0087  0.0963
  156SAPE   O1417326   2.173   3.440   5.806  0.1535  0.7242  0.2049
  156SAPE   O1217327   2.156   3.192   5.836  0.4441  0.1181 -0.5060
  156SAPE   O1117328   2.171   3.326   6.022 -0.2329  0.5144 -0.1067
  156SAPE    C117329   2.247   3.398   6.122 -0.1063  0.2982 -0.2263
  156SAPE    HA17330   2.316   3.331   6.177 -0.0694 -1.6531 -2.4791
  156SAPE    HB17331   2.310   3.478   6.077 -1.4917  1.5998  0.0575
  156SAPE    C217332   2.158   3.466   6.222 -0.0245  0.3593  0.2769
  156SAPE    HS17333   2.108   3.389   6.284  0.4162  0.4036  0.6939
  156SAPE   O2117334   2.070   3.553   6.161  0.0423 -0.5871  0.2685
  156SAPE   C2117335   1.952   3.503   6.122 -0.2899  0.6537  0.3641
  156SAPE   O2217336   1.921   3.386   6.152  0.4236  0.2288  0.1095
  156SAPE   C2217337   1.873   3.593   6.042  0.3346 -0.9978  0.2383
  156SAPE   H2R17338   1.944   3.666   5.997  2.1138 -2.4442  0.5651
  156SAPE   H2S17339   1.814   3.544   5.961 -1.0367  0.6168  0.1889
  156SAPE    C317340   2.246   3.556   6.313  0.3560 -0.5370  0.5073
  156SAPE    HX17341   2.293   3.638   6.254  0.2406 -1.4336 -0.8968
  156SAPE    HY17342   2.322   3.484   6.349  1.2384  0.5585  0.9165
  156SAPE   O3117343   2.163   3.599   6.423  0.0337  0.1401 -0.1799
  156SAPE   C3117344   2.128   3.731   6.428  0.4046  0.7497  0.8181
  156SAPE   O3217345   2.170   3.814   6.354  0.0609 -0.3558  0.3526
  156SAPE   C3217346   2.026   3.744   6.538 -0.1843 -0.5443  0.4554
  156SAPE   H2X17347   2.057   3.694   6.632 -0.8258 -0.3115  0.7945
  156SAPE   H2Y17348   1.933   3.692   6.507 -1.3736  0.7175  1.7599
  156SAPE   C2317349   1.784   3.696   6.123  0.8931  0.2060 -0.4780
  156SAPE   H3R17350   1.785   3.795   6.073  1.6863 -0.1339 -1.1580
  156SAPE   H3S17351   1.838   3.704   6.220  0.1018 -4.0687  0.5182
  156SAPE   C2417352   1.646   3.653   6.137 -0.5727  0.6326 -0.2190
  156SAPE   H4R17353   1.606   3.619   6.039 -0.2097 -2.6571  0.6516
  156SAPE   H4S17354   1.590   3.745   6.162 -0.5087  0.9212 -1.1112
  156SAPE   C2517355   1.629   3.533   6.232  0.0438  0.5469  0.2052
  156SAPE   H5R17356   1.623   3.442   6.171 -1.5824  1.1374 -0.5548
  156SAPE   C2617357   1.624   3.536   6.370  0.0483  0.2894  0.5076
  156SAPE   H6R17358   1.625   3.438   6.420 -1.8971 -1.5241 -2.7189
  156SAPE   C2717359   1.651   3.662   6.454  0.6681  0.7951  0.5739
  156SAPE   H7R17360   1.704   3.735   6.388 -0.1337 -0.9205 -2.1500
  156SAPE   H7S17361   1.705   3.642   6.549 -0.4080 -1.2237  0.8237
  156SAPE   C2817362   1.517   3.722   6.485  1.0240 -0.1535 -0.0307
  156SAPE   H8R17363   1.461   3.755   6.396  0.0628  3.2146  1.6719
  156SAPE   C2917364   1.468   3.741   6.610  0.3901  0.8050 -0.6499
  156SAPE   H9R17365   1.366   3.779   6.624  0.4987  0.5933  0.9259
  156SAPE  C21017366   1.544   3.706   6.740 -0.3467 -0.0071  0.3242
  156SAPE  H10R17367   1.597   3.795   6.782 -0.5606  0.2649  0.0228
  156SAPE  H10S17368   1.618   3.625   6.724 -0.3806 -0.3251  1.6436
  156SAPE  C21117369   1.458   3.652   6.849  0.2684  0.3990 -0.2773
  156SAPE  H11R17370   1.399   3.564   6.819  0.3983  0.2397 -0.0694
  156SAPE  C21217371   1.446   3.700   6.979 -0.1984  0.5487  0.3581
  156SAPE  H12R17372   1.375   3.648   7.045 -0.0607 -1.3253 -0.9063
  156SAPE  C21317373   1.524   3.815   7.046 -0.3711 -0.3662  0.1256
  156SAPE  H13R17374   1.539   3.894   6.969 -2.1724 -0.0432  0.0534
  156SAPE  H13S17375   1.623   3.775   7.077 -0.5384  0.0673  1.2294
  156SAPE  C21417376   1.450   3.882   7.158 -0.9840 -0.1880  0.2155
  156SAPE  H14R17377   1.377   3.958   7.127  0.5955  2.6082  2.7648
  156SAPE  C21517378   1.471   3.857   7.295 -0.1735 -0.4764  0.2455
  156SAPE  H15R17379   1.414   3.917   7.368  0.8978  1.7120 -0.6035
  156SAPE  C21617380   1.564   3.759   7.359 -0.1396 -0.5442 -0.3454
  156SAPE  H16R17381   1.618   3.807   7.443 -0.5107  1.2663 -1.0889
  156SAPE  H16S17382   1.644   3.740   7.284 -0.3456  0.7395 -0.9207
  156SAPE  C21717383   1.511   3.627   7.414 -0.4532  0.0336 -0.1961
  156SAPE  H17R17384   1.444   3.643   7.501 -0.6117  1.3782 -0.5405
  156SAPE  H17S17385   1.600   3.579   7.460 -2.4803 -1.2020  2.7510
  156SAPE  C21817386   1.445   3.536   7.316  0.7315 -0.4043  0.1478
  156SAPE  H18R17387   1.481   3.586   7.224 -0.9556  0.8817  0.1380
  156SAPE  H18S17388   1.335   3.546   7.323  0.8181  0.5075  0.3497
  156SAPE  C21917389   1.489   3.393   7.336 -0.5970 -0.0588 -0.0604
  156SAPE  H19R17390   1.600   3.397   7.333 -0.6026  0.0577 -2.1806
  156SAPE  H19S17391   1.458   3.332   7.248  1.4767  0.8417 -1.4974
  156SAPE  C22017392   1.441   3.327   7.463  0.3341  0.7557 -0.0355
  156SAPE  H20R17393   1.330   3.326   7.455  0.3789 -2.0341 -2.3314
  156SAPE  H20S17394   1.461   3.379   7.559 -0.5476 -0.7073  0.9828
  156SAPE  H20T17395   1.484   3.224   7.469  1.5159  1.2618  0.5746
  156SAPE   C3317396   1.987   3.900   6.568 -0.4883  0.1842  0.8276
  156SAPE   H3X17397   1.876   3.891   6.567 -0.5464  0.3253 -2.0620
  156SAPE   H3Y17398   2.012   3.969   6.486 -4.9764 -0.3233 -1.2551
  156SAPE   C3417399   2.027   3.943   6.707  0.7282  0.1380  0.1508
  156SAPE   H4X17400   2.003   4.051   6.712 -0.6162 -0.1534  0.2783
  156SAPE   H4Y17401   2.137   3.934   6.723  0.6636 -2.2175 -0.3880
  156SAPE   C3517402   1.951   3.867   6.824  0.0996  0.3090 -0.2963
  156SAPE   H5X17403   1.986   3.762   6.812 -1.8080 -0.5425  1.0943
  156SAPE   H5Y17404   1.840   3.865   6.814  0.1439 -1.6350 -0.8119
  156SAPE   C3617405   1.973   3.921   6.962 -0.1260  0.5930 -0.1324
  156SAPE   H6X17406   1.977   4.032   6.954  1.3140  0.4318 -2.9764
  156SAPE   H6Y17407   2.076   3.892   6.991 -0.0742  1.6358  0.7797
  156SAPE   C3717408   1.882   3.868   7.079 -0.3168 -0.0963  0.0762
  156SAPE   H7X17409   1.852   3.762   7.061  1.0757 -0.2206 -1.7018
  156SAPE   H7Y17410   1.789   3.925   7.057  0.0324  0.2975 -0.4019
  156SAPE   C3817411   1.926   3.886   7.227 -0.2510 -0.2273 -0.5628
  156SAPE   H8X17412   2.007   3.817   7.260  0.2753  1.1353  1.1528
  156SAPE   H8Y17413   1.839   3.855   7.290  0.1779  1.3429  0.8817
  156SAPE   C3917414   1.987   4.023   7.263  0.0312 -0.0745  0.3433
  156SAPE   H9X17415   1.905   4.093   7.234 -0.0934  0.7247  2.4460
  156SAPE   H9Y17416   2.068   4.045   7.190 -1.1229  0.2895 -0.8669
  156SAPE  C31017417   2.035   4.037   7.408 -0.1431  0.0459  0.6013
  156SAPE  H10X17418   2.067   4.143   7.412  0.3614 -0.1092  0.7593
  156SAPE  H10Y17419   2.106   3.959   7.443  0.1574 -0.1973 -0.5040
  156SAPE  C31117420   1.924   4.030   7.508  0.4632 -0.1045 -0.6710
  156SAPE  H11X17421   1.881   3.928   7.504  0.1430 -0.0882  1.4167
  156SAPE  H11Y17422   1.844   4.103   7.480 -2.8690 -3.6400 -1.3010
  156SAPE  C31217423   1.969   4.056   7.655 -0.0655  0.6463  0.6566
  156SAPE  H12X17424   2.024   4.150   7.632 -0.0206  0.1293 -1.5459
  156SAPE  H12Y17425   2.037   3.973   7.684 -0.6537  0.2436  0.8990
  156SAPE  C31317426   1.861   4.067   7.758 -0.5684 -0.0795  0.1032
  156SAPE  H13X17427   1.795   3.979   7.739  2.0078 -2.1334  0.0386
  156SAPE  H13Y17428   1.803   4.161   7.747 -0.4466 -0.0799 -0.5375
  156SAPE  C31417429   1.918   4.068   7.898 -0.1354  0.0368  0.8481
  156SAPE  H14X17430   1.981   4.158   7.915  0.6242 -0.0817 -1.0911
  156SAPE  H14Y17431   1.989   3.983   7.910 -0.1804 -0.0162  0.7343
  156SAPE  C31517432   1.822   4.060   8.019  0.2798  0.1939  1.1056
  156SAPE  H15X17433   1.747   3.978   8.009 -0.5909  0.9450  1.3560
  156SAPE  H15Y17434   1.766   4.156   8.021  1.2965  0.8102  1.1530
  156SAPE  C31617435   1.891   4.042   8.153 -0.0837  0.0347  0.4282
  156SAPE  H16X17436   1.957   4.131   8.151 -0.0474  0.0965  2.3919
  156SAPE  H16Y17437   1.952   3.949   8.152  1.7243  1.1518  1.2114
  156SAPE  C31717438   1.807   4.042   8.275  0.1846 -0.2107  0.4431
  156SAPE  H17X17439   1.879   4.036   8.360 -0.7221 -1.0004  1.1822
  156SAPE  H17Y17440   1.752   3.945   8.270 -0.4650  0.1938 -0.5526
  156SAPE  C31817441   1.701   4.154   8.280  0.0081 -0.7307 -0.1317
  156SAPE  H18X17442   1.643   4.133   8.373 -2.4035  2.6261 -0.7347
  156SAPE  H18Y17443   1.625   4.159   8.200  0.6797  0.7984 -0.7080
  156SAPE  H18Z17444   1.749   4.252   8.303  0.4376 -1.1109  0.6490
  157SAPE     N17445   5.328   2.763   6.168 -0.5279 -0.4492 -0.3068
  157SAPE   HN117446   5.383   2.835   6.219 -3.0309  0.9114  0.5913
  157SAPE   HN217447   5.341   2.776   6.065 -1.6819 -0.8397 -0.5157
  157SAPE   HN317448   5.231   2.782   6.197 -1.1920 -1.6042 -1.6067
  157SAPE   C1217449   5.365   2.625   6.214  0.4179  0.7146  0.0471
  157SAPE  H12A17450   5.469   2.601   6.183  0.3648  0.8385 -0.2309
  157SAPE  H12B17451   5.295   2.553   6.167 -1.4080 -0.3423  3.9433
  157SAPE   C1117452   5.341   2.611   6.368  0.2989  1.0155 -0.2331
  157SAPE  H11A17453   5.396   2.693   6.418  0.7980  0.7249 -0.2941
  157SAPE  H11B17454   5.391   2.515   6.395 -1.1992  0.3872  0.4043
  157SAPE     P17455   5.111   2.509   6.448 -0.2344 -0.2876 -0.0419
  157SAPE   O1317456   4.983   2.569   6.495  0.2460 -0.2279  0.7733
  157SAPE   O1417457   5.107   2.414   6.333 -0.4322 -0.0326 -0.0158
  157SAPE   O1217458   5.205   2.625   6.393 -0.1011 -0.3506  0.3580
  157SAPE   O1117459   5.193   2.455   6.570 -0.0085  0.3847 -0.5260
  157SAPE    C117460   5.216   2.536   6.686 -0.4651  0.4791 -0.0640
  157SAPE    HA17461   5.310   2.488   6.723  0.1373 -1.6743 -3.9164
  157SAPE    HB17462   5.231   2.642   6.655  1.8805  0.5581  1.0821
  157SAPE    C217463   5.099   2.522   6.792 -0.0724  0.1396 -0.0308
  157SAPE    HS17464   5.017   2.573   6.738 -1.9624 -2.6366  0.0308
  157SAPE   O2117465   5.137   2.585   6.912 -0.0221 -0.8206  0.2247
  157SAPE   C2117466   5.036   2.606   6.998 -0.2889  0.5570  0.5110
  157SAPE   O2217467   4.916   2.586   6.973 -0.1362  0.2471 -0.0781
  157SAPE   C2217468   5.095   2.666   7.133  0.6725  0.3685  0.5329
  157SAPE   H2R17469   5.160   2.581   7.162 -0.4977 -0.6322  0.3077
  157SAPE   H2S17470   5.155   2.756   7.106  1.1361 -0.0077  0.2990
  157SAPE    C317471   5.049   2.378   6.812  0.0978  0.2958  0.6277
  157SAPE    HX17472   5.077   2.321   6.721  3.1072 -0.1115  1.6899
  157SAPE    HY17473   4.939   2.385   6.829  0.2544  1.4763  1.2463
  157SAPE   O3117474   5.114   2.312   6.917 -0.3062  0.3936  0.1675
  157SAPE   C3117475   5.073   2.188   6.943  0.2821 -0.3385  0.1853
  157SAPE   O3217476   4.993   2.125   6.873  0.9628 -0.1285 -0.6429
  157SAPE   C3217477   5.145   2.129   7.061 -0.2316  0.0136 -0.0689
  157SAPE   H2X17478   5.252   2.156   7.053 -0.0420 -0.7582 -0.2575
  157SAPE   H2Y17479   5.151   2.020   7.039  1.9173  0.0462  0.1479
  157SAPE   C2317480   4.992   2.694   7.247  0.2431 -0.1938  0.1825
  157SAPE   H3R17481   4.945   2.594   7.260 -0.0060 -0.0309  0.5477
  157SAPE   H3S17482   4.915   2.766   7.216  0.0342 -0.2322  0.6002
  157SAPE   C2417483   5.056   2.729   7.382 -0.5034  0.1557  0.2529
  157SAPE   H4R17484   4.975   2.746   7.456 -0.3800 -0.9757  0.6609
  157SAPE   H4S17485   5.110   2.826   7.381  0.8665 -0.3274  4.7070
  157SAPE   C2517486   5.168   2.639   7.435  0.5226 -0.1922 -0.5905
  157SAPE   H5R17487   5.233   2.584   7.366  0.2162 -2.2110  0.6501
  157SAPE   C2617488   5.206   2.633   7.566 -0.1754  0.6986  0.5309
  157SAPE   H6R17489   5.289   2.567   7.594  0.4014  1.2825  0.2285
  157SAPE   C2717490   5.142   2.700   7.687  0.3719 -1.0154 -0.0901
  157SAPE   H7R17491   5.124   2.623   7.765 -0.7577  1.6764  2.5021
  157SAPE   H7S17492   5.040   2.739   7.665  0.8353  0.2314 -0.0680
  157SAPE   C2817493   5.220   2.815   7.741 -0.3787  0.4587 -0.1084
  157SAPE   H8R17494   5.308   2.846   7.684 -0.0686  1.7767  1.0264
  157SAPE   C2917495   5.204   2.869   7.864  0.9656  0.0268 -0.3729
  157SAPE   H9R17496   5.257   2.961   7.893  0.0263  0.4279  0.1049
  157SAPE  C21017497   5.099   2.834   7.966  0.4517 -0.1852  0.3041
  157SAPE  H10R17498   5.008   2.803   7.909  1.6348  0.6685 -2.2123
  157SAPE  H10S17499   5.061   2.917   8.029  1.1444  1.4983 -1.3848
  157SAPE  C21117500   5.134   2.719   8.054 -0.6673 -0.3048 -0.0585
  157SAPE  H11R17501   5.151   2.623   8.002  0.8439 -0.4899  0.7208
  157SAPE  C21217502   5.131   2.709   8.188  0.5238 -0.2078 -0.3974
  157SAPE  H12R17503   5.143   2.608   8.229  0.7237 -1.0383 -2.3690
  157SAPE  C21317504   5.123   2.831   8.279 -0.4693  0.1131 -0.0664
  157SAPE  H13R17505   5.158   2.917   8.219 -1.6053  0.0624 -0.8343
  157SAPE  H13S17506   5.188   2.810   8.366  0.7626  1.5874 -0.5913
  157SAPE  C21417507   4.981   2.865   8.319  0.6726 -0.3148  0.1575
  157SAPE  H14R17508   4.902   2.811   8.265  0.2890  0.0024  0.3927
  157SAPE  C21517509   4.944   2.967   8.401  0.1482 -0.1798  0.5413
  157SAPE  H15R17510   4.838   2.990   8.414  0.8163  3.3542  0.7762
  157SAPE  C21617511   5.043   3.055   8.472 -0.4037 -0.2630  0.1496
  157SAPE  H16R17512   5.141   3.056   8.420 -0.0856  2.1851  0.6822
  157SAPE  H16S17513   5.060   3.018   8.576 -0.1940 -1.0480 -0.1574
  157SAPE  C21717514   5.004   3.198   8.502  0.4721 -1.1250 -0.0928
  157SAPE  H17R17515   5.055   3.232   8.595  2.4892  0.3554 -1.6402
  157SAPE  H17S17516   4.893   3.206   8.505  0.4574 -1.6843  1.5468
  157SAPE  C21817517   5.055   3.301   8.408 -0.0899 -0.2469 -0.9061
  157SAPE  H18R17518   5.019   3.400   8.442 -0.6993 -0.0630 -2.0127
  157SAPE  H18S17519   5.018   3.269   8.308 -2.4520 -0.6519  0.0390
  157SAPE  C21917520   5.209   3.300   8.389  0.1214  0.3852 -0.0128
  157SAPE  H19R17521   5.236   3.221   8.315  0.3817 -1.0500  1.5479
  157SAPE  H19S17522   5.265   3.278   8.482  0.2264 -1.2670 -0.4290
  157SAPE  C22017523   5.253   3.430   8.325 -0.1085 -0.4536  0.4283
  157SAPE  H20R17524   5.214   3.516   8.383  0.8745 -0.4431  1.0978
  157SAPE  H20S17525   5.214   3.431   8.221  0.0147 -0.7244  0.3796
  157SAPE  H20T17526   5.364   3.436   8.321 -0.1726  0.0919 -0.8172
  157SAPE   C3317527   5.106   2.164   7.206 -0.0390 -0.4624 -0.3974
  157SAPE   H3X17528   5.004   2.127   7.229 -1.4109  0.1495 -4.5842
  157SAPE   H3Y17529   5.107   2.274   7.223  0.5874 -0.8348  2.3549
  157SAPE   C3417530   5.213   2.119   7.300 -0.1126 -0.1842 -0.3358
  157SAPE   H4X17531   5.313   2.138   7.255 -0.9661  1.0052 -1.8379
  157SAPE   H4Y17532   5.210   2.010   7.321 -0.9850 -0.4399 -1.6575
  157SAPE   C3517533   5.192   2.193   7.437  0.2492  0.2218 -0.3653
  157SAPE   H5X17534   5.108   2.138   7.485 -0.3335  2.2051  1.0236
  157SAPE   H5Y17535   5.170   2.301   7.423 -2.7900 -0.0933  1.0833
  157SAPE   C3617536   5.318   2.177   7.520 -0.3800 -0.6857 -0.9475
  157SAPE   H6X17537   5.388   2.231   7.451  1.3552 -0.2986  1.0202
  157SAPE   H6Y17538   5.356   2.077   7.548  0.7374  0.4192  1.8147
  157SAPE   C3717539   5.294   2.248   7.653 -0.1784 -0.8437 -0.5263
  157SAPE   H7X17540   5.227   2.186   7.716  0.5193 -1.2284 -0.1560
  157SAPE   H7Y17541   5.266   2.355   7.638  0.9491 -0.7846 -2.5280
  157SAPE   C3817542   5.426   2.274   7.733  0.1830  0.2460 -0.0558
  157SAPE   H8X17543   5.407   2.349   7.813  1.4086  0.7885 -0.2504
  157SAPE   H8Y17544   5.497   2.304   7.653 -0.0246 -1.1558 -0.8084
  157SAPE   C3917545   5.490   2.149   7.799  0.6550  0.1989  0.7079
  157SAPE   H9X17546   5.525   2.074   7.725 -1.7886 -0.3455  0.0083
  157SAPE   H9Y17547   5.416   2.102   7.867 -0.4278  2.8847  1.5495
  157SAPE  C31017548   5.614   2.196   7.889  0.0789  0.5504  0.3259
  157SAPE  H10X17549   5.614   2.307   7.892  1.3058  0.5732 -0.1890
  157SAPE  H10Y17550   5.711   2.167   7.843  0.2126 -0.0643  0.9722
  157SAPE  C31117551   5.592   2.149   8.036 -0.0369  0.0699  0.1030
  157SAPE  H11X17552   5.603   2.038   8.036 -1.1458 -0.0544  0.2394
  157SAPE  H11Y17553   5.486   2.175   8.058 -0.5000 -0.5137 -1.3044
  157SAPE  C31217554   5.694   2.194   8.138 -0.3052 -0.1493 -0.2397
  157SAPE  H12X17555   5.792   2.205   8.087  0.8265  0.3534  1.9166
  157SAPE  H12Y17556   5.723   2.112   8.207  2.6863  0.1549 -1.0309
  157SAPE  C31317557   5.641   2.314   8.220  0.1850 -0.3627 -0.3144
  157SAPE  H13X17558   5.535   2.291   8.247 -0.0752 -1.0042 -1.7664
  157SAPE  H13Y17559   5.634   2.401   8.151 -1.5884 -0.0767  0.1640
  157SAPE  C31417560   5.721   2.361   8.334 -0.1865  0.9804 -0.0030
  157SAPE  H14X17561   5.822   2.390   8.297 -0.0664  0.4073 -0.1325
  157SAPE  H14Y17562   5.733   2.271   8.397  0.5017 -1.4373 -3.2948
  157SAPE  C31517563   5.653   2.472   8.415  0.5461  0.5699  0.7611
  157SAPE  H15X17564   5.564   2.433   8.470  0.7437 -0.8885  0.0849
  157SAPE  H15Y17565   5.616   2.546   8.341 -1.8210 -1.8586 -0.6551
  157SAPE  C31617566   5.751   2.540   8.504 -0.5592  0.5640 -0.5542
  157SAPE  H16X17567   5.835   2.470   8.525  0.6722  2.0338 -0.4672
  157SAPE  H16Y17568   5.700   2.565   8.600 -1.4436  0.0054 -0.8593
  157SAPE  C31717569   5.803   2.668   8.447 -0.2868 -0.3822  0.1083
  157SAPE  H17X17570   5.832   2.730   8.535  3.9003 -1.0857 -0.5988
  157SAPE  H17Y17571   5.720   2.724   8.398  2.0468  1.1301 -2.4190
  157SAPE  C31817572   5.924   2.656   8.348  0.5542 -0.3863 -0.3909
  157SAPE  H18X17573   5.884   2.593   8.265  0.1121  0.7822 -1.0806
  157SAPE  H18Y17574   6.010   2.608   8.399  0.6005 -1.2507 -1.2453
  157SAPE  H18Z17575   5.958   2.756   8.313  0.1028  0.3621  1.2142
  158SAPE     N17576   6.454   1.513   6.009  0.3398 -0.0413  0.4230
  158SAPE   HN117577   6.364   1.473   5.975  0.4882 -3.6221  3.4916
  158SAPE   HN217578   6.521   1.436   6.032  1.9247  0.2151 -2.7424
  158SAPE   HN317579   6.432   1.558   6.100  1.8843 -1.9731  1.8359
  158SAPE   C1217580   6.518   1.595   5.894 -0.1308  0.8103  0.1019
  158SAPE  H12A17581   6.449   1.679   5.871  1.5559  2.0366 -0.6113
  158SAPE  H12B17582   6.526   1.536   5.800 -2.3497  0.8617 -0.1819
  158SAPE   C1117583   6.655   1.652   5.947 -0.0287  0.3015 -0.4002
  158SAPE  H11A17584   6.652   1.722   6.033  3.6828  0.1659  0.0337
  158SAPE  H11B17585   6.712   1.703   5.867  0.7895 -1.0257 -0.6998
  158SAPE     P17586   6.882   1.554   6.029  0.4495 -0.2057 -0.1524
  158SAPE   O1317587   6.934   1.434   6.095 -0.4973  0.1607  0.7793
  158SAPE   O1417588   6.955   1.586   5.907  0.0570 -0.3338  0.0529
  158SAPE   O1217589   6.730   1.537   5.994  0.3247 -0.2470 -0.3978
  158SAPE   O1117590   6.877   1.678   6.134 -0.0206  0.1934  0.1854
  158SAPE    C117591   6.843   1.641   6.267 -0.2918 -0.3446  0.0544
  158SAPE    HA17592   6.768   1.559   6.275  0.3946 -0.8141  2.2648
  158SAPE    HB17593   6.932   1.609   6.325  0.0738  0.8283  0.1560
  158SAPE    C217594   6.775   1.774   6.329 -0.1307  0.8004  0.2606
  158SAPE    HS17595   6.683   1.777   6.268 -0.2298 -0.1209  0.3630
  158SAPE   O2117596   6.861   1.886   6.311  0.0268  0.1888  0.2946
  158SAPE   C2117597   6.801   1.999   6.301 -0.1716  0.1120  0.4716
  158SAPE   O2217598   6.683   2.016   6.298 -0.0786 -0.7184  0.2514
  158SAPE   C2217599   6.904   2.116   6.307 -0.4777 -0.3752  1.0067
  158SAPE   H2R17600   6.986   2.065   6.363 -0.3342 -1.8216 -0.4386
  158SAPE   H2S17601   6.944   2.138   6.206 -1.1346 -2.1621  0.3117
  158SAPE    C317602   6.711   1.751   6.469  0.6213 -0.2511  0.1212
  158SAPE    HX17603   6.632   1.676   6.447 -1.7744  1.7963  1.2331
  158SAPE    HY17604   6.666   1.846   6.503  0.0869 -0.6801  0.6461
  158SAPE   O3117605   6.818   1.708   6.552  0.5561  0.3357  0.0177
  158SAPE   C3117606   6.773   1.656   6.669  0.6339  0.5098 -0.0212
  158SAPE   O3217607   6.658   1.660   6.708  0.2996 -0.5140  0.3540
  158SAPE   C3217608   6.885   1.575   6.745 -0.4147 -0.1521 -0.5609
  158SAPE   H2X17609   6.971   1.646   6.752  0.7645 -1.3824 -1.8733
  158SAPE   H2Y17610   6.921   1.490   6.684  2.5808 -0.9676  2.0210
  158SAPE   C2317611   6.854   2.237   6.390  0.8416  0.7911 -0.1613
  158SAPE   H3R17612   6.826   2.193   6.488  2.5002 -0.0538 -0.0259
  158SAPE   H3S17613   6.760   2.285   6.356  0.8776  0.1698 -1.1819
  158SAPE   C2417614   6.967   2.337   6.425  0.7935  0.1044  0.4880
  158SAPE   H4R17615   7.039   2.343   6.341  1.9423 -1.3722  1.3240
  158SAPE   H4S17616   7.039   2.291   6.497  0.9514  0.0271  0.2815
  158SAPE   C2517617   6.912   2.465   6.469 -0.1224 -0.2908 -0.1782
  158SAPE   H5R17618   6.853   2.520   6.394  1.0144  0.5012 -0.5208
  158SAPE   C2617619   6.930   2.533   6.585  0.4011  0.0747  0.5436
  158SAPE   H6R17620   6.862   2.618   6.597  2.1679  1.8990 -1.4706
  158SAPE   C2717621   7.025   2.490   6.700 -0.2292  0.3560 -0.0938
  158SAPE   H7R17622   7.124   2.451   6.670 -0.7529 -2.5513  1.5766
  158SAPE   H7S17623   6.978   2.404   6.752  1.4143 -1.3608 -1.3424
  158SAPE   C2817624   7.052   2.601   6.810  0.2818  0.8195  0.7795
  158SAPE   H8R17625   7.128   2.676   6.782 -2.1896  3.2560  0.1918
  158SAPE   C2917626   6.981   2.613   6.922 -0.5605 -0.7467  0.0101
  158SAPE   H9R17627   7.004   2.695   6.992  1.9110  0.3098 -1.8825
  158SAPE  C21017628   6.881   2.518   6.973  0.0698  0.4554 -0.3953
  158SAPE  H10R17629   6.935   2.435   7.023  0.4090 -0.3775 -2.0885
  158SAPE  H10S17630   6.819   2.484   6.887  1.2327  0.5007 -1.2759
  158SAPE  C21117631   6.791   2.570   7.083 -0.1891 -0.4375 -0.1570
  158SAPE  H11R17632   6.684   2.563   7.059 -0.8168  0.5643  2.0736
  158SAPE  C21217633   6.822   2.622   7.203  0.1731 -0.4761  0.3054
  158SAPE  H12R17634   6.732   2.632   7.265 -1.2804 -0.4758 -1.7237
  158SAPE  C21317635   6.951   2.646   7.274  0.3228 -0.5522 -0.5938
  158SAPE  H13R17636   7.001   2.737   7.234 -1.0546  1.3857  1.7983
  158SAPE  H13S17637   7.022   2.565   7.244 -1.6159 -2.2777 -0.7378
  158SAPE  C21417638   6.938   2.674   7.422 -0.3536 -0.0981 -0.1692
  158SAPE  H14R17639   6.845   2.725   7.454 -1.0468 -1.0546 -0.5924
  158SAPE  C21517640   7.037   2.643   7.512  0.2302 -0.4851  0.3519
  158SAPE  H15R17641   7.021   2.658   7.620  1.1510 -0.6005  0.5106
  158SAPE  C21617642   7.170   2.582   7.490 -0.0484 -0.0237  0.0609
  158SAPE  H16R17643   7.192   2.577   7.381 -0.9591 -0.8613 -0.0972
  158SAPE  H16S17644   7.173   2.477   7.527 -0.9594 -0.2658 -0.5327
  158SAPE  C21717645   7.293   2.659   7.540 -0.2374  0.5106  0.4803
  158SAPE  H17R17646   7.361   2.571   7.542 -1.4678 -0.5361 -1.0741
  158SAPE  H17S17647   7.278   2.694   7.645 -1.5393  2.1038 -0.1988
  158SAPE  C21817648   7.337   2.775   7.460  0.2801 -0.8360  0.1174
  158SAPE  H18R17649   7.247   2.835   7.437  0.2789 -0.5952  0.7527
  158SAPE  H18S17650   7.373   2.740   7.360 -0.8162  3.1719 -1.8791
  158SAPE  C21917651   7.444   2.858   7.531 -0.2760  0.5241  0.6676
  158SAPE  H19R17652   7.533   2.796   7.555 -1.1675 -0.4212  1.6335
  158SAPE  H19S17653   7.405   2.898   7.627 -0.6572  0.5578  0.5032
  158SAPE  C22017654   7.498   2.984   7.448  0.4806 -0.0034  0.5629
  158SAPE  H20R17655   7.421   3.064   7.437  0.1980 -0.3690 -0.1934
  158SAPE  H20S17656   7.536   2.939   7.354  1.6797 -1.8786  1.8981
  158SAPE  H20T17657   7.587   3.037   7.488  0.8017  3.5992 -4.0253
  158SAPE   C3317658   6.837   1.528   6.883 -0.2735 -1.2989 -0.5216
  158SAPE   H3X17659   6.888   1.448   6.940 -1.5707  0.2067  3.0821
  158SAPE   H3Y17660   6.744   1.468   6.869 -2.0596  1.6590 -2.4082
  158SAPE   C3417661   6.799   1.648   6.977 -0.3480 -0.2643 -0.2423
  158SAPE   H4X17662   6.703   1.696   6.950 -0.5320 -0.2786  0.3691
  158SAPE   H4Y17663   6.875   1.729   6.980 -0.6101 -0.0321  1.8470
  158SAPE   C3517664   6.764   1.594   7.118  0.4999  0.5780  0.0130
  158SAPE   H5X17665   6.856   1.546   7.157 -0.4841 -1.8632 -0.5306
  158SAPE   H5Y17666   6.687   1.517   7.094  0.8798 -0.4189  1.8026
  158SAPE   C3617667   6.717   1.707   7.215  0.1716  0.0431 -0.2608
  158SAPE   H6X17668   6.637   1.764   7.164  0.2308  0.9703  0.6668
  158SAPE   H6Y17669   6.799   1.780   7.234 -2.1474  2.5242  0.9186
  158SAPE   C3717670   6.669   1.655   7.348  0.6767  1.1200  0.1104
  158SAPE   H7X17671   6.593   1.575   7.333 -0.1011  1.5149  1.6790
  158SAPE   H7Y17672   6.747   1.619   7.418 -1.0268 -0.8683  1.1014
  158SAPE   C3817673   6.604   1.769   7.423  0.0205  1.0272  0.2659
  158SAPE   H8X17674   6.517   1.813   7.370  1.7163  1.8268 -2.0553
  158SAPE   H8Y17675   6.677   1.852   7.412  4.1082 -2.4276 -1.6542
  158SAPE   C3917676   6.571   1.744   7.577  0.0244  0.4448  0.2541
  158SAPE   H9X17677   6.669   1.710   7.617  0.8040 -1.6961 -3.0543
  158SAPE   H9Y17678   6.499   1.661   7.587 -1.5657  1.2028 -3.2631
  158SAPE  C31017679   6.518   1.870   7.641  0.2600 -0.7746  0.1344
  158SAPE  H10X17680   6.586   1.955   7.618  0.4601 -0.9528  0.0621
  158SAPE  H10Y17681   6.515   1.856   7.751 -0.4725  1.3617  0.4423
  158SAPE  C31117682   6.374   1.898   7.611 -0.1791  1.2136  0.3030
  158SAPE  H11X17683   6.313   1.810   7.639  0.4653  0.1739 -1.4304
  158SAPE  H11Y17684   6.364   1.905   7.501 -0.2235  2.4075  0.3689
  158SAPE  C31217685   6.332   2.029   7.661  0.2523 -0.3038 -0.6972
  158SAPE  H12X17686   6.381   2.109   7.602 -0.0160 -0.2894 -0.9056
  158SAPE  H12Y17687   6.363   2.040   7.767 -5.0740  0.6034  1.0585
  158SAPE  C31317688   6.182   2.074   7.651 -0.0755 -0.0866  0.3435
  158SAPE  H13X17689   6.151   2.167   7.704 -2.8800 -0.5360 -0.3435
  158SAPE  H13Y17690   6.110   2.001   7.693 -0.5227  0.5373  0.6726
  158SAPE  C31417691   6.141   2.090   7.508 -0.3153 -0.8479 -0.1216
  158SAPE  H14X17692   6.157   1.994   7.455  1.9516  0.2700 -1.6376
  158SAPE  H14Y17693   6.196   2.169   7.452 -0.8840  1.0000  1.7668
  158SAPE  C31517694   5.997   2.139   7.483 -0.8077 -0.0324 -0.0712
  158SAPE  H15X17695   5.996   2.232   7.543 -2.1384 -0.7508  1.0820
  158SAPE  H15Y17696   5.929   2.060   7.522  2.2350 -3.7884 -1.6716
  158SAPE  C31617697   5.961   2.171   7.338 -0.0471  0.1423 -0.1747
  158SAPE  H16X17698   5.981   2.086   7.268  0.7694  0.8775 -0.8637
  158SAPE  H16Y17699   6.013   2.264   7.308 -0.8949  0.6837  0.0181
  158SAPE  C31717700   5.817   2.211   7.333  0.4976  0.3155 -0.3030
  158SAPE  H17X17701   5.811   2.300   7.400 -1.9237  0.7050 -0.9318
  158SAPE  H17Y17702   5.763   2.132   7.388  0.9657  0.3360  0.1945
  158SAPE  C31817703   5.755   2.228   7.197  0.7172 -0.0369  0.5447
  158SAPE  H18X17704   5.645   2.244   7.201  0.6435  1.0196 -2.7782
  158SAPE  H18Y17705   5.758   2.136   7.135  1.7638 -0.8665  1.7860
  158SAPE  H18Z17706   5.788   2.316   7.137 -1.0015 -1.3248 -2.5039
  159SAPE     N17707   1.451   6.096   6.015  0.1141  0.2153  0.4171
  159SAPE   HN117708   1.435   5.997   6.043 -1.5145  0.3022 -0.1121
  159SAPE   HN217709   1.437   6.157   6.099 -2.1182 -1.6343  1.4764
  159SAPE   HN317710   1.373   6.122   5.952  0.2577  2.6225  1.1281
  159SAPE   C1217711   1.592   6.105   5.950 -0.1714 -0.1518  0.4456
  159SAPE  H12A17712   1.612   6.214   5.944 -1.3067  0.0164 -1.2855
  159SAPE  H12B17713   1.591   6.064   5.847  0.0547 -2.0849  1.1724
  159SAPE   C1117714   1.696   6.036   6.030 -0.1393 -0.1937  0.3376
  159SAPE  H11A17715   1.682   5.926   6.028  0.6401 -0.4553  3.4005
  159SAPE  H11B17716   1.688   6.071   6.135 -3.4741  0.8129 -0.1496
  159SAPE     P17717   1.906   5.970   5.904  0.3364  0.1762  0.2451
  159SAPE   O1317718   1.812   5.922   5.793 -0.2803  0.4924 -0.3122
  159SAPE   O1417719   2.041   6.023   5.860 -0.2956 -0.4682 -0.2820
  159SAPE   O1217720   1.829   6.072   6.002 -0.3156 -0.1701  0.1020
  159SAPE   O1117721   1.926   5.852   6.000  0.0313  0.3452  0.2952
  159SAPE    C117722   2.032   5.866   6.099  0.2188  0.0509 -0.3622
  159SAPE    HA17723   2.126   5.821   6.060 -0.1421 -0.5457 -0.5593
  159SAPE    HB17724   2.055   5.970   6.132 -0.0429 -0.1156  0.3550
  159SAPE    C217725   1.990   5.770   6.215 -0.8355 -0.0789  0.1370
  159SAPE    HS17726   1.967   5.674   6.164  0.8749 -2.2035  3.0758
  159SAPE   O2117727   1.867   5.807   6.283  0.1616 -0.5715 -0.5869
  159SAPE   C2117728   1.803   5.718   6.359 -0.3321 -0.6482 -0.5959
  159SAPE   O2217729   1.835   5.604   6.380 -0.3062  0.3860 -0.5822
  159SAPE   C2217730   1.676   5.788   6.407  0.3370  0.1538 -0.1045
  159SAPE   H2R17731   1.707   5.889   6.443  3.3023 -0.9207  0.6250
  159SAPE   H2S17732   1.619   5.788   6.312  0.1186  1.6239 -0.0095
  159SAPE    C317733   2.099   5.737   6.319 -0.4160 -0.3812 -0.0017
  159SAPE    HX17734   2.196   5.750   6.266 -2.2107 -0.1930 -3.5531
  159SAPE    HY17735   2.086   5.628   6.340 -2.5592 -0.2217 -0.3069
  159SAPE   O3117736   2.099   5.829   6.427  0.2163  0.0344  0.0850
  159SAPE   C3117737   2.146   5.783   6.541 -0.3030  0.7642 -0.3545
  159SAPE   O3217738   2.174   5.666   6.568 -0.1895 -0.1524  0.9238
  159SAPE   C3217739   2.157   5.887   6.639 -0.2589 -0.1634 -0.6355
  159SAPE   H2X17740   2.057   5.910   6.684  1.0038  2.0526  1.2628
  159SAPE   H2Y17741   2.190   5.981   6.591 -1.1933 -0.4012 -1.7905
  159SAPE   C2317742   1.587   5.707   6.510  0.0664 -0.0697  0.1060
  159SAPE   H3R17743   1.544   5.613   6.469  1.3538 -2.2063  3.3003
  159SAPE   H3S17744   1.498   5.772   6.521 -1.3415 -2.1568  1.6896
  159SAPE   C2417745   1.658   5.672   6.642  0.5601 -0.5304 -0.0047
  159SAPE   H4R17746   1.736   5.596   6.618 -0.4992 -1.8182  0.5026
  159SAPE   H4S17747   1.589   5.627   6.716  0.4926 -0.2942  0.0755
  159SAPE   C2517748   1.711   5.791   6.718 -0.1278  0.2649  0.1538
  159SAPE   H5R17749   1.742   5.880   6.661  2.4716 -0.2511  0.6224
  159SAPE   C2617750   1.703   5.810   6.850 -0.4837  0.5255 -0.3668
  159SAPE   H6R17751   1.723   5.910   6.893  2.9707 -0.9990  1.9867
  159SAPE   C2717752   1.661   5.713   6.956  0.0389 -0.4897 -0.3652
  159SAPE   H7R17753   1.665   5.610   6.913  1.7551 -0.3416 -0.6122
  159SAPE   H7S17754   1.557   5.746   6.979  0.4825  1.6960 -1.2261
  159SAPE   C2817755   1.757   5.727   7.071 -0.5089 -0.4464 -0.0856
  159SAPE   H8R17756   1.864   5.707   7.054 -0.6180 -0.5543 -0.6709
  159SAPE   C2917757   1.716   5.744   7.195 -0.3095  0.6154 -0.6364
  159SAPE   H9R17758   1.794   5.737   7.272  0.1868 -0.2624 -1.1921
  159SAPE  C21017759   1.574   5.777   7.240  0.4398  0.7560  0.7806
  159SAPE  H10R17760   1.553   5.732   7.340 -1.2967  2.5223  1.2835
  159SAPE  H10S17761   1.498   5.735   7.171  0.0310  0.3162  1.4860
  159SAPE  C21117762   1.565   5.925   7.243 -0.1028 -0.2477 -0.0055
  159SAPE  H11R17763   1.640   5.974   7.179 -0.5201  0.6186  0.1544
  159SAPE  C21217764   1.474   5.995   7.302 -0.5179 -0.5427 -0.5324
  159SAPE  H12R17765   1.496   6.103   7.310 -0.3508 -0.7103  2.1948
  159SAPE  C21317766   1.356   5.941   7.387  0.3306 -1.0764 -0.0075
  159SAPE  H13R17767   1.409   5.904   7.477 -2.5788 -2.9965  1.0770
  159SAPE  H13S17768   1.320   5.845   7.342  2.9991 -1.7282 -0.9630
  159SAPE  C21417769   1.243   6.036   7.407 -0.7659 -0.7002 -0.5288
  159SAPE  H14R17770   1.170   6.038   7.325 -0.7908  1.5931 -0.5127
  159SAPE  C21517771   1.222   6.118   7.508  0.4823  0.7063 -0.9917
  159SAPE  H15R17772   1.133   6.184   7.502 -0.4610 -0.1636  1.7787
  159SAPE  C21617773   1.303   6.143   7.635 -0.3871  0.1693 -0.5898
  159SAPE  H16R17774   1.355   6.240   7.625  0.2805  0.0564  1.3693
  159SAPE  H16S17775   1.383   6.066   7.630  0.2641  0.8172 -0.4015
  159SAPE  C21717776   1.231   6.137   7.771 -0.4732  0.6354 -0.3002
  159SAPE  H17R17777   1.165   6.048   7.770 -1.6832  1.5051 -0.6746
  159SAPE  H17S17778   1.176   6.233   7.778  0.0036  1.0058 -1.4679
  159SAPE  C21817779   1.329   6.136   7.896 -0.2671 -0.6263 -0.0501
  159SAPE  H18R17780   1.365   6.238   7.924 -0.9019 -0.8093  1.5088
  159SAPE  H18S17781   1.415   6.072   7.866  0.7174  0.3603  0.5894
  159SAPE  C21917782   1.253   6.085   8.024 -1.2110 -0.2034 -0.0208
  159SAPE  H19R17783   1.228   5.977   8.013 -1.0667 -0.0482 -2.6092
  159SAPE  H19S17784   1.154   6.135   8.027 -1.5407 -0.6793 -1.7559
  159SAPE  C22017785   1.327   6.110   8.150 -0.6317  0.3327  0.0945
  159SAPE  H20R17786   1.416   6.044   8.157 -1.7918 -1.4582 -1.1437
  159SAPE  H20S17787   1.261   6.090   8.237 -0.3448 -0.5590  0.1129
  159SAPE  H20T17788   1.370   6.212   8.164  1.2155 -0.6044  1.6376
  159SAPE   C3317789   2.267   5.855   6.750  0.7598 -0.5497 -0.3035
  159SAPE   H3X17790   2.289   5.949   6.805 -1.6433 -0.7228  1.0955
  159SAPE   H3Y17791   2.358   5.805   6.710  0.1567 -3.0932  1.2584
  159SAPE   C3417792   2.205   5.770   6.865  0.3565  0.5335 -0.0637
  159SAPE   H4X17793   2.202   5.665   6.831  0.2255  0.0305  1.4147
  159SAPE   H4Y17794   2.103   5.806   6.890 -0.5279 -2.9750  2.0490
  159SAPE   C3517795   2.290   5.781   6.994  0.7629  0.4717 -0.0035
  159SAPE   H5X17796   2.226   5.767   7.084 -0.8523  0.3884 -1.1130
  159SAPE   H5Y17797   2.330   5.884   6.998 -0.7968  1.1003  0.1658
  159SAPE   C3617798   2.402   5.675   7.002  0.4410 -0.0730 -0.1429
  159SAPE   H6X17799   2.459   5.679   6.907 -0.5869  2.8023 -0.7520
  159SAPE   H6Y17800   2.360   5.573   7.014  1.2075 -0.3315  0.4256
  159SAPE   C3717801   2.505   5.700   7.123 -0.3860  0.0000  0.1683
  159SAPE   H7X17802   2.568   5.789   7.100  0.2977 -0.5399 -0.0980
  159SAPE   H7Y17803   2.568   5.609   7.133 -0.3003 -0.4217 -3.1472
  159SAPE   C3817804   2.432   5.717   7.255 -0.1563 -0.3196  0.0593
  159SAPE   H8X17805   2.357   5.635   7.261 -0.6319  0.0626 -0.6022
  159SAPE   H8Y17806   2.386   5.818   7.255  2.5554  1.0932  2.6011
  159SAPE   C3917807   2.525   5.706   7.380 -0.1529  0.1311 -0.3201
  159SAPE   H9X17808   2.574   5.804   7.398 -0.5483  0.4344 -0.8399
  159SAPE   H9Y17809   2.612   5.645   7.347 -0.0795 -0.8566  1.5607
  159SAPE  C31017810   2.452   5.659   7.512 -0.4970  0.1246  0.5919
  159SAPE  H10X17811   2.419   5.555   7.491  0.6583 -0.1195 -0.0719
  159SAPE  H10Y17812   2.373   5.729   7.547 -0.8644 -0.4713  0.9838
  159SAPE  C31117813   2.557   5.663   7.632  0.5836  0.1917 -0.4722
  159SAPE  H11X17814   2.576   5.768   7.664  1.3135  0.1985 -0.8967
  159SAPE  H11Y17815   2.658   5.633   7.595  0.1693  0.6026 -1.9878
  159SAPE  C31217816   2.504   5.594   7.754 -0.8307  0.2459 -0.3074
  159SAPE  H12X17817   2.501   5.485   7.735  0.6226  0.2823 -0.8496
  159SAPE  H12Y17818   2.402   5.630   7.782 -1.3244 -1.4610  0.2107
  159SAPE  C31317819   2.604   5.605   7.876  0.0451 -0.2524 -0.3906
  159SAPE  H13X17820   2.602   5.705   7.925 -0.3750 -0.6565  0.4366
  159SAPE  H13Y17821   2.705   5.588   7.833  0.4589 -1.4767  0.9648
  159SAPE  C31417822   2.583   5.495   7.982 -0.3842  0.5039  0.4093
  159SAPE  H14X17823   2.619   5.405   7.927 -2.8203  1.3789 -2.9517
  159SAPE  H14Y17824   2.474   5.484   7.998  0.0878 -1.2258  2.9217
  159SAPE  C31517825   2.648   5.516   8.115 -0.2588  0.4329  0.1376
  159SAPE  H15X17826   2.605   5.607   8.162 -1.3059 -0.1607  0.3622
  159SAPE  H15Y17827   2.756   5.534   8.099 -0.7678  2.8821 -0.9605
  159SAPE  C31617828   2.617   5.400   8.212 -0.6473 -0.2979  0.1827
  159SAPE  H16X17829   2.699   5.382   8.284  0.8840 -1.2825 -1.6927
  159SAPE  H16Y17830   2.619   5.306   8.153 -1.3932 -0.8884  1.0712
  159SAPE  C31717831   2.473   5.394   8.260 -0.5254 -0.7343  0.3634
  159SAPE  H17X17832   2.399   5.423   8.182  0.7408  1.2191 -0.1902
  159SAPE  H17Y17833   2.467   5.474   8.337 -3.0954  0.6463 -1.1181
  159SAPE  C31817834   2.442   5.254   8.324  0.3087 -0.0775  0.2969
  159SAPE  H18X17835   2.391   5.189   8.250  1.4766 -0.1100 -0.5144
  159SAPE  H18Y17836   2.373   5.271   8.409 -2.2406 -0.3492 -1.6164
  159SAPE  H18Z17837   2.537   5.201   8.349  0.3127 -1.4499 -2.3328
  160SAPE     N17838   0.683   6.306   5.933  0.1476 -0.6277  0.6354
  160SAPE   HN117839   0.582   6.328   5.943  0.2395  0.9238 -1.2258
  160SAPE   HN217840   0.713   6.336   5.838 -2.8114 -0.7552 -0.4368
  160SAPE   HN317841   0.700   6.204   5.937  3.2885 -0.2048  0.2778
  160SAPE   C1217842   0.765   6.365   6.046 -0.9262 -0.3021  0.3101
  160SAPE  H12A17843   0.698   6.364   6.135 -0.9419  1.2150  0.3279
  160SAPE  H12B17844   0.793   6.469   6.021  2.2360 -0.9544  0.7028
  160SAPE   C1117845   0.893   6.279   6.073  0.8002 -0.1720 -0.8552
  160SAPE  H11A17846   0.870   6.171   6.090 -1.0143 -0.0947 -2.4412
  160SAPE  H11B17847   0.942   6.313   6.167  0.2383 -4.6217  1.3222
  160SAPE     P17848   1.137   6.310   5.970  0.2140  0.1959 -0.2448
  160SAPE   O1317849   1.197   6.183   5.922  0.2072 -0.3356 -0.0865
  160SAPE   O1417850   1.198   6.433   5.917  0.0970 -0.6073  0.8970
  160SAPE   O1217851   0.980   6.292   5.963  0.3810 -0.5392 -0.6175
  160SAPE   O1117852   1.166   6.311   6.122 -0.4050  0.3149 -0.8874
  160SAPE    C117853   1.172   6.434   6.193  0.1110  0.2721  0.9222
  160SAPE    HA17854   1.105   6.508   6.144  0.2309 -0.9248 -1.1339
  160SAPE    HB17855   1.126   6.412   6.292 -3.2995 -1.2766 -0.8358
  160SAPE    C217856   1.314   6.500   6.198  0.2795  0.1607 -1.0052
  160SAPE    HS17857   1.366   6.479   6.102 -0.2553  1.8559 -1.7091
  160SAPE   O2117858   1.387   6.455   6.314 -0.0867  0.0192 -0.2954
  160SAPE   C2117859   1.425   6.328   6.319  0.1054 -0.0838  0.1403
  160SAPE   O2217860   1.439   6.252   6.224 -0.3286  0.3064 -0.1429
  160SAPE   C2217861   1.460   6.293   6.462 -0.6405  0.5097  0.4195
  160SAPE   H2R17862   1.531   6.371   6.496  0.3075 -0.5361  0.8821
  160SAPE   H2S17863   1.362   6.291   6.514 -0.0695 -0.6230  1.5037
  160SAPE    C317864   1.313   6.658   6.198 -0.1296  0.7835  0.1139
  160SAPE    HX17865   1.252   6.689   6.110 -2.8433  0.1907  1.6928
  160SAPE    HY17866   1.409   6.710   6.178 -0.0584  1.2058  1.4778
  160SAPE   O3117867   1.260   6.708   6.318 -0.4564  0.4622 -0.1418
  160SAPE   C3117868   1.130   6.735   6.318 -0.8562 -0.2744 -0.0790
  160SAPE   O3217869   1.050   6.726   6.224  0.0858  0.5816  1.0000
  160SAPE   C3217870   1.090   6.774   6.462  0.5885 -0.1986 -0.2186
  160SAPE   H2X17871   1.181   6.811   6.514 -0.6213 -0.0479  1.9478
  160SAPE   H2Y17872   1.060   6.678   6.511 -1.7191  0.1312 -0.8428
  160SAPE   C2317873   1.508   6.148   6.477  0.1451 -0.7959  0.3683
  160SAPE   H3R17874   1.596   6.122   6.415 -1.9414 -2.8888 -1.9773
  160SAPE   H3S17875   1.431   6.071   6.453 -0.0534 -0.4494 -0.1226
  160SAPE   C2417876   1.548   6.128   6.625 -0.2563  0.2227  0.0213
  160SAPE   H4R17877   1.563   6.018   6.632 -0.9064 -0.0096 -1.8536
  160SAPE   H4S17878   1.461   6.159   6.686  0.1673  1.1774  0.1714
  160SAPE   C2517879   1.678   6.197   6.666 -0.2187  0.5798 -0.1978
  160SAPE   H5R17880   1.765   6.190   6.600  0.0566 -0.9870  0.2972
  160SAPE   C2617881   1.695   6.253   6.785 -0.5070 -0.0774  0.5316
  160SAPE   H6R17882   1.790   6.307   6.798  1.1545 -2.2934 -1.6594
  160SAPE   C2717883   1.590   6.258   6.894  0.3040 -0.0522  0.0215
  160SAPE   H7R17884   1.526   6.168   6.896  0.6616 -0.3012  0.3084
  160SAPE   H7S17885   1.523   6.345   6.876  1.8491  1.5066  1.3326
  160SAPE   C2817886   1.646   6.274   7.035 -0.5964 -0.6446 -0.1352
  160SAPE   H8R17887   1.748   6.235   7.049 -0.2531  0.3918  0.4194
  160SAPE   C2917888   1.586   6.326   7.144 -0.1664  0.3591 -0.3537
  160SAPE   H9R17889   1.639   6.345   7.238 -2.2244 -1.2107  1.2137
  160SAPE  C21017890   1.442   6.373   7.156  0.1214  0.1178  0.1433
  160SAPE  H10R17891   1.394   6.302   7.227  0.1827  1.7284  1.9033
  160SAPE  H10S17892   1.395   6.364   7.056  2.0955 -1.7028 -0.7145
  160SAPE  C21117893   1.429   6.515   7.195 -0.1582  0.6773 -0.0525
  160SAPE  H11R17894   1.437   6.587   7.113 -2.4871  1.1787  0.0745
  160SAPE  C21217895   1.392   6.564   7.318 -0.3714  0.4383 -0.3577
  160SAPE  H12R17896   1.372   6.671   7.336  1.8538  0.7800  0.3896
  160SAPE  C21317897   1.352   6.477   7.438  0.2750 -0.1509 -0.0628
  160SAPE  H13R17898   1.444   6.469   7.499  0.0044  0.9657  0.5158
  160SAPE  H13S17899   1.349   6.374   7.398 -0.0448  0.5504 -1.9649
  160SAPE  C21417900   1.224   6.505   7.521 -0.4369 -0.0307 -0.0068
  160SAPE  H14R17901   1.139   6.511   7.452  1.1247 -3.2823 -2.5001
  160SAPE  C21517902   1.206   6.514   7.648  0.1227 -0.3308 -0.6899
  160SAPE  H15R17903   1.106   6.534   7.688  0.5464  0.9894 -0.2485
  160SAPE  C21617904   1.311   6.492   7.751 -0.1124  0.7726 -0.4538
  160SAPE  H16R17905   1.404   6.454   7.705 -0.1187  0.1059  0.0688
  160SAPE  H16S17906   1.275   6.416   7.824 -0.6794  0.7537 -0.7469
  160SAPE  C21717907   1.335   6.615   7.838  0.1183  0.3847 -0.0628
  160SAPE  H17R17908   1.240   6.650   7.885  0.4055 -0.3139  1.0746
  160SAPE  H17S17909   1.381   6.697   7.779  2.4362 -0.7453  0.0781
  160SAPE  C21817910   1.429   6.577   7.950 -0.4509  0.1243  0.3717
  160SAPE  H18R17911   1.506   6.513   7.902 -0.2616  1.6317 -1.4612
  160SAPE  H18S17912   1.373   6.510   8.018  0.2582 -0.0632  0.7903
  160SAPE  C21917913   1.481   6.699   8.018  0.1300  0.4020 -0.0632
  160SAPE  H19R17914   1.511   6.775   7.942  0.3482  0.2601 -0.1195
  160SAPE  H19S17915   1.575   6.678   8.073 -0.0319 -0.1085  0.0214
  160SAPE  C22017916   1.378   6.755   8.117 -0.8146  0.1813  0.0787
  160SAPE  H20R17917   1.334   6.668   8.171  1.5780  0.0659  2.0122
  160SAPE  H20S17918   1.302   6.805   8.053 -0.3863  0.1301 -0.4769
  160SAPE  H20T17919   1.414   6.820   8.199 -1.7999 -0.5193  1.0929
  160SAPE   C3317920   0.963   6.869   6.479 -0.7605  0.1333  0.2345
  160SAPE   H3X17921   0.875   6.845   6.416 -1.1660 -1.1368  1.2391
  160SAPE   H3Y17922   0.993   6.971   6.447 -1.0586  0.3465  0.6155
  160SAPE   C3417923   0.920   6.888   6.621 -1.1365 -0.0102 -0.6958
  160SAPE   H4X17924   0.876   6.989   6.632  2.8834  2.1241 -2.3023
  160SAPE   H4Y17925   1.008   6.875   6.687 -0.7305 -1.5168 -1.4904
  160SAPE   C3517926   0.819   6.780   6.661  0.3047  0.2408 -0.1924
  160SAPE   H5X17927   0.872   6.683   6.677 -0.3015  0.0957  1.0397
  160SAPE   H5Y17928   0.738   6.751   6.591  1.0947 -1.9140 -0.3082
  160SAPE   C3617929   0.762   6.808   6.805  1.1557  0.0670 -0.8221
  160SAPE   H6X17930   0.696   6.897   6.812 -0.3536 -1.1092  1.5988
  160SAPE   H6Y17931   0.843   6.825   6.879 -2.0413  0.1940  3.0163
  160SAPE   C3717932   0.680   6.691   6.863 -0.1866 -0.0705  0.1085
  160SAPE   H7X17933   0.737   6.596   6.853 -1.7813 -0.9134 -1.4193
  160SAPE   H7Y17934   0.588   6.666   6.808  0.5255  0.5256 -1.4042
  160SAPE   C3817935   0.670   6.697   7.018  0.2024  0.5367  0.2327
  160SAPE   H8X17936   0.758   6.730   7.077  0.6178 -1.2248  0.6332
  160SAPE   H8Y17937   0.650   6.600   7.068 -0.1678 -0.4058 -1.6493
  160SAPE   C3917938   0.553   6.793   7.053  0.0018 -0.3810  0.4490
  160SAPE   H9X17939   0.465   6.765   6.992  1.0513 -1.8826 -0.4261
  160SAPE   H9Y17940   0.583   6.897   7.026 -0.9848 -0.4300 -0.9322
  160SAPE  C31017941   0.508   6.790   7.202 -0.7804  0.1252 -0.2573
  160SAPE  H10X17942   0.459   6.694   7.232  0.9265 -0.5864  0.3571
  160SAPE  H10Y17943   0.433   6.871   7.214  1.2832  1.8456  1.7008
  160SAPE  C31117944   0.621   6.813   7.302 -0.2170 -0.2357 -0.7819
  160SAPE  H11X17945   0.694   6.891   7.269  2.3630 -0.4928  3.6121
  160SAPE  H11Y17946   0.687   6.725   7.308  0.5149  0.2509 -1.4326
  160SAPE  C31217947   0.569   6.832   7.444 -0.1458 -0.2755  0.1711
  160SAPE  H12X17948   0.482   6.764   7.454 -1.6295  1.7198  1.9310
  160SAPE  H12Y17949   0.526   6.934   7.456  0.4036 -0.1252  0.9079
  160SAPE  C31317950   0.674   6.796   7.548 -0.5789  0.5687 -0.5020
  160SAPE  H13X17951   0.755   6.870   7.529 -0.6266  0.6236 -0.4933
  160SAPE  H13Y17952   0.700   6.688   7.545 -1.4865  0.2431  1.6641
  160SAPE  C31417953   0.607   6.813   7.686 -0.6853 -0.0293 -0.5256
  160SAPE  H14X17954   0.548   6.721   7.709  2.2413 -2.2124 -1.0821
  160SAPE  H14Y17955   0.548   6.906   7.674  0.3178  0.5634 -0.9658
  160SAPE  C31517956   0.711   6.833   7.802 -0.3422  0.0462  1.0753
  160SAPE  H15X17957   0.795   6.892   7.760 -0.0601 -0.1084  1.4067
  160SAPE  H15Y17958   0.747   6.729   7.822 -0.9081 -0.8345 -1.9986
  160SAPE  C31617959   0.671   6.896   7.933  0.5073 -0.6442 -0.1976
  160SAPE  H16X17960   0.583   6.855   7.988  0.3633 -0.1014 -0.0094
  160SAPE  H16Y17961   0.629   6.993   7.898  1.5710 -0.4767 -1.0408
  160SAPE  C31717962   0.778   6.922   8.037 -0.1240  0.7908 -1.2638
  160SAPE  H17X17963   0.872   6.970   8.001  0.7453  0.3936  0.3326
  160SAPE  H17Y17964   0.799   6.825   8.088 -0.7393  1.2335 -0.1208
  160SAPE  C31817965   0.738   7.029   8.147 -0.2094  0.2798  0.4324
  160SAPE  H18X17966   0.737   7.131   8.103 -1.9928  0.4241  0.7249
  160SAPE  H18Y17967   0.802   7.037   8.238  0.4971 -1.5762  0.1579
  160SAPE  H18Z17968   0.635   7.002   8.178 -0.5616 -0.7767 -1.5002
  161SOPE     N17969   0.613   6.192  10.491  0.0745  0.1035  0.1253
  161SOPE   HN117970   0.697   6.171  10.548  0.1654  1.6856  0.6089
  161SOPE   HN217971   0.609   6.296  10.491 -1.6950  0.2109 -3.6911
  161SOPE   HN317972   0.527   6.162  10.542 -0.0535  0.0152 -0.1405
  161SOPE   C1217973   0.635   6.138  10.350  0.1994 -0.0061  0.3865
  161SOPE  H12A17974   0.702   6.209  10.296 -2.8137  2.1975 -0.7721
  161SOPE  H12B17975   0.539   6.155  10.296  0.6788  0.6686 -0.2679
  161SOPE   C1117976   0.704   6.001  10.336 -0.4135 -0.0612  0.0371
  161SOPE  H11A17977   0.731   5.994  10.228  0.6497  0.7550  0.2458
  161SOPE  H11B17978   0.619   5.938  10.372  0.9497 -0.8542  2.0234
  161SOPE     P17979   0.822   5.911  10.550  0.2656  0.0029  0.3451
  161SOPE   O1317980   0.717   5.974  10.632 -0.0555  0.4068  0.1823
  161SOPE   O1417981   0.963   5.918  10.593 -0.3697 -0.3274 -0.3382
  161SOPE   O1217982   0.822   5.982  10.409 -0.0273 -0.2127 -0.2535
  161SOPE   O1117983   0.778   5.764  10.515  0.2134 -0.0624 -0.2531
  161SOPE    C117984   0.877   5.663  10.476  0.2467 -0.1891  0.1248
  161SOPE    HA17985   0.840   5.560  10.495 -1.6418  0.4395  0.0958
  161SOPE    HB17986   0.974   5.669  10.530 -0.9852 -0.9278  2.5773
  161SOPE    C217987   0.911   5.677  10.324 -0.5508  1.0372 -0.8462
  161SOPE    HS17988   0.956   5.778  10.319  3.0586 -0.4174 -0.2493
  161SOPE   O2117989   0.794   5.659  10.248  0.2084  0.0791 -0.4143
  161SOPE   C2117990   0.787   5.740  10.140 -0.0972  0.5285  0.1340
  161SOPE   O2217991   0.880   5.803  10.090  0.0543  0.1617  0.2128
  161SOPE   C2217992   0.647   5.735  10.091 -0.0090 -0.2423 -0.0281
  161SOPE   H2R17993   0.580   5.767  10.174 -0.3451 -0.0202 -0.3829
  161SOPE   H2S17994   0.631   5.627  10.068  3.4305 -0.4115 -2.3289
  161SOPE    C317995   1.017   5.571  10.293  0.4519 -0.0385 -0.1074
  161SOPE    HX17996   0.974   5.470  10.306 -1.3963  0.8601  1.1814
  161SOPE    HY17997   1.092   5.580  10.374  0.8063 -0.8517 -0.3323
  161SOPE   O3117998   1.073   5.588  10.153 -0.0316 -0.7755  0.2167
  161SOPE   C3117999   1.155   5.690  10.143  0.5997 -0.3429  0.4575
  161SOPE   O3218000   1.190   5.759  10.238  0.1390 -0.9314 -0.4935
  161SOPE   C3218001   1.219   5.701  10.006 -0.5198 -0.3944  0.6493
  161SOPE   H2X18002   1.303   5.628  10.002  1.9502  2.0991  2.8466
  161SOPE   H2Y18003   1.267   5.801  10.005 -1.4440  0.0572 -0.5938
  161SOPE   C2318004   0.623   5.832   9.970  0.2569 -0.0997  0.1327
  161SOPE   H3R18005   0.676   5.929   9.986 -1.1364  0.8483 -0.6877
  161SOPE   H3S18006   0.518   5.869   9.959 -0.7441 -2.9310 -0.5620
  161SOPE   C2418007   0.664   5.766   9.834  0.0545 -0.3666 -0.1087
  161SOPE   H4R18008   0.769   5.735   9.853  0.5754 -0.1085 -2.2472
  161SOPE   H4S18009   0.600   5.675   9.825  0.2189 -0.4836 -0.1048
  161SOPE   C2518010   0.637   5.861   9.715 -0.8242  0.0908 -0.5479
  161SOPE   H5R18011   0.525   5.858   9.715 -0.8570  0.9377  0.2827
  161SOPE   H5S18012   0.674   5.961   9.743 -0.8557 -0.2464  0.7432
  161SOPE   C2618013   0.679   5.819   9.575  0.3511 -0.3240 -0.6701
  161SOPE   H6R18014   0.788   5.829   9.556  1.7614  0.1192  5.4356
  161SOPE   H6S18015   0.661   5.711   9.558  0.9036 -0.6379  0.6073
  161SOPE   C2718016   0.604   5.905   9.468 -0.0388 -0.7150 -0.1384
  161SOPE   H7R18017   0.496   5.877   9.473 -0.0084 -0.7750  0.1549
  161SOPE   H7S18018   0.611   6.010   9.504  0.7927 -0.5356 -0.7993
  161SOPE   C2818019   0.664   5.892   9.329  0.3551 -0.3758  0.2420
  161SOPE   H8R18020   0.600   5.945   9.256  1.9069 -0.1983 -1.0634
  161SOPE   H8S18021   0.755   5.953   9.308 -0.6019  1.8820  2.2074
  161SOPE   C2918022   0.673   5.749   9.283  0.0582 -0.0744  0.3139
  161SOPE   H9118023   0.752   5.689   9.331  0.5011 -0.8227 -1.2617
  161SOPE  C21018024   0.601   5.688   9.191  0.4691  0.6239 -0.3079
  161SOPE  H10118025   0.624   5.583   9.167 -0.8119 -0.1403  1.6151
  161SOPE  C21118026   0.492   5.752   9.108 -0.1671  0.5378  0.9089
  161SOPE  H11R18027   0.540   5.836   9.054 -1.3810  0.0822 -0.9941
  161SOPE  H11S18028   0.409   5.792   9.170 -1.5615 -2.6157  1.2927
  161SOPE  C21218029   0.437   5.656   8.995 -0.1661  0.2022  0.5530
  161SOPE  H12R18030   0.398   5.565   9.045 -1.3737  1.8384  2.7713
  161SOPE  H12S18031   0.521   5.630   8.928 -1.1855  0.2745 -0.7852
  161SOPE  C21318032   0.336   5.718   8.901 -0.5637 -0.3934  0.3224
  161SOPE  H13R18033   0.244   5.741   8.959  0.3596  0.2915  1.5666
  161SOPE  H13S18034   0.305   5.647   8.822  1.1668 -0.6692 -0.1559
  161SOPE  C21418035   0.395   5.841   8.834  0.4000  0.7389 -0.1230
  161SOPE  H14R18036   0.495   5.810   8.797 -0.0255 -0.9570  0.0180
  161SOPE  H14S18037   0.409   5.926   8.903  2.2067  0.2433  0.1752
  161SOPE  C21518038   0.305   5.886   8.718 -1.1634  0.4267  0.4314
  161SOPE  H15R18039   0.203   5.885   8.763 -2.0923 -0.6273 -1.5602
  161SOPE  H15S18040   0.317   5.812   8.636  2.2393 -0.0216  1.2075
  161SOPE  C21618041   0.351   6.022   8.677 -0.0506 -0.7427  0.2289
  161SOPE  H16R18042   0.461   6.038   8.677 -0.2242  0.6788 -0.6342
  161SOPE  H16S18043   0.328   6.086   8.766  2.0134 -0.8538  0.9013
  161SOPE  C21718044   0.290   6.080   8.545 -0.1096 -0.1057  0.1383
  161SOPE  H17R18045   0.183   6.054   8.540  0.1178 -1.0987  0.2347
  161SOPE  H17S18046   0.344   6.030   8.462  0.6391 -0.5589  0.8808
  161SOPE  C21818047   0.307   6.229   8.527  0.5585 -0.3692  0.5216
  161SOPE  H18R18048   0.243   6.256   8.441 -1.8954 -1.6663  1.8378
  161SOPE  H18S18049   0.411   6.267   8.514 -0.3761  2.4347  0.5822
  161SOPE  H18T18050   0.258   6.282   8.612 -0.0234  0.6405 -0.4168
  161SOPE   C3318051   1.116   5.713   9.893 -0.1498  0.2432  0.8872
  161SOPE   H3X18052   1.118   5.820   9.863 -2.0475 -0.4611 -2.2173
  161SOPE   H3Y18053   1.011   5.681   9.910 -1.3282  2.3952 -1.6177
  161SOPE   C3418054   1.171   5.642   9.760  0.3441  0.3725 -0.2156
  161SOPE   H4X18055   1.155   5.533   9.775 -0.0026  0.3487 -0.7191
  161SOPE   H4Y18056   1.280   5.652   9.743  0.3891 -0.2201 -0.3250
  161SOPE   C3518057   1.099   5.690   9.634 -0.2195 -0.3619  0.1146
  161SOPE   H5X18058   1.106   5.800   9.624  4.1110 -0.4872 -0.1027
  161SOPE   H5Y18059   0.995   5.651   9.646 -1.3780  1.7703 -2.2425
  161SOPE   C3618060   1.148   5.617   9.506  0.3047 -0.8627  0.8972
  161SOPE   H6X18061   1.142   5.507   9.523 -1.3372 -0.7600  1.0967
  161SOPE   H6Y18062   1.253   5.646   9.486 -0.1028 -0.3128 -0.5791
  161SOPE   C3718063   1.069   5.654   9.371  0.6662 -0.0983  0.7543
  161SOPE   H7X18064   1.043   5.762   9.375  0.8960 -0.0026 -0.2325
  161SOPE   H7Y18065   0.968   5.609   9.369 -0.6553  2.6506  0.8661
  161SOPE   C3818066   1.153   5.622   9.245  0.5370 -0.0441  0.5802
  161SOPE   H8X18067   1.193   5.520   9.265  3.0824  0.3667 -1.8684
  161SOPE   H8Y18068   1.240   5.690   9.245 -0.1083  0.8023  0.6641
  161SOPE   C3918069   1.080   5.640   9.114  0.3136 -0.2707  0.2365
  161SOPE   H9X18070   1.021   5.734   9.116 -2.6632 -2.0345  1.5300
  161SOPE   H9Y18071   1.011   5.553   9.110 -1.0284  0.7598  0.2136
  161SOPE  C31018072   1.175   5.648   8.991  0.1011 -0.1126  0.0837
  161SOPE  H10X18073   1.219   5.547   8.982  1.5548  0.2342  2.3597
  161SOPE  H10Y18074   1.257   5.717   9.021 -1.2058  0.6907  2.0631
  161SOPE  C31118075   1.094   5.685   8.862  0.0385 -0.2503 -0.6004
  161SOPE  H11X18076   1.168   5.684   8.780  1.0280 -2.7063  0.2249
  161SOPE  H11Y18077   1.061   5.789   8.880 -2.0535 -0.9915  0.2199
  161SOPE  C31218078   0.970   5.590   8.835  0.2171  0.3363  0.1870
  161SOPE  H12X18079   0.903   5.598   8.923 -3.1093  0.2393 -2.1601
  161SOPE  H12Y18080   1.000   5.483   8.842 -1.7334 -0.2098  0.9609
  161SOPE  C31318081   0.915   5.616   8.697  0.4479  0.1513  0.6546
  161SOPE  H13X18082   0.992   5.586   8.623  0.3195 -0.2779  0.6893
  161SOPE  H13Y18083   0.883   5.722   8.684 -0.6313 -0.2476 -0.0489
  161SOPE  C31418084   0.797   5.516   8.667  0.2928 -0.4343  1.1022
  161SOPE  H14X18085   0.733   5.513   8.757  0.6121 -0.8702  1.3172
  161SOPE  H14Y18086   0.857   5.423   8.661  2.3065  0.7888  1.4863
  161SOPE  C31518087   0.711   5.538   8.540 -0.2436  0.6789 -0.0751
  161SOPE  H15X18088   0.769   5.504   8.452  1.0770  1.2345  0.5519
  161SOPE  H15Y18089   0.694   5.646   8.523 -0.5438  0.3286 -2.3748
  161SOPE  C31618090   0.580   5.460   8.545 -0.0522  0.1174 -0.4790
  161SOPE  H16X18091   0.528   5.482   8.641  0.4504 -0.0468 -0.1684
  161SOPE  H16Y18092   0.615   5.355   8.549 -2.7357 -0.8559 -0.4082
  161SOPE  C31718093   0.488   5.478   8.427 -0.0437 -0.2856  0.4007
  161SOPE  H17X18094   0.541   5.492   8.331 -1.1833  2.5048  0.0657
  161SOPE  H17Y18095   0.446   5.577   8.456  0.4191  0.2205 -0.5951
  161SOPE  C31818096   0.379   5.378   8.407  0.5299 -0.4928 -1.2569
  161SOPE  H18X18097   0.305   5.387   8.489  0.7128  2.4119 -1.3165
  161SOPE  H18Y18098   0.422   5.276   8.405  0.8062 -0.6356  3.1363
  161SOPE  H18Z18099   0.315   5.405   8.321 -1.8733  1.0426  0.8730
  162SOPE     N18100   4.715   6.536  10.532  0.1291 -0.7608  0.0713
  162SOPE   HN118101   4.756   6.470  10.462  0.1119 -2.8527  1.9089
  162SOPE   HN218102   4.794   6.589  10.575 -0.2977 -0.5486  0.5994
  162SOPE   HN318103   4.667   6.484  10.609 -1.3165 -1.1609 -1.0679
  162SOPE   C1218104   4.637   6.654  10.477  0.2500  0.8861 -0.2049
  162SOPE  H12A18105   4.576   6.689  10.563 -0.9429 -4.0251  1.2198
  162SOPE  H12B18106   4.559   6.619  10.407  1.3841 -0.2521 -0.9498
  162SOPE   C1118107   4.733   6.756  10.419  0.5524  0.5082 -0.2699
  162SOPE  H11A18108   4.672   6.847  10.401 -0.8672 -0.3434  0.0780
  162SOPE  H11B18109   4.777   6.715  10.326  0.5647  0.5286 -0.2732
  162SOPE     P18110   4.822   6.851  10.653  0.2221 -0.1301  0.9259
  162SOPE   O1318111   4.952   6.920  10.675 -0.1213 -0.2351 -0.1238
  162SOPE   O1418112   4.765   6.761  10.751  0.3088  0.1016  0.2484
  162SOPE   O1218113   4.838   6.776  10.512  0.4369 -0.0898 -0.3286
  162SOPE   O1118114   4.709   6.963  10.615  0.0127 -0.2007 -0.0137
  162SOPE    C118115   4.734   7.102  10.588  0.2270  0.0347  0.4056
  162SOPE    HA18116   4.824   7.140  10.641 -0.6475  2.3950  0.2953
  162SOPE    HB18117   4.654   7.156  10.643 -1.0282 -0.6570 -0.6735
  162SOPE    C218118   4.749   7.152  10.437 -0.4923  0.2060 -0.3110
  162SOPE    HS18119   4.735   7.262  10.447  0.9030  0.8332 -3.7504
  162SOPE   O2118120   4.648   7.086  10.363 -0.4012  0.3253  0.4093
  162SOPE   C2118121   4.576   7.171  10.282 -0.3591 -0.1146 -0.1065
  162SOPE   O2218122   4.587   7.295  10.278 -0.7099  0.1873 -0.5564
  162SOPE   C2218123   4.489   7.090  10.183  0.1899 -0.0268 -0.7650
  162SOPE   H2R18124   4.395   7.147  10.169 -0.3315 -1.2045 -2.4259
  162SOPE   H2S18125   4.466   6.992  10.230 -1.4479  0.1276 -1.1863
  162SOPE    C318126   4.884   7.117  10.374  0.4573 -0.7949  0.4512
  162SOPE    HX18127   4.910   7.010  10.365  0.1766 -0.9041  0.9015
  162SOPE    HY18128   4.958   7.152  10.449  0.1938  3.7253 -1.0997
  162SOPE   O3118129   4.893   7.178  10.246  0.5073 -0.2046 -0.1599
  162SOPE   C3118130   4.997   7.253  10.224  0.1613 -0.0412  0.0859
  162SOPE   O3218131   5.098   7.259  10.292  0.1395 -0.0732  0.1447
  162SOPE   C3218132   4.995   7.333  10.097  0.5282 -0.1742  0.0283
  162SOPE   H2X18133   4.966   7.436  10.125 -0.0108 -0.1706 -0.5160
  162SOPE   H2Y18134   4.909   7.300  10.034  0.8057  0.1558 -0.5293
  162SOPE   C2318135   4.539   7.080  10.031  0.4487 -0.8476  0.0540
  162SOPE   H3R18136   4.557   7.177   9.981  1.2450 -1.0851 -0.1258
  162SOPE   H3S18137   4.465   7.023   9.971  1.0080 -1.0296 -0.4705
  162SOPE   C2418138   4.675   6.998  10.022  1.0732  0.7135 -0.8376
  162SOPE   H4R18139   4.715   6.991  10.125  0.7789 -1.3680 -0.8059
  162SOPE   H4S18140   4.643   6.894   9.999  0.7693  0.5627  0.2376
  162SOPE   C2518141   4.766   7.054   9.912 -0.5218  0.5182  0.3960
  162SOPE   H5R18142   4.791   7.156   9.946  1.1992 -0.4339  2.1620
  162SOPE   H5S18143   4.856   6.989   9.917 -2.5439 -2.3975  2.4140
  162SOPE   C2618144   4.707   7.062   9.772  0.4623  0.5891  0.0935
  162SOPE   H6R18145   4.667   6.960   9.754 -0.7869  0.5579  2.6682
  162SOPE   H6S18146   4.618   7.129   9.772  1.7318  2.3698 -0.7083
  162SOPE   C2718147   4.792   7.117   9.665  0.4549  0.8551  0.2003
  162SOPE   H7R18148   4.812   7.225   9.679  2.0362  0.6407 -0.2180
  162SOPE   H7S18149   4.892   7.071   9.675  0.2952  0.4876  0.1237
  162SOPE   C2818150   4.748   7.082   9.524 -0.0267  0.9668 -0.0910
  162SOPE   H8R18151   4.834   7.094   9.455 -1.0601  0.6715 -1.4575
  162SOPE   H8S18152   4.727   6.974   9.514  2.0285  0.4537  0.5571
  162SOPE   C2918153   4.621   7.155   9.488  0.1045 -0.4499 -0.2878
  162SOPE   H9118154   4.548   7.152   9.571  0.2735 -0.2670 -0.1304
  162SOPE  C21018155   4.602   7.246   9.396 -0.4070  0.2468  0.3522
  162SOPE  H10118156   4.512   7.308   9.390  0.0271  0.8832  0.3905
  162SOPE  C21118157   4.697   7.274   9.284  0.1237 -0.0555  0.2144
  162SOPE  H11R18158   4.746   7.178   9.257  3.5361  1.4716  0.4357
  162SOPE  H11S18159   4.781   7.336   9.323  1.0676 -1.0704 -0.1553
  162SOPE  C21218160   4.634   7.350   9.155 -0.0315  0.3632  0.3838
  162SOPE  H12R18161   4.595   7.453   9.167 -0.6547  0.4015 -1.5357
  162SOPE  H12S18162   4.543   7.292   9.128  0.0916 -0.3824  1.5008
  162SOPE  C21318163   4.732   7.369   9.043  0.2619  0.3496 -0.0343
  162SOPE  H13R18164   4.791   7.277   9.026  0.9830  0.9142 -0.6432
  162SOPE  H13S18165   4.810   7.443   9.072  1.2542 -0.8655  0.4526
  162SOPE  C21418166   4.659   7.400   8.913 -0.5593 -0.3046 -0.3171
  162SOPE  H14R18167   4.606   7.497   8.921  0.5252  0.5566 -2.4846
  162SOPE  H14S18168   4.582   7.322   8.897 -1.4125  0.2293  1.0262
  162SOPE  C21518169   4.735   7.394   8.784 -0.4493 -0.4601  0.1067
  162SOPE  H15R18170   4.785   7.294   8.784  1.0495  0.2661  0.6356
  162SOPE  H15S18171   4.816   7.469   8.796 -1.3061  0.4775  0.1224
  162SOPE  C21618172   4.643   7.405   8.659  0.2032  0.5845  0.1509
  162SOPE  H16R18173   4.567   7.324   8.664  1.2605 -0.5914 -1.6555
  162SOPE  H16S18174   4.702   7.379   8.568  0.3538 -0.8453  0.6304
  162SOPE  C21718175   4.571   7.539   8.633 -0.0417 -0.8283  0.2050
  162SOPE  H17R18176   4.635   7.630   8.643 -3.7436  2.0813 -0.4848
  162SOPE  H17S18177   4.493   7.552   8.711 -0.0286 -0.1840  0.1156
  162SOPE  C21818178   4.492   7.543   8.498 -0.2272 -0.2104 -0.3345
  162SOPE  H18R18179   4.429   7.634   8.496  1.2446  0.8451  0.1400
  162SOPE  H18S18180   4.428   7.459   8.462  0.3833  0.2471 -2.6650
  162SOPE  H18T18181   4.566   7.560   8.417  0.5097  0.1060  0.3896
  162SOPE   C3318182   5.128   7.314  10.022 -0.6626  0.3735 -0.4237
  162SOPE   H3X18183   5.218   7.347  10.078 -0.6325  1.7696 -1.2355
  162SOPE   H3Y18184   5.129   7.363   9.922  0.1278  1.7905  0.2482
  162SOPE   C3418185   5.140   7.168   9.971  0.5670  0.1844 -0.3191
  162SOPE   H4X18186   5.051   7.139   9.910  0.1530 -1.4585  0.9748
  162SOPE   H4Y18187   5.152   7.107  10.064  2.0126 -0.5128 -0.9308
  162SOPE   C3518188   5.271   7.137   9.901  0.2710 -0.1766 -0.6323
  162SOPE   H5X18189   5.289   7.028   9.894  0.9981 -0.0190 -1.3752
  162SOPE   H5Y18190   5.358   7.182   9.952  0.1860 -0.1241 -0.5334
  162SOPE   C3618191   5.264   7.183   9.759  0.6018  0.1064  0.0860
  162SOPE   H6X18192   5.265   7.294   9.760 -1.5477  0.2214 -1.6010
  162SOPE   H6Y18193   5.166   7.144   9.724  0.9604 -2.4080  1.6293
  162SOPE   C3718194   5.382   7.130   9.672  0.4683 -0.2834  0.3551
  162SOPE   H7X18195   5.395   7.019   9.669  1.7630 -0.1333 -0.6586
  162SOPE   H7Y18196   5.481   7.171   9.703  0.6387 -1.3489  1.3203
  162SOPE   C3818197   5.362   7.172   9.526 -0.5218 -0.2312  0.4336
  162SOPE   H8X18198   5.373   7.281   9.504 -1.5307  0.2937  2.3052
  162SOPE   H8Y18199   5.265   7.129   9.495  0.8491 -0.9799 -3.3277
  162SOPE   C3918200   5.470   7.095   9.437  0.1847  0.4378 -1.0792
  162SOPE   H9X18201   5.482   6.991   9.475  2.1310  0.9177 -0.2467
  162SOPE   H9Y18202   5.569   7.146   9.444 -0.1063  0.9118 -0.2946
  162SOPE  C31018203   5.410   7.087   9.293  0.0308  0.1774 -0.2872
  162SOPE  H10X18204   5.425   7.193   9.261 -1.3069  0.6193  0.4641
  162SOPE  H10Y18205   5.301   7.066   9.289 -0.3226  2.0993 -2.3846
  162SOPE  C31118206   5.492   6.976   9.218 -0.2099  0.3305 -0.0117
  162SOPE  H11X18207   5.446   6.880   9.247  0.0565  0.4620  0.8756
  162SOPE  H11Y18208   5.597   6.973   9.253  0.5052 -0.0725 -2.0352
  162SOPE  C31218209   5.459   6.993   9.066 -0.4710  0.2495  0.5210
  162SOPE  H12X18210   5.354   7.030   9.059 -0.3699  1.4434  3.8301
  162SOPE  H12Y18211   5.456   6.894   9.016 -1.1419 -0.0401  1.1191
  162SOPE  C31318212   5.552   7.100   9.001  0.1803  0.1479 -1.2082
  162SOPE  H13X18213   5.655   7.058   9.004 -0.2666 -0.9350  0.7316
  162SOPE  H13Y18214   5.547   7.193   9.062 -0.0898 -0.1168 -0.8226
  162SOPE  C31418215   5.521   7.138   8.859  0.1984  0.6259 -0.5966
  162SOPE  H14X18216   5.599   7.203   8.814  0.7986  1.6848  1.8209
  162SOPE  H14Y18217   5.436   7.210   8.862  1.5227  2.2364 -0.2521
  162SOPE  C31518218   5.476   7.022   8.763 -0.0313 -0.1193 -0.8141
  162SOPE  H15X18219   5.384   6.978   8.808  0.5023 -0.4076  0.0114
  162SOPE  H15Y18220   5.559   6.949   8.761 -0.5262 -0.9442  2.4534
  162SOPE  C31618221   5.442   7.079   8.623  0.6551  0.5700 -0.2689
  162SOPE  H16X18222   5.397   6.995   8.567  1.0763  0.2978 -0.2092
  162SOPE  H16Y18223   5.538   7.107   8.574  1.3246  0.6285  1.0069
  162SOPE  C31718224   5.334   7.194   8.617 -0.6656  0.2869  0.4308
  162SOPE  H17X18225   5.359   7.282   8.680  2.1268 -0.1627  0.0462
  162SOPE  H17Y18226   5.244   7.138   8.651 -1.7013  3.2134  3.0450
  162SOPE  C31818227   5.317   7.238   8.474  0.9344 -0.7884 -0.0712
  162SOPE  H18X18228   5.295   7.152   8.407  1.6617 -0.4414 -0.7768
  162SOPE  H18Y18229   5.401   7.297   8.432  2.7234 -0.6936  3.2713
  162SOPE  H18Z18230   5.237   7.315   8.467  1.7793 -0.0369 -1.8741
  163SOPE     N18231   0.563   3.275  10.353  0.2267 -0.0467 -0.5154
  163SOPE   HN118232   0.500   3.228  10.286 -0.6933 -1.0479  0.9893
  163SOPE   HN218233   0.583   3.216  10.437 -0.4747 -1.8607 -1.5703
  163SOPE   HN318234   0.518   3.357  10.399  2.8023  0.1631  1.8948
  163SOPE   C1218235   0.684   3.321  10.288 -0.4587  0.5790 -0.1539
  163SOPE  H12A18236   0.738   3.390  10.356  1.8880  1.1172 -2.4355
  163SOPE  H12B18237   0.662   3.366  10.189 -0.7175 -0.7024 -0.6969
  163SOPE   C1118238   0.787   3.205  10.277 -0.4049  0.2495  0.3303
  163SOPE  H11A18239   0.866   3.245  10.210 -1.3878  1.8751  0.0698
  163SOPE  H11B18240   0.749   3.117  10.222 -0.5579  0.5640 -0.0782
  163SOPE     P18241   0.967   3.215  10.477 -0.2488 -0.0052  0.1156
  163SOPE   O1318242   0.993   3.119  10.586  0.3363 -0.5630 -0.0625
  163SOPE   O1418243   0.955   3.360  10.509 -0.4157  0.3796  0.2407
  163SOPE   O1218244   0.833   3.171  10.416  0.3489 -0.2884 -0.0094
  163SOPE   O1118245   1.085   3.195  10.374  0.7620  0.0944  0.5395
  163SOPE    C118246   1.143   3.307  10.308 -0.2566 -0.3682 -0.7614
  163SOPE    HA18247   1.138   3.398  10.371  0.2127 -0.1353 -1.0560
  163SOPE    HB18248   1.097   3.328  10.208  1.7814  1.8311 -1.3383
  163SOPE    C218249   1.290   3.283  10.256 -0.5845 -0.1400  0.1437
  163SOPE    HS18250   1.311   3.376  10.200  0.3940 -0.1547  0.4781
  163SOPE   O2118251   1.291   3.161  10.178 -0.3822 -0.6635  0.1163
  163SOPE   C2118252   1.252   3.183  10.057 -0.0700 -0.1270  0.1500
  163SOPE   O2218253   1.246   3.287   9.994  0.5438  0.6909 -0.4182
  163SOPE   C2218254   1.234   3.037  10.004 -0.3570  0.1977 -0.1722
  163SOPE   H2R18255   1.189   2.971  10.081  0.2621 -0.5231 -0.4157
  163SOPE   H2S18256   1.338   2.998   9.995 -0.1946  0.1213  1.5842
  163SOPE    C318257   1.383   3.252  10.376 -0.1873 -0.1535  0.2023
  163SOPE    HX18258   1.352   3.153  10.416 -2.0807 -0.1585 -1.1389
  163SOPE    HY18259   1.361   3.331  10.451  1.9463  0.4639  0.2258
  163SOPE   O3118260   1.517   3.263  10.338 -0.7611  0.4968  0.3922
  163SOPE   C3118261   1.583   3.150  10.340  0.0137  0.6155 -0.2541
  163SOPE   O3218262   1.539   3.043  10.376  0.7442 -0.6755  0.1477
  163SOPE   C3218263   1.723   3.155  10.281 -0.4472 -0.8219 -0.6554
  163SOPE   H2X18264   1.781   3.068  10.317  0.3664 -0.7787 -1.7803
  163SOPE   H2Y18265   1.769   3.243  10.330 -0.4401  0.3412 -2.6303
  163SOPE   C2318266   1.153   3.035   9.875  0.6230 -0.0427  0.1786
  163SOPE   H3R18267   1.080   3.119   9.874 -0.0955 -0.6040 -2.3263
  163SOPE   H3S18268   1.085   2.947   9.877  0.3345  0.1522 -0.6475
  163SOPE   C2418269   1.233   3.035   9.738  0.2441 -0.0839 -0.4571
  163SOPE   H4R18270   1.297   3.126   9.737 -1.7877  1.4375 -1.5201
  163SOPE   H4S18271   1.295   2.943   9.736 -2.9957 -2.6275  3.1272
  163SOPE   C2518272   1.128   3.037   9.619 -0.0039 -0.2101  0.0288
  163SOPE   H5R18273   1.077   2.938   9.622  0.0739 -0.5229 -3.9231
  163SOPE   H5S18274   1.058   3.122   9.637  2.0790  1.1298  2.4368
  163SOPE   C2618275   1.205   3.052   9.483  0.3456 -0.5172 -0.6680
  163SOPE   H6R18276   1.270   3.142   9.488 -0.0555 -0.2902  0.9069
  163SOPE   H6S18277   1.283   2.973   9.481  0.9328 -0.0195  0.7030
  163SOPE   C2718278   1.107   3.055   9.362  0.0486 -1.1165 -0.5096
  163SOPE   H7R18279   1.048   2.961   9.361 -0.0603 -1.0500 -2.0658
  163SOPE   H7S18280   1.036   3.141   9.365  0.9948 -0.1998 -2.4954
  163SOPE   C2818281   1.170   3.067   9.219 -0.1204 -0.2789 -0.6705
  163SOPE   H8R18282   1.213   3.169   9.215  0.4787 -0.5216 -0.4900
  163SOPE   H8S18283   1.244   2.987   9.201 -1.5682 -1.2454 -2.6596
  163SOPE   C2918284   1.062   3.058   9.111 -0.3277  0.0463 -0.9940
  163SOPE   H9118285   0.988   2.981   9.137 -0.0089  0.1756  0.3676
  163SOPE  C21018286   1.024   3.156   9.023  0.1490 -0.1040 -0.3910
  163SOPE  H10118287   0.931   3.142   8.965 -0.9713 -1.2575  1.5700
  163SOPE  C21118288   1.097   3.283   9.011 -0.2039  0.0217  0.2251
  163SOPE  H11R18289   1.206   3.270   8.994 -0.1494  0.1841  0.4453
  163SOPE  H11S18290   1.081   3.343   9.103  1.1209  0.8882 -0.0823
  163SOPE  C21218291   1.038   3.378   8.910  0.3497 -0.3617 -0.5656
  163SOPE  H12R18292   1.092   3.473   8.930 -1.0054  0.4885 -0.7535
  163SOPE  H12S18293   0.932   3.403   8.931  1.5849  4.2092  1.5165
  163SOPE  C21318294   1.028   3.356   8.755 -0.5583  0.1029 -0.1645
  163SOPE  H13R18295   0.971   3.261   8.747 -1.7511  0.9641 -3.0139
  163SOPE  H13S18296   1.133   3.333   8.727 -0.0635  0.2117  1.5039
  163SOPE  C21418297   0.981   3.476   8.669 -0.6381 -0.9823  0.8686
  163SOPE  H14R18298   0.876   3.501   8.697 -1.3222 -2.7308  0.0787
  163SOPE  H14S18299   0.981   3.452   8.560 -1.5438 -1.3643  0.9434
  163SOPE  C21518300   1.068   3.590   8.688 -0.6390 -0.9356  0.7158
  163SOPE  H15R18301   1.039   3.653   8.775  1.7660  0.9910  0.2553
  163SOPE  H15S18302   1.048   3.665   8.609  1.0040  0.8921  1.9478
  163SOPE  C21618303   1.222   3.570   8.673 -0.5764 -0.2181 -0.7132
  163SOPE  H16R18304   1.245   3.510   8.583 -1.0353 -2.5614  0.6401
  163SOPE  H16S18305   1.258   3.510   8.760  0.5417 -1.0984 -1.7429
  163SOPE  C21718306   1.309   3.698   8.681 -0.0509 -0.0907 -0.4930
  163SOPE  H17R18307   1.294   3.757   8.588 -0.6208 -0.8102 -0.8609
  163SOPE  H17S18308   1.411   3.656   8.671 -0.0571 -0.0424 -0.7650
  163SOPE  C21818309   1.311   3.778   8.808  0.3757 -0.5009  0.3220
  163SOPE  H18R18310   1.395   3.851   8.803  0.6645 -0.7363  1.4245
  163SOPE  H18S18311   1.312   3.720   8.903 -1.0753 -2.3498 -0.7194
  163SOPE  H18T18312   1.216   3.833   8.818  0.9518  0.4484  0.7109
  163SOPE   C3318313   1.707   3.188  10.126  1.1800  0.2301 -0.1151
  163SOPE   H3X18314   1.811   3.217  10.100  0.3702  2.4280 -1.1071
  163SOPE   H3Y18315   1.647   3.281  10.120  0.6850 -0.0610  0.3092
  163SOPE   C3418316   1.652   3.066  10.042  0.3621 -0.2790 -0.8002
  163SOPE   H4X18317   1.556   3.031  10.085  0.6080  1.4062  1.2517
  163SOPE   H4Y18318   1.716   2.976  10.036  0.9294  0.0820 -0.3000
  163SOPE   C3518319   1.616   3.115   9.901 -0.1381  0.1105 -0.1017
  163SOPE   H5X18320   1.702   3.175   9.866  0.9788 -2.4201 -1.9945
  163SOPE   H5Y18321   1.526   3.180   9.896 -1.4054 -1.3805  1.6661
  163SOPE   C3618322   1.604   2.994   9.811  0.1816  0.3173  0.1505
  163SOPE   H6X18323   1.517   2.928   9.831 -1.7434  2.0950 -1.7856
  163SOPE   H6Y18324   1.695   2.933   9.829  0.5935  1.2004  1.1594
  163SOPE   C3718325   1.604   3.036   9.666 -0.1060 -0.1313 -0.1942
  163SOPE   H7X18326   1.687   3.107   9.647 -0.6986  0.7600  0.4398
  163SOPE   H7Y18327   1.507   3.087   9.648  0.6278  0.5379 -2.6567
  163SOPE   C3818328   1.601   2.924   9.564 -0.3723  0.3882 -0.2456
  163SOPE   H8X18329   1.507   2.867   9.583 -0.3993  1.3300  3.0854
  163SOPE   H8Y18330   1.691   2.859   9.571 -0.8976 -1.0507 -4.2320
  163SOPE   C3918331   1.597   2.970   9.420  0.2136  0.2731 -1.1385
  163SOPE   H9X18332   1.501   3.018   9.390 -0.0884 -0.8040 -2.0178
  163SOPE   H9Y18333   1.608   2.878   9.358 -1.9197  0.1537 -1.4259
  163SOPE  C31018334   1.715   3.064   9.374 -0.0053  0.4606 -0.0586
  163SOPE  H10X18335   1.813   3.011   9.383 -0.1461  0.4346  1.6719
  163SOPE  H10Y18336   1.732   3.151   9.441  0.3395  0.5823 -0.3010
  163SOPE  C31118337   1.684   3.115   9.231  0.1912 -0.0410 -0.1463
  163SOPE  H11X18338   1.764   3.182   9.194 -2.2621  2.1383 -1.8851
  163SOPE  H11Y18339   1.590   3.175   9.232  0.0815 -0.1875 -1.2329
  163SOPE  C31218340   1.684   2.995   9.132 -0.8478 -0.8783 -0.0081
  163SOPE  H12X18341   1.635   2.907   9.178 -0.2830 -2.4190 -2.1587
  163SOPE  H12Y18342   1.791   2.980   9.105 -0.6858  0.3111 -0.0907
  163SOPE  C31318343   1.605   3.023   9.009  0.6167 -0.4102  0.4410
  163SOPE  H13X18344   1.651   3.102   8.946 -0.8289  0.3040  0.2149
  163SOPE  H13Y18345   1.505   3.061   9.041  0.3096 -1.5744  0.9167
  163SOPE  C31418346   1.579   2.908   8.913  0.1198  0.7354 -0.2618
  163SOPE  H14X18347   1.509   2.843   8.970 -0.3987 -1.6532 -3.3770
  163SOPE  H14Y18348   1.673   2.851   8.899 -0.1405  0.1164  0.4475
  163SOPE  C31518349   1.512   2.945   8.780 -0.0203  0.8850  0.0603
  163SOPE  H15X18350   1.584   2.986   8.706  0.6552 -1.1159 -0.4460
  163SOPE  H15Y18351   1.430   3.017   8.803 -3.0089 -1.6030 -1.8845
  163SOPE  C31618352   1.446   2.815   8.714  0.2861  0.4248 -0.8771
  163SOPE  H16X18353   1.529   2.742   8.717 -1.0675 -1.2122 -1.3400
  163SOPE  H16Y18354   1.419   2.845   8.611 -0.5281  0.1762 -0.7496
  163SOPE  C31718355   1.326   2.750   8.790  0.7733  0.1638 -0.1497
  163SOPE  H17X18356   1.356   2.731   8.895  1.3024 -1.0769 -0.5058
  163SOPE  H17Y18357   1.305   2.648   8.753 -1.3089  1.1703 -1.9517
  163SOPE  C31818358   1.208   2.841   8.787  1.1272  0.1008 -0.4136
  163SOPE  H18X18359   1.180   2.872   8.684  0.0395 -2.4413 -0.9609
  163SOPE  H18Y18360   1.209   2.930   8.853 -0.3305  0.2751 -0.5957
  163SOPE  H18Z18361   1.122   2.778   8.817  0.0133  0.3582 -2.8114
  164SOPE     N18362   3.447   6.800  10.964  0.0250  0.1935  0.5017
  164SOPE   HN118363   3.548   6.813  10.941 -0.0247 -0.3645 -0.0379
  164SOPE   HN218364   3.390   6.813  10.878  0.2376  0.1191  0.3489
  164SOPE   HN318365   3.431   6.884  11.024  3.0688  2.0568 -1.0078
  164SOPE   C1218366   3.434   6.671  11.032 -0.4981  0.4069  0.1158
  164SOPE  H12A18367   3.331   6.664  11.073 -0.5327  0.8649  0.1108
  164SOPE  H12B18368   3.506   6.662  11.117 -0.3545 -0.2272 -0.0711
  164SOPE   C1118369   3.459   6.561  10.931 -0.4843 -0.3261  0.6265
  164SOPE  H11A18370   3.397   6.577  10.840  1.1968  1.7119 -0.2397
  164SOPE  H11B18371   3.414   6.471  10.979  1.7740 -1.2375  1.1516
  164SOPE     P18372   3.649   6.467  10.777 -0.3092  0.2716 -0.1004
  164SOPE   O1318373   3.566   6.344  10.765 -0.0099 -0.1296  0.0724
  164SOPE   O1418374   3.794   6.436  10.790  0.4352 -0.6902  0.4189
  164SOPE   O1218375   3.597   6.542  10.903 -0.9447 -0.2426  0.0185
  164SOPE   O1118376   3.614   6.577  10.661 -0.0059  0.0116  0.2968
  164SOPE    C118377   3.509   6.546  10.569  0.1648  0.4088  0.4370
  164SOPE    HA18378   3.408   6.577  10.604 -0.5723 -0.8433 -0.5021
  164SOPE    HB18379   3.504   6.438  10.545  0.0058  0.4987  0.0590
  164SOPE    C218380   3.535   6.630  10.445  0.4678 -0.1123  0.7644
  164SOPE    HS18381   3.535   6.738  10.472 -2.0435 -0.3993  2.2320
  164SOPE   O2118382   3.438   6.602  10.341 -0.7596  0.3156  0.6992
  164SOPE   C2118383   3.322   6.666  10.341  0.1944  0.1395  0.1701
  164SOPE   O2218384   3.289   6.761  10.415 -0.3203  0.0593 -0.0439
  164SOPE   C2218385   3.225   6.602  10.243 -0.0220 -0.2276 -0.0206
  164SOPE   H2R18386   3.168   6.521  10.291 -2.8063  1.3960 -0.3873
  164SOPE   H2S18387   3.281   6.552  10.160 -0.9231  1.7453 -1.9365
  164SOPE    C318388   3.677   6.605  10.385  0.2027  0.2793 -0.4855
  164SOPE    HX18389   3.683   6.495  10.371 -0.7056  0.0358  0.8020
  164SOPE    HY18390   3.756   6.637  10.457  0.1688 -0.6984  0.0105
  164SOPE   O3118391   3.691   6.670  10.259  0.2693 -0.0376 -0.3028
  164SOPE   C3118392   3.822   6.671  10.214 -1.0047  0.1538  0.1371
  164SOPE   O3218393   3.912   6.611  10.269 -0.3078 -0.2487  0.2708
  164SOPE   C3218394   3.841   6.756  10.090 -0.8002 -0.4644  0.2768
  164SOPE   H2X18395   3.944   6.798  10.087 -0.2604 -1.5805  1.8411
  164SOPE   H2Y18396   3.757   6.828  10.102  0.1800  0.2601  4.2818
  164SOPE   C2318397   3.143   6.713  10.175 -0.1736  0.2421  0.7080
  164SOPE   H3R18398   3.154   6.813  10.222 -0.6553  0.6873 -0.1029
  164SOPE   H3S18399   3.041   6.668  10.181 -0.2436  0.2281 -0.4116
  164SOPE   C2418400   3.172   6.735  10.025  0.5914  0.5248 -0.9069
  164SOPE   H4R18401   3.278   6.769  10.028  1.0665 -0.9116 -0.8872
  164SOPE   H4S18402   3.151   6.644   9.964  1.6918 -0.1188 -0.3544
  164SOPE   C2518403   3.084   6.840   9.950  0.4024 -0.5418  0.1203
  164SOPE   H5R18404   2.978   6.808   9.947  0.4352 -0.5849 -0.6647
  164SOPE   H5S18405   3.085   6.932  10.013 -1.0083 -0.7312  0.4472
  164SOPE   C2618406   3.119   6.848   9.800 -0.6119 -0.4347 -0.5928
  164SOPE   H6R18407   3.223   6.887   9.795 -2.0179  3.9252 -0.5201
  164SOPE   H6S18408   3.126   6.751   9.747  0.6721 -0.4622 -0.4058
  164SOPE   C2718409   3.032   6.949   9.722  0.4491 -0.7930  0.3486
  164SOPE   H7R18410   2.928   6.911   9.707  0.3424  0.0730 -1.2095
  164SOPE   H7S18411   3.025   7.045   9.777 -0.2917  0.7005 -2.2076
  164SOPE   C2818412   3.100   6.996   9.582  0.0856  0.5432 -0.5576
  164SOPE   H8R18413   3.019   7.063   9.545  0.7720  1.2946 -0.7276
  164SOPE   H8S18414   3.199   7.046   9.589  0.1222  0.6556 -1.6675
  164SOPE   C2918415   3.128   6.864   9.504  0.9622  0.4372  0.3679
  164SOPE   H9118416   3.127   6.769   9.558  1.2016 -0.0018 -0.3791
  164SOPE  C21018417   3.171   6.858   9.376 -0.0354  0.1568 -0.5971
  164SOPE  H10118418   3.182   6.764   9.321  2.1259  0.3365 -0.5436
  164SOPE  C21118419   3.206   6.981   9.293 -0.0188  0.0324  0.4007
  164SOPE  H11R18420   3.140   7.066   9.319 -1.7242 -1.3133  0.6538
  164SOPE  H11S18421   3.181   6.956   9.187 -2.0919 -0.6029  0.9845
  164SOPE  C21218422   3.353   7.024   9.298  0.2515 -0.6603  0.5224
  164SOPE  H12R18423   3.423   6.938   9.303  1.5765  0.4437  1.6144
  164SOPE  H12S18424   3.358   7.080   9.394 -1.1428 -2.7464  1.9072
  164SOPE  C21318425   3.386   7.118   9.189  0.3383 -0.2487  0.0648
  164SOPE  H13R18426   3.369   7.060   9.096  0.3201 -2.4077  1.3501
  164SOPE  H13S18427   3.495   7.136   9.182  0.4950 -0.8357  0.8632
  164SOPE  C21418428   3.319   7.256   9.187  0.6610 -0.5049  0.3215
  164SOPE  H14R18429   3.208   7.260   9.181  0.7260  0.6807 -0.3834
  164SOPE  H14S18430   3.351   7.304   9.092 -0.2213 -1.5295 -0.5339
  164SOPE  C21518431   3.367   7.343   9.301 -0.1068  0.1018 -0.0377
  164SOPE  H15R18432   3.473   7.375   9.296 -0.5692  1.6459 -0.3836
  164SOPE  H15S18433   3.363   7.290   9.399 -1.1320  0.8324  0.3363
  164SOPE  C21618434   3.288   7.472   9.322  0.1344  0.8782 -0.4549
  164SOPE  H16R18435   3.183   7.451   9.352  0.1981  1.9603  0.5960
  164SOPE  H16S18436   3.288   7.524   9.224  0.5020 -0.8991 -1.4451
  164SOPE  C21718437   3.350   7.554   9.441  0.2380  0.0584 -0.3004
  164SOPE  H17R18438   3.458   7.558   9.415  0.8059  1.9673  2.0311
  164SOPE  H17S18439   3.349   7.496   9.536 -0.3460  0.6524  0.0656
  164SOPE  C21818440   3.297   7.690   9.478 -0.2022  0.1152 -0.1816
  164SOPE  H18R18441   3.187   7.688   9.496 -0.2589 -0.9053 -0.6299
  164SOPE  H18S18442   3.325   7.763   9.398  0.7769 -0.7376 -0.6416
  164SOPE  H18T18443   3.348   7.723   9.572 -0.7703  0.1344  0.1233
  164SOPE   C3318444   3.848   6.669   9.963 -0.0228  0.1952  1.1716
  164SOPE   H3X18445   3.745   6.642   9.932  0.1200  0.6104  0.3172
  164SOPE   H3Y18446   3.907   6.577   9.987 -1.7887 -1.4023 -0.3430
  164SOPE   C3418447   3.918   6.743   9.842  0.5970  0.0287 -0.6045
  164SOPE   H4X18448   4.013   6.791   9.876  2.5557 -3.9683  0.2263
  164SOPE   H4Y18449   3.849   6.821   9.805  0.4892 -0.5842 -1.7335
  164SOPE   C3518450   3.948   6.657   9.729  0.4536  0.3700 -0.0662
  164SOPE   H5X18451   3.846   6.624   9.701 -0.2675 -0.3028  2.9816
  164SOPE   H5Y18452   4.002   6.567   9.767  1.2801  1.1350  0.6292
  164SOPE   C3618453   4.022   6.726   9.617  0.0665 -0.7912 -0.3481
  164SOPE   H6X18454   4.121   6.750   9.661  1.2885 -1.6230 -2.5011
  164SOPE   H6Y18455   3.969   6.812   9.571  1.2747 -1.0595 -2.3297
  164SOPE   C3718456   4.052   6.638   9.494 -0.6211 -0.4952 -0.0633
  164SOPE   H7X18457   4.087   6.543   9.540 -0.7024  0.0103  1.0760
  164SOPE   H7Y18458   4.132   6.673   9.426 -0.0271 -2.4971 -0.4599
  164SOPE   C3818459   3.926   6.611   9.401  0.5950  0.9323  0.7323
  164SOPE   H8X18460   3.893   6.704   9.351 -1.0732 -0.1756 -0.3124
  164SOPE   H8Y18461   3.841   6.572   9.461  2.4820 -3.5651  0.8882
  164SOPE   C3918462   3.964   6.515   9.285 -0.4819 -0.6927  0.7312
  164SOPE   H9X18463   3.966   6.408   9.316  1.6578 -2.2225 -3.7578
  164SOPE   H9Y18464   4.072   6.542   9.277 -0.8333  0.2406 -1.4696
  164SOPE  C31018465   3.880   6.516   9.158  0.4286  0.3841 -0.0108
  164SOPE  H10X18466   3.774   6.522   9.190  0.8973 -0.6821  1.9022
  164SOPE  H10Y18467   3.891   6.412   9.119  2.1302 -0.2192  1.8914
  164SOPE  C31118468   3.926   6.602   9.044  0.2706 -1.0700 -0.3434
  164SOPE  H11X18469   3.917   6.708   9.075 -0.0003 -0.9738 -0.7500
  164SOPE  H11Y18470   3.853   6.576   8.965 -1.5513 -0.5744  1.0995
  164SOPE  C31218471   4.073   6.578   8.992  0.7761  0.7342 -0.4182
  164SOPE  H12X18472   4.097   6.470   8.995 -2.1243  0.0032  2.3186
  164SOPE  H12Y18473   4.142   6.629   9.063  1.5330 -1.2692  0.3615
  164SOPE  C31318474   4.097   6.649   8.858  0.0006 -0.3444  0.0657
  164SOPE  H13X18475   4.041   6.611   8.770  1.0392 -1.5799 -0.0887
  164SOPE  H13Y18476   4.203   6.643   8.826  0.2877  1.9555  0.3915
  164SOPE  C31418477   4.091   6.800   8.871 -0.1799  0.0794 -0.7179
  164SOPE  H14X18478   4.144   6.828   8.965 -0.7453 -1.0439 -0.0362
  164SOPE  H14Y18479   3.988   6.836   8.893 -0.1545  0.7817 -1.6942
  164SOPE  C31518480   4.141   6.869   8.737  0.0046 -0.1692 -0.1546
  164SOPE  H15X18481   4.063   6.856   8.658  0.9001  1.8238 -1.4660
  164SOPE  H15Y18482   4.238   6.836   8.694  1.4202  1.8808  1.2851
  164SOPE  C31618483   4.162   7.023   8.768  0.2904 -0.3246 -0.1732
  164SOPE  H16X18484   4.243   7.041   8.842  0.4475 -1.3415 -0.0865
  164SOPE  H16Y18485   4.069   7.066   8.811  0.8418  0.8591 -0.1299
  164SOPE  C31718486   4.187   7.101   8.641 -0.3753 -0.2785 -0.3442
  164SOPE  H17X18487   4.108   7.066   8.571  2.3121  0.8054 -4.1923
  164SOPE  H17Y18488   4.284   7.062   8.603 -0.4293 -0.2753 -0.4850
  164SOPE  C31818489   4.206   7.251   8.644  0.2865  0.1924 -0.2159
  164SOPE  H18X18490   4.118   7.287   8.703  1.1349 -1.3602  2.1597
  164SOPE  H18Y18491   4.210   7.288   8.540 -0.2650 -0.0816 -0.3386
  164SOPE  H18Z18492   4.303   7.280   8.689 -0.7426 -1.3421  3.3391
  165SOPE     N18493   0.317   2.541  10.462 -0.7015 -0.0536  0.8428
  165SOPE   HN118494   0.400   2.480  10.479 -1.3614 -1.2352  0.0037
  165SOPE   HN218495   0.314   2.612  10.537 -1.8638 -0.1405  0.8990
  165SOPE   HN318496   0.234   2.478  10.471 -0.0221 -0.9310  1.1453
  165SOPE   C1218497   0.341   2.591  10.325 -0.5697  0.1749 -0.0591
  165SOPE  H12A18498   0.265   2.669  10.305 -0.5254  0.2729  0.1464
  165SOPE  H12B18499   0.338   2.498  10.266 -0.0989 -1.6598  2.6169
  165SOPE   C1118500   0.484   2.661  10.306 -0.1718  0.0784 -0.1550
  165SOPE  H11A18501   0.506   2.654  10.197  1.2960 -2.1501  0.2249
  165SOPE  H11B18502   0.559   2.598  10.359 -0.9677 -1.6071 -0.9459
  165SOPE     P18503   0.481   2.846  10.490  0.4026 -0.1696  0.3445
  165SOPE   O1318504   0.376   2.781  10.576 -0.8248  0.0262  0.0674
  165SOPE   O1418505   0.473   2.991  10.500  0.3856  0.6228  0.2405
  165SOPE   O1218506   0.462   2.798  10.343 -0.5373 -0.2761 -0.2176
  165SOPE   O1118507   0.619   2.795  10.543  0.6804  0.3922  0.2105
  165SOPE    C118508   0.742   2.866  10.535  0.2873 -0.5810 -0.0163
  165SOPE    HA18509   0.788   2.861  10.636 -0.3894 -1.5770  0.2610
  165SOPE    HB18510   0.715   2.971  10.515 -1.8596 -0.6750  1.9870
  165SOPE    C218511   0.834   2.824  10.420 -0.8066 -0.5415  0.2851
  165SOPE    HS18512   0.918   2.897  10.424 -0.8610 -0.4658  0.0444
  165SOPE   O2118513   0.766   2.834  10.294 -0.1711  0.1284 -0.0530
  165SOPE   C2118514   0.839   2.842  10.188  0.0538  0.7494  0.9102
  165SOPE   O2218515   0.956   2.877  10.174  0.1878 -0.0693 -0.0152
  165SOPE   C2218516   0.741   2.815  10.071  0.4351  0.2352  0.2093
  165SOPE   H2R18517   0.648   2.876  10.076 -2.0495 -3.1505 -0.3415
  165SOPE   H2S18518   0.705   2.711  10.087 -1.2588  0.9180  1.1430
  165SOPE    C318519   0.892   2.687  10.447 -0.5351 -0.5530  0.0617
  165SOPE    HX18520   0.819   2.615  10.405  0.3971 -1.0753 -0.6928
  165SOPE    HY18521   0.889   2.681  10.558 -0.0543 -0.3815  0.0905
  165SOPE   O3118522   1.032   2.682  10.402  0.3861  0.2674  0.4185
  165SOPE   C3118523   1.044   2.588  10.306  0.3784 -0.5309 -0.2529
  165SOPE   O3218524   0.945   2.535  10.251 -0.6734 -0.1288 -0.1632
  165SOPE   C3218525   1.183   2.582  10.265 -0.0153  0.2688 -0.3245
  165SOPE   H2X18526   1.247   2.531  10.339  0.5311 -1.9621 -2.2268
  165SOPE   H2Y18527   1.227   2.682  10.247 -1.1289  0.9783  0.7194
  165SOPE   C2318528   0.812   2.831   9.933 -0.2306 -0.6380 -0.6695
  165SOPE   H3R18529   0.891   2.755   9.918 -0.0669 -0.8432  0.9718
  165SOPE   H3S18530   0.864   2.928   9.922 -0.2233 -0.8202 -2.4793
  165SOPE   C2418531   0.717   2.825   9.820  0.7537 -0.1557  0.3995
  165SOPE   H4R18532   0.650   2.736   9.830 -0.0981  0.6403  2.2993
  165SOPE   H4S18533   0.657   2.918   9.833 -0.7158 -0.9309 -0.5353
  165SOPE   C2518534   0.787   2.827   9.692  0.2142  0.4458  0.2193
  165SOPE   H5R18535   0.855   2.914   9.687  0.0190  0.6913  1.4867
  165SOPE   H5S18536   0.850   2.736   9.695 -2.5521 -1.6349 -0.2266
  165SOPE   C2618537   0.698   2.826   9.571 -0.0421  0.2401  0.5717
  165SOPE   H6R18538   0.640   2.732   9.559  0.3809 -0.1901  1.7888
  165SOPE   H6S18539   0.620   2.905   9.581 -0.9849 -0.7463  1.2170
  165SOPE   C2718540   0.775   2.850   9.440  0.1249  0.0781 -0.3202
  165SOPE   H7R18541   0.834   2.942   9.458 -0.5624  0.3235  0.7917
  165SOPE   H7S18542   0.842   2.763   9.424  0.0931 -0.2359  1.1463
  165SOPE   C2818543   0.687   2.864   9.312  0.2379 -0.7720  0.2742
  165SOPE   H8R18544   0.604   2.926   9.351  1.7338  0.0056  2.4463
  165SOPE   H8S18545   0.739   2.933   9.242 -1.6400  1.1117  0.6375
  165SOPE   C2918546   0.617   2.747   9.245  0.0143 -0.4254 -0.9438
  165SOPE   H9118547   0.548   2.690   9.308  1.2215  1.0970  1.9328
  165SOPE  C21018548   0.644   2.687   9.129 -0.0316 -0.0585  0.5539
  165SOPE  H10118549   0.593   2.598   9.089 -0.0118  0.4173 -0.5787
  165SOPE  C21118550   0.755   2.739   9.042 -0.5199  0.7859 -0.5112
  165SOPE  H11R18551   0.812   2.657   8.994  0.0528 -0.6450  2.4182
  165SOPE  H11S18552   0.837   2.790   9.096  0.3154 -0.6041 -0.4478
  165SOPE  C21218553   0.698   2.818   8.931  0.3742  0.4291  0.1471
  165SOPE  H12R18554   0.645   2.911   8.958 -2.1195 -0.5424 -1.0887
  165SOPE  H12S18555   0.619   2.756   8.883  1.5766 -1.0351 -0.0178
  165SOPE  C21318556   0.809   2.847   8.825  0.7177  0.6487 -0.8180
  165SOPE  H13R18557   0.853   2.752   8.788 -1.4901 -1.4018  1.4885
  165SOPE  H13S18558   0.895   2.905   8.864  0.7696  0.7039 -1.0093
  165SOPE  C21418559   0.764   2.921   8.707 -0.5198 -0.2158  0.2079
  165SOPE  H14R18560   0.681   2.984   8.747 -1.1117 -1.2587  0.6824
  165SOPE  H14S18561   0.720   2.840   8.644  1.5054 -2.1237  1.1288
  165SOPE  C21518562   0.873   2.984   8.631  0.5435 -0.1596 -0.0635
  165SOPE  H15R18563   0.956   2.912   8.614 -0.6759 -1.2477 -1.6662
  165SOPE  H15S18564   0.904   3.076   8.686  0.1444 -0.0897  0.0425
  165SOPE  C21618565   0.836   3.019   8.487  0.3748  0.3862  0.1944
  165SOPE  H16R18566   0.783   3.114   8.507  0.2242 -0.2703  3.4753
  165SOPE  H16S18567   0.756   2.952   8.450  1.6920 -0.9787 -0.2962
  165SOPE  C21718568   0.953   3.036   8.389 -0.2854 -0.0020  0.7050
  165SOPE  H17R18569   0.912   3.058   8.288  2.1300  3.7701  0.3674
  165SOPE  H17S18570   1.017   2.945   8.376  0.1373  0.3710  0.1096
  165SOPE  C21818571   1.047   3.155   8.418  0.0320  0.5658 -0.6295
  165SOPE  H18R18572   1.007   3.242   8.361  1.8307  1.0133 -1.2793
  165SOPE  H18S18573   1.155   3.145   8.392  0.3402  1.1953  0.3311
  165SOPE  H18T18574   1.040   3.174   8.527 -1.5944 -1.2541 -0.3661
  165SOPE   C3318575   1.218   2.498  10.137 -0.1047 -0.2479 -0.0615
  165SOPE   H3X18576   1.174   2.396  10.135 -2.1127  0.5604  0.5865
  165SOPE   H3Y18577   1.328   2.485  10.140 -0.0951 -0.5120 -1.1651
  165SOPE   C3418578   1.182   2.578  10.011 -1.1856  0.6435  0.0884
  165SOPE   H4X18579   1.235   2.675  10.009 -0.9152  0.4861 -0.3252
  165SOPE   H4Y18580   1.074   2.599   9.996 -0.9891  0.9238 -1.0279
  165SOPE   C3518581   1.226   2.507   9.881 -0.1021 -0.1059  0.2111
  165SOPE   H5X18582   1.186   2.404   9.869  2.6466 -1.3051  0.7598
  165SOPE   H5Y18583   1.337   2.506   9.878 -0.0137  2.6977  0.3245
  165SOPE   C3618584   1.176   2.595   9.770 -0.3677  0.6381  0.4067
  165SOPE   H6X18585   1.243   2.683   9.765 -0.2400  0.5108 -0.1705
  165SOPE   H6Y18586   1.068   2.618   9.785 -0.1161  1.0714  1.6949
  165SOPE   C3718587   1.196   2.533   9.628 -0.4595  0.4093 -0.2251
  165SOPE   H7X18588   1.152   2.431   9.623 -1.2821  0.4379  3.5752
  165SOPE   H7Y18589   1.302   2.511   9.605 -0.4583 -2.3124  1.9379
  165SOPE   C3818590   1.153   2.628   9.512  0.2532 -0.9796 -0.3830
  165SOPE   H8X18591   1.224   2.711   9.531  1.1344 -1.5953 -0.8418
  165SOPE   H8Y18592   1.047   2.656   9.525  0.0628 -0.5795 -2.4525
  165SOPE   C3918593   1.170   2.559   9.376 -0.0315  0.5861 -0.9106
  165SOPE   H9X18594   1.091   2.481   9.372 -1.3959  1.8929 -0.1024
  165SOPE   H9Y18595   1.278   2.532   9.389 -0.1532 -0.2923 -1.5945
  165SOPE  C31018596   1.153   2.663   9.265 -0.5836 -0.4035 -0.1510
  165SOPE  H10X18597   1.221   2.747   9.289 -2.3010  0.7089  0.9705
  165SOPE  H10Y18598   1.047   2.698   9.267 -0.7004 -0.7428  2.7372
  165SOPE  C31118599   1.181   2.622   9.119  0.2614 -0.2988  0.6454
  165SOPE  H11X18600   1.282   2.580   9.100 -0.0916 -0.3923 -1.1726
  165SOPE  H11Y18601   1.178   2.713   9.056  3.5195 -1.0070 -0.7459
  165SOPE  C31218602   1.083   2.521   9.076 -0.0368  0.4093 -0.2558
  165SOPE  H12X18603   0.979   2.540   9.108  0.0252 -0.0197  0.2116
  165SOPE  H12Y18604   1.105   2.423   9.123  0.4115  0.4345 -0.4072
  165SOPE  C31318605   1.091   2.510   8.925 -0.5557  0.2332 -0.5962
  165SOPE  H13X18606   1.198   2.527   8.902 -0.3509  1.1041  0.8805
  165SOPE  H13Y18607   1.042   2.602   8.888  0.4453  0.9412 -0.1920
  165SOPE  C31418608   1.044   2.379   8.863 -0.0966  0.2220  0.0392
  165SOPE  H14X18609   0.948   2.347   8.911 -0.6855  2.2784  0.3183
  165SOPE  H14Y18610   1.118   2.298   8.879  1.2628  1.8946  3.0803
  165SOPE  C31518611   1.006   2.387   8.714 -0.1533 -0.5783 -0.0132
  165SOPE  H15X18612   0.981   2.283   8.686 -1.4190 -0.5822  1.0371
  165SOPE  H15Y18613   1.094   2.414   8.651 -0.7680 -3.0794 -2.1443
  165SOPE  C31618614   0.892   2.477   8.671 -0.0426  0.3188  0.1277
  165SOPE  H16X18615   0.925   2.583   8.681 -0.2490  0.1765  3.2825
  165SOPE  H16Y18616   0.813   2.449   8.744  0.1904  0.2893  0.3702
  165SOPE  C31718617   0.830   2.457   8.530 -0.3093 -0.6694 -0.4913
  165SOPE  H17X18618   0.763   2.369   8.537  0.5207 -1.1802  2.6710
  165SOPE  H17Y18619   0.909   2.442   8.454  0.0687  4.2825 -1.3996
  165SOPE  C31818620   0.735   2.575   8.500 -1.1159  0.0423 -0.3349
  165SOPE  H18X18621   0.666   2.558   8.414 -0.2988  1.5602 -1.3533
  165SOPE  H18Y18622   0.803   2.658   8.470  1.9332 -1.7394  1.2480
  165SOPE  H18Z18623   0.685   2.602   8.596 -0.1527  1.4531 -0.2071
  166SOPE     N18624   5.780   2.141  10.958 -0.1201 -0.6316  0.0406
  166SOPE   HN118625   5.737   2.187  11.040  0.1139  0.1713 -0.2760
  166SOPE   HN218626   5.820   2.209  10.890  0.3454  0.3812  1.2810
  166SOPE   HN318627   5.701   2.094  10.910 -0.8102 -0.2657  0.8002
  166SOPE   C1218628   5.884   2.038  11.006  0.2400 -0.1311  0.4105
  166SOPE  H12A18629   5.825   1.948  11.032  0.3182 -1.0403 -2.2457
  166SOPE  H12B18630   5.953   2.086  11.078  1.1923  2.3803 -1.9996
  166SOPE   C1118631   5.980   1.981  10.894 -0.1261 -0.0253 -0.9348
  166SOPE  H11A18632   6.060   2.059  10.899 -0.1185  0.0150 -1.7025
  166SOPE  H11B18633   5.920   1.975  10.802  0.0469  1.0154 -1.1371
  166SOPE     P18634   5.974   1.722  10.936 -0.6583  0.1612  0.0836
  166SOPE   O1318635   5.832   1.728  10.917  0.7793 -0.2346 -0.6382
  166SOPE   O1418636   6.031   1.646  11.049 -0.0734  0.3436  0.4226
  166SOPE   O1218637   6.032   1.861  10.942  0.3296 -0.0778  0.3802
  166SOPE   O1118638   6.040   1.666  10.797  0.5809 -0.2735  0.0557
  166SOPE    C118639   6.004   1.717  10.674  0.4477 -0.1186  0.3255
  166SOPE    HA18640   6.077   1.794  10.640  1.4710 -1.3441 -0.3082
  166SOPE    HB18641   5.906   1.770  10.679  0.4026 -0.2336  0.6746
  166SOPE    C218642   5.996   1.609  10.562  0.8921  0.3575  0.4413
  166SOPE    HS18643   5.971   1.658  10.466  0.2095  0.4996  0.6836
  166SOPE   O2118644   5.889   1.521  10.606 -0.3291  0.3491 -0.1287
  166SOPE   C2118645   5.762   1.573  10.562 -0.2561  0.0014  0.6350
  166SOPE   O2218646   5.749   1.668  10.492  0.0613 -0.1683 -0.4759
  166SOPE   C2218647   5.652   1.476  10.597 -0.1922 -0.1461 -0.0594
  166SOPE   H2R18648   5.614   1.495  10.699 -3.0795  0.9908 -1.2607
  166SOPE   H2S18649   5.704   1.379  10.615 -0.1076 -0.1127 -0.1195
  166SOPE    C318650   6.128   1.527  10.554 -0.5806 -0.7120 -0.3554
  166SOPE    HX18651   6.126   1.472  10.651 -1.1737  1.7257  1.1192
  166SOPE    HY18652   6.212   1.599  10.544  0.3963 -2.0260 -2.1341
  166SOPE   O3118653   6.125   1.436  10.446 -0.5200  0.4637 -0.4523
  166SOPE   C3118654   6.202   1.467  10.345 -0.3248  0.0307  0.1946
  166SOPE   O3218655   6.274   1.565  10.331  0.4006 -0.3164 -0.0353
  166SOPE   C3218656   6.169   1.354  10.241  0.2908 -0.0717  0.5272
  166SOPE   H2X18657   6.093   1.285  10.283 -0.1495 -3.2768 -4.6373
  166SOPE   H2Y18658   6.253   1.281  10.239 -0.8656 -1.6951  3.6981
  166SOPE   C2318659   5.540   1.461  10.503  0.0202 -0.2066 -0.3008
  166SOPE   H3R18660   5.491   1.556  10.473  1.0424  0.1107 -1.0490
  166SOPE   H3S18661   5.461   1.400  10.553  0.3933 -0.1695  0.3421
  166SOPE   C2418662   5.583   1.398  10.371  0.3956 -0.1316 -0.0639
  166SOPE   H4R18663   5.634   1.300  10.386 -0.4941 -0.5386  0.3730
  166SOPE   H4S18664   5.484   1.370  10.330 -0.5031  1.0535  1.2273
  166SOPE   C2518665   5.656   1.487  10.276 -0.3615  0.1382  0.0660
  166SOPE   H5R18666   5.642   1.595  10.297 -0.0358  0.4357 -1.2161
  166SOPE   H5S18667   5.764   1.470  10.296  0.1528  1.4620 -1.4729
  166SOPE   C2618668   5.634   1.445  10.132 -0.1747  0.1479 -0.5699
  166SOPE   H6R18669   5.618   1.335  10.133  0.3973  0.0176  1.7778
  166SOPE   H6S18670   5.536   1.479  10.091 -0.5281 -1.5698 -1.2085
  166SOPE   C2718671   5.733   1.495  10.022 -0.5592 -0.3831 -0.0759
  166SOPE   H7R18672   5.751   1.601  10.050 -2.0381 -0.0144 -0.4462
  166SOPE   H7S18673   5.823   1.430  10.016 -0.7291 -0.5488 -0.8600
  166SOPE   C2818674   5.673   1.512   9.887 -0.7231  0.0582  0.4542
  166SOPE   H8R18675   5.576   1.566   9.889 -0.8986 -0.2797  1.4090
  166SOPE   H8S18676   5.734   1.573   9.817 -1.4158 -0.8134 -0.9726
  166SOPE   C2918677   5.640   1.377   9.829 -0.4032  0.2094  0.7941
  166SOPE   H9118678   5.574   1.313   9.889 -0.6547 -0.2727  0.0177
  166SOPE  C21018679   5.691   1.321   9.717  0.3860 -0.9686  0.2665
  166SOPE  H10118680   5.626   1.241   9.681 -1.5731 -0.1287  1.7592
  166SOPE  C21118681   5.785   1.385   9.614  0.6798  0.0899  0.3864
  166SOPE  H11R18682   5.886   1.342   9.626  1.2980  1.9227  2.2623
  166SOPE  H11S18683   5.784   1.496   9.614  0.0612  0.1160 -1.1334
  166SOPE  C21218684   5.749   1.351   9.465 -0.3274 -0.6233  0.0627
  166SOPE  H12R18685   5.815   1.415   9.403  0.7191 -2.4522 -0.7617
  166SOPE  H12S18686   5.644   1.379   9.441  0.4173  1.7819 -0.6947
  166SOPE  C21318687   5.773   1.199   9.430 -0.0039 -0.2666 -0.3743
  166SOPE  H13R18688   5.693   1.143   9.484 -0.5282  0.3250 -0.5135
  166SOPE  H13S18689   5.871   1.162   9.465 -0.9880 -1.4093  1.3551
  166SOPE  C21418690   5.757   1.168   9.280 -0.3029  0.0767 -0.0338
  166SOPE  H14R18691   5.793   1.064   9.266 -2.8131 -0.7270 -1.0075
  166SOPE  H14S18692   5.839   1.224   9.230  0.1396 -0.3972  0.1557
  166SOPE  C21518693   5.613   1.168   9.230  0.1880 -0.1548  0.2112
  166SOPE  H15R18694   5.570   1.270   9.222 -0.0221 -0.1292  1.5252
  166SOPE  H15S18695   5.541   1.118   9.298 -2.2169 -0.1705 -2.1648
  166SOPE  C21618696   5.604   1.098   9.092  0.1519  0.3695  0.2732
  166SOPE  H16R18697   5.499   1.114   9.061  0.0626 -0.5642  0.0755
  166SOPE  H16S18698   5.620   0.988   9.101  1.5360  0.4608 -0.7517
  166SOPE  C21718699   5.694   1.149   8.971  0.2438 -0.7726  0.0171
  166SOPE  H17R18700   5.687   1.080   8.884 -1.2342 -2.7676  1.6101
  166SOPE  H17S18701   5.801   1.135   8.997  0.4117 -0.6392 -0.5945
  166SOPE  C21818702   5.671   1.294   8.937  0.2494  0.5579 -0.3260
  166SOPE  H18R18703   5.587   1.339   8.880  0.1622  1.7580  0.6857
  166SOPE  H18S18704   5.757   1.340   8.884 -0.3839  0.8026 -1.1483
  166SOPE  H18T18705   5.656   1.348   9.034 -1.8701  1.3502 -1.0278
  166SOPE   C3318706   6.117   1.408  10.108 -0.5902 -0.3697  0.3707
  166SOPE   H3X18707   6.032   1.479  10.114  0.4055  1.0888 -1.3062
  166SOPE   H3Y18708   6.094   1.320  10.045 -1.6173  0.9025 -1.1352
  166SOPE   C3418709   6.233   1.489  10.037  0.7627 -0.0312 -0.0990
  166SOPE   H4X18710   6.330   1.443  10.067 -0.3174 -1.1412  1.8742
  166SOPE   H4Y18711   6.223   1.595  10.069 -0.3349 -0.5820  1.5351
  166SOPE   C3518712   6.223   1.460   9.890 -0.2185 -0.1583  0.5251
  166SOPE   H5X18713   6.119   1.452   9.854 -0.6566  3.1590  0.7509
  166SOPE   H5Y18714   6.255   1.354   9.885 -1.7190 -0.5758 -1.5548
  166SOPE   C3618715   6.325   1.527   9.796  0.4214 -0.5149 -0.1386
  166SOPE   H6X18716   6.424   1.538   9.845 -0.2023 -1.6311  1.4667
  166SOPE   H6Y18717   6.300   1.631   9.767  1.0788  0.0022  1.0915
  166SOPE   C3718718   6.357   1.447   9.668 -0.4659 -0.0457 -0.6134
  166SOPE   H7X18719   6.403   1.351   9.698 -2.1439 -0.2031  1.7081
  166SOPE   H7Y18720   6.424   1.514   9.610  0.4021 -0.2772  0.1025
  166SOPE   C3818721   6.231   1.423   9.581 -0.1840 -0.4047 -0.7013
  166SOPE   H8X18722   6.185   1.519   9.549 -1.6572 -1.1416 -0.8521
  166SOPE   H8Y18723   6.155   1.363   9.635  0.3837  0.8338  1.6055
  166SOPE   C3918724   6.274   1.339   9.455 -0.2175 -0.3476 -0.9494
  166SOPE   H9X18725   6.288   1.231   9.480 -2.0076 -0.9432 -2.2886
  166SOPE   H9Y18726   6.373   1.375   9.422  1.1558 -2.3212  0.7323
  166SOPE  C31018727   6.179   1.340   9.339  0.9347  0.0230 -0.2822
  166SOPE  H10X18728   6.175   1.444   9.300 -0.1802  1.1868  2.6723
  166SOPE  H10Y18729   6.075   1.312   9.368  0.4010  1.5885 -0.5986
  166SOPE  C31118730   6.210   1.240   9.228 -0.4140  0.2652 -0.1495
  166SOPE  H11X18731   6.221   1.135   9.264  1.7480  0.5502  0.1499
  166SOPE  H11Y18732   6.313   1.260   9.191  0.1182 -0.1782  1.0354
  166SOPE  C31218733   6.118   1.250   9.106  0.0447  0.2051  0.2040
  166SOPE  H12X18734   6.107   1.359   9.086  1.8947  0.4153  0.1899
  166SOPE  H12Y18735   6.017   1.212   9.132 -0.1345 -0.5215 -1.3997
  166SOPE  C31318736   6.180   1.170   8.991  0.0770 -0.1631 -0.6522
  166SOPE  H13X18737   6.199   1.071   9.037 -0.2857 -0.2907 -0.7741
  166SOPE  H13Y18738   6.285   1.202   8.972 -0.0117 -0.3372 -1.4820
  166SOPE  C31418739   6.098   1.168   8.863 -0.1676  0.4758  0.2384
  166SOPE  H14X18740   6.090   1.277   8.841  0.9851  0.5342  0.0013
  166SOPE  H14Y18741   5.998   1.126   8.886  0.8028 -2.1204  0.0189
  166SOPE  C31518742   6.152   1.081   8.742 -0.1090  0.1192  0.1903
  166SOPE  H15X18743   6.173   0.979   8.780 -0.0268  0.0942  0.0763
  166SOPE  H15Y18744   6.244   1.122   8.697  0.0891  0.1954  0.6549
  166SOPE  C31618745   6.046   1.073   8.624 -0.0479  0.0342  0.2860
  166SOPE  H16X18746   6.025   1.175   8.587  0.1035  0.2993  0.9268
  166SOPE  H16Y18747   5.956   1.027   8.671 -1.4171  0.8531 -1.4143
  166SOPE  C31718748   6.080   0.989   8.501 -0.0768  0.0065  0.6366
  166SOPE  H17X18749   6.136   0.893   8.514  0.2539 -0.0091 -0.7866
  166SOPE  H17Y18750   6.157   1.049   8.447  1.5317 -1.4821  1.1564
  166SOPE  C31818751   5.955   0.967   8.415 -0.3237  0.7826 -0.4823
  166SOPE  H18X18752   5.917   1.070   8.398  2.5355  2.5085  2.4869
  166SOPE  H18Y18753   5.889   0.906   8.479  1.4017  0.5904  1.1855
  166SOPE  H18Z18754   5.973   0.919   8.317  0.4014 -2.6917  1.2152
  167SOPE     N18755   4.768   4.273   5.962 -0.4424  0.0920 -0.0272
  167SOPE   HN118756   4.674   4.240   5.933  0.3425 -2.5197  0.0878
  167SOPE   HN218757   4.835   4.230   5.895 -0.4082 -0.9175  0.6152
  167SOPE   HN318758   4.776   4.230   6.057  0.5235 -0.1114 -0.1835
  167SOPE   C1218759   4.777   4.421   5.959 -0.9325  0.6043  0.0505
  167SOPE  H12A18760   4.729   4.467   5.870  1.4556  2.5012 -0.3661
  167SOPE  H12B18761   4.883   4.447   5.941 -1.2932  2.0217 -0.1076
  167SOPE   C1118762   4.732   4.489   6.090  0.5040 -0.8344  0.1207
  167SOPE  H11A18763   4.622   4.478   6.091  0.1018  2.1926 -0.8816
  167SOPE  H11B18764   4.746   4.600   6.091  1.0348 -0.9015  0.4906
  167SOPE     P18765   4.935   4.474   6.242  0.5858  0.0758 -0.5990
  167SOPE   O1318766   4.968   4.603   6.182  0.3308  0.2273 -0.6874
  167SOPE   O1418767   5.023   4.365   6.198 -0.1754  0.5446  0.4802
  167SOPE   O1218768   4.785   4.433   6.216 -0.5795 -0.1448  0.1150
  167SOPE   O1118769   4.952   4.485   6.398  0.4049 -1.0758 -0.1204
  167SOPE    C118770   4.861   4.560   6.478  0.2806  0.1543  0.2112
  167SOPE    HA18771   4.757   4.555   6.439  0.3508  3.8199 -0.8885
  167SOPE    HB18772   4.875   4.670   6.467  2.2433 -0.2252 -2.0477
  167SOPE    C218773   4.867   4.515   6.626  0.5607 -0.0950  0.0472
  167SOPE    HS18774   4.788   4.564   6.687 -0.3029 -2.0000  0.5085
  167SOPE   O2118775   4.998   4.535   6.684 -0.0960 -0.2195 -0.4112
  167SOPE   C2118776   5.017   4.664   6.715  0.2983 -0.1990  0.3694
  167SOPE   O2218777   4.934   4.755   6.713 -0.3069  0.0689  0.1902
  167SOPE   C2218778   5.162   4.682   6.756 -0.6839 -0.2230  0.2627
  167SOPE   H2R18779   5.181   4.788   6.783  0.7138 -1.1999  3.7549
  167SOPE   H2S18780   5.228   4.651   6.673 -0.2588  2.4537 -0.4943
  167SOPE    C318781   4.840   4.357   6.647 -0.3081 -0.1762 -0.1809
  167SOPE    HX18782   4.923   4.313   6.588  1.7499  4.1741 -0.9641
  167SOPE    HY18783   4.754   4.324   6.585  0.6921  1.9124 -2.8930
  167SOPE   O3118784   4.825   4.321   6.791 -0.2339  0.5303  0.1888
  167SOPE   C3118785   4.940   4.276   6.835  0.0571  0.3196 -0.0276
  167SOPE   O3218786   5.049   4.278   6.776 -0.5343  0.0414 -0.5585
  167SOPE   C3218787   4.910   4.199   6.963 -0.5713 -0.2837  0.4748
  167SOPE   H2X18788   4.827   4.128   6.943  0.8824 -1.1373 -3.3859
  167SOPE   H2Y18789   4.874   4.276   7.035  0.0896  0.5968 -0.1181
  167SOPE   C2318790   5.196   4.615   6.896 -0.0995  0.2061 -0.1977
  167SOPE   H3R18791   5.174   4.506   6.882  0.4696  0.1162 -0.3863
  167SOPE   H3S18792   5.118   4.651   6.967  1.5445 -0.0935  1.8484
  167SOPE   C2418793   5.338   4.629   6.948  0.4020  0.0102  0.7565
  167SOPE   H4R18794   5.420   4.590   6.883 -0.3961 -1.7491  0.7373
  167SOPE   H4S18795   5.358   4.737   6.964 -0.8264  0.4412 -0.5149
  167SOPE   C2518796   5.348   4.567   7.091 -0.1567 -0.0514 -0.3815
  167SOPE   H5R18797   5.277   4.611   7.163 -1.0502  0.0214 -1.2842
  167SOPE   H5S18798   5.323   4.459   7.083  2.6137 -0.6952 -1.5609
  167SOPE   C2618799   5.488   4.569   7.159 -0.1314 -0.1167 -0.2456
  167SOPE   H6R18800   5.565   4.530   7.089  1.0216  1.1828  0.2444
  167SOPE   H6S18801   5.524   4.670   7.189  1.7690 -0.6772 -0.4955
  167SOPE   C2718802   5.499   4.482   7.286 -0.3219  0.7865 -0.2071
  167SOPE   H7R18803   5.414   4.508   7.353 -0.4246 -0.7828  0.2920
  167SOPE   H7S18804   5.494   4.373   7.267  0.0022  0.5866  0.7596
  167SOPE   C2818805   5.629   4.491   7.362  0.3805  0.1139 -0.2442
  167SOPE   H8R18806   5.727   4.457   7.323  1.0944 -0.5669  1.9946
  167SOPE   H8S18807   5.654   4.597   7.384 -2.4347  0.9475 -0.6656
  167SOPE   C2918808   5.612   4.412   7.490  0.4652  0.2974  0.0226
  167SOPE   H9118809   5.633   4.304   7.486  0.2862  0.2522  0.2813
  167SOPE  C21018810   5.566   4.465   7.603  0.1562 -0.7879  0.1594
  167SOPE  H10118811   5.568   4.396   7.689 -0.0475 -1.1760 -0.1413
  167SOPE  C21118812   5.532   4.608   7.635 -0.5631 -1.0750  0.6632
  167SOPE  H11R18813   5.421   4.615   7.631 -0.7014 -0.1526  3.5371
  167SOPE  H11S18814   5.577   4.688   7.573 -2.1492  1.3711  2.4442
  167SOPE  C21218815   5.579   4.640   7.774  0.7607 -0.1479  0.4470
  167SOPE  H12R18816   5.687   4.612   7.775  1.0566  0.8181 -1.0406
  167SOPE  H12S18817   5.526   4.574   7.845  0.4462  1.1241  1.4305
  167SOPE  C21318818   5.580   4.784   7.825 -0.1332 -0.5807 -0.5303
  167SOPE  H13R18819   5.477   4.826   7.818  0.0784 -0.3135 -2.8136
  167SOPE  H13S18820   5.636   4.854   7.760 -2.2851  0.7147 -1.0969
  167SOPE  C21418821   5.614   4.786   7.971 -0.5390 -0.0314 -0.5433
  167SOPE  H14R18822   5.716   4.743   7.978 -0.9242 -1.0101 -0.7263
  167SOPE  H14S18823   5.556   4.707   8.023 -0.8771  0.8919  0.5188
  167SOPE  C21518824   5.592   4.916   8.050 -0.0107 -0.2296 -0.3218
  167SOPE  H15R18825   5.483   4.938   8.062  0.1126 -0.5913  2.0456
  167SOPE  H15S18826   5.635   4.995   7.984  0.1529 -0.2913 -0.2888
  167SOPE  C21618827   5.641   4.919   8.199  0.3690 -0.4197 -0.0020
  167SOPE  H16R18828   5.732   4.859   8.217 -0.2606 -0.6021  3.0273
  167SOPE  H16S18829   5.555   4.864   8.242 -0.9240  1.9326  0.6003
  167SOPE  C21718830   5.640   5.059   8.272 -0.7686 -0.8596 -0.4536
  167SOPE  H17R18831   5.727   5.112   8.229  0.1052 -0.7402  1.4029
  167SOPE  H17S18832   5.658   5.040   8.380  2.8000 -1.9146 -1.1262
  167SOPE  C21818833   5.512   5.144   8.247 -0.8095  0.4742  0.5194
  167SOPE  H18R18834   5.519   5.167   8.138  1.0821 -0.9208  0.2862
  167SOPE  H18S18835   5.506   5.240   8.302 -0.6248  1.2800 -0.8285
  167SOPE  H18T18836   5.418   5.089   8.268 -0.1586 -0.2143  1.7443
  167SOPE   C3318837   5.035   4.123   7.021  0.1396  0.5383 -0.6008
  167SOPE   H3X18838   5.122   4.192   7.020  1.2394 -0.7163  1.3953
  167SOPE   H3Y18839   5.063   4.027   6.973 -1.1646 -0.3077  0.2687
  167SOPE   C3418840   4.998   4.095   7.171  0.3653 -0.4693  0.5113
  167SOPE   H4X18841   4.980   4.191   7.223  0.9965 -0.7826  1.3304
  167SOPE   H4Y18842   5.084   4.044   7.220  1.4438 -0.5525 -1.3489
  167SOPE   C3518843   4.869   4.004   7.185  0.1060 -0.2167 -0.5033
  167SOPE   H5X18844   4.864   3.925   7.108 -3.4765 -1.4533  0.7703
  167SOPE   H5Y18845   4.786   4.072   7.157  0.9680  0.6781 -0.9674
  167SOPE   C3618846   4.847   3.949   7.327 -0.1986  0.4853  0.0594
  167SOPE   H6X18847   4.852   4.039   7.392  0.3748  0.2726  0.3115
  167SOPE   H6Y18848   4.935   3.887   7.354  0.7772  1.2964 -1.1946
  167SOPE   C3718849   4.723   3.859   7.333 -0.2426  0.2964 -0.4419
  167SOPE   H7X18850   4.723   3.770   7.268 -0.2462 -0.7468  0.9316
  167SOPE   H7Y18851   4.632   3.920   7.316 -1.3198 -1.2377 -0.3656
  167SOPE   C3818852   4.702   3.798   7.472 -0.3903  0.6341 -0.4392
  167SOPE   H8X18853   4.685   3.873   7.552 -0.8698 -0.6477  0.6931
  167SOPE   H8Y18854   4.796   3.743   7.492 -0.4532  0.5672 -0.3311
  167SOPE   C3918855   4.586   3.701   7.483  0.4402  0.2682 -0.1824
  167SOPE   H9X18856   4.608   3.621   7.410  0.1055  0.1983 -0.2084
  167SOPE   H9Y18857   4.483   3.739   7.464 -0.3367 -1.2360  0.8859
  167SOPE  C31018858   4.585   3.629   7.617  0.2839 -0.1714  0.2158
  167SOPE  H10X18859   4.531   3.704   7.679  1.1445  1.6290 -1.1479
  167SOPE  H10Y18860   4.687   3.615   7.659 -0.5939 -0.6681  2.3527
  167SOPE  C31118861   4.518   3.495   7.634 -0.2395  0.1193  0.2162
  167SOPE  H11X18862   4.576   3.415   7.583 -0.3092  0.5429 -0.5530
  167SOPE  H11Y18863   4.414   3.489   7.594 -0.6336  2.1836  0.8096
  167SOPE  C31218864   4.512   3.454   7.780 -0.1896 -0.7788  0.1536
  167SOPE  H12X18865   4.455   3.530   7.837  1.4403  0.5730  0.0402
  167SOPE  H12Y18866   4.612   3.446   7.829 -0.2439  0.2521  0.4577
  167SOPE  C31318867   4.440   3.319   7.794 -0.5516  0.5590 -0.2451
  167SOPE  H13X18868   4.336   3.323   7.754 -0.8018 -0.4294  0.2811
  167SOPE  H13Y18869   4.413   3.287   7.896 -0.5488 -1.2912 -0.7912
  167SOPE  C31418870   4.510   3.196   7.728 -0.1720  0.0376 -0.5522
  167SOPE  H14X18871   4.618   3.197   7.753 -0.3349 -2.1016  0.4916
  167SOPE  H14Y18872   4.493   3.187   7.619 -2.5417 -0.8676 -0.1743
  167SOPE  C31518873   4.471   3.056   7.786 -0.2174 -0.5394 -0.4325
  167SOPE  H15X18874   4.450   2.996   7.695  0.5994 -2.9693  0.8838
  167SOPE  H15Y18875   4.378   3.077   7.843 -1.9311 -0.7663 -2.9565
  167SOPE  C31618876   4.573   2.969   7.867 -0.2542  0.7848 -0.4292
  167SOPE  H16X18877   4.597   3.042   7.947  1.6315 -0.0785 -0.1460
  167SOPE  H16Y18878   4.659   2.951   7.798 -0.9800  0.8304 -1.3542
  167SOPE  C31718879   4.524   2.832   7.924  0.1680 -0.2140  0.6295
  167SOPE  H17X18880   4.493   2.768   7.838 -0.4670 -3.2314  2.9250
  167SOPE  H17Y18881   4.430   2.846   7.981  0.6838 -0.1343  1.4825
  167SOPE  C31818882   4.619   2.740   8.004  0.0692  0.7671  0.3954
  167SOPE  H18X18883   4.569   2.647   8.039  0.4296  0.5696  0.3840
  167SOPE  H18Y18884   4.636   2.800   8.096 -1.1980  3.6214 -1.0691
  167SOPE  H18Z18885   4.713   2.712   7.952  0.3452  1.0636  0.7317
  168SOPE     N18886   4.452   0.326   6.417 -0.3070  0.0199 -0.0867
  168SOPE   HN118887   4.377   0.258   6.395  0.4981 -1.3028  1.1410
  168SOPE   HN218888   4.546   0.282   6.414 -1.0089 -1.4742 -1.2738
  168SOPE   HN318889   4.434   0.354   6.515  0.8309  2.1189 -0.4104
  168SOPE   C1218890   4.457   0.453   6.338 -0.6011  0.6276 -0.1578
  168SOPE  H12A18891   4.359   0.500   6.359 -1.6271 -0.2480 -2.6432
  168SOPE  H12B18892   4.461   0.426   6.230  0.7958 -1.4506  0.3559
  168SOPE   C1118893   4.581   0.539   6.367 -0.2936  0.7280  0.9320
  168SOPE  H11A18894   4.561   0.598   6.458 -0.0477  0.8567  0.9047
  168SOPE  H11B18895   4.591   0.610   6.282 -0.4952 -1.2911 -0.8778
  168SOPE     P18896   4.822   0.498   6.457  0.2149 -0.0548  0.1290
  168SOPE   O1318897   4.846   0.640   6.451 -0.7143  0.3307 -0.2972
  168SOPE   O1418898   4.931   0.411   6.414 -1.2996 -0.5108 -0.1218
  168SOPE   O1218899   4.697   0.459   6.369 -0.0573 -0.5179  0.1377
  168SOPE   O1118900   4.779   0.461   6.609  0.5061  0.5524  0.3619
  168SOPE    C118901   4.802   0.327   6.656 -0.0107 -0.1296 -0.1466
  168SOPE    HA18902   4.891   0.270   6.621 -0.3020 -0.0231 -1.1105
  168SOPE    HB18903   4.719   0.262   6.624 -1.2486  2.2881 -2.2104
  168SOPE    C218904   4.804   0.339   6.811 -0.0167 -0.0166 -0.3488
  168SOPE    HS18905   4.904   0.386   6.815 -0.4513  1.2106 -2.2795
  168SOPE   O2118906   4.793   0.209   6.867 -0.2646 -0.4101 -0.1725
  168SOPE   C2118907   4.872   0.188   6.975  0.4789  0.5113 -0.5269
  168SOPE   O2218908   4.960   0.263   7.011 -1.0101 -0.9918  0.0410
  168SOPE   C2218909   4.810   0.063   7.046  0.0416 -0.2507 -1.4223
  168SOPE   H2R18910   4.779  -0.014   6.972 -1.9783  0.4929 -1.3873
  168SOPE   H2S18911   4.714   0.091   7.094 -1.3616 -2.0264 -3.0599
  168SOPE    C318912   4.686   0.421   6.861  0.3155 -0.6860 -0.0281
  168SOPE    HX18913   4.599   0.353   6.852 -0.2690 -0.2498  1.7753
  168SOPE    HY18914   4.665   0.507   6.795 -0.0933 -2.0161 -1.6900
  168SOPE   O3118915   4.698   0.459   7.002 -0.7078 -0.0254 -0.1968
  168SOPE   C3118916   4.766   0.568   7.024 -0.2537  0.3063  0.1510
  168SOPE   O3218917   4.828   0.635   6.941 -0.3099  0.0708  0.0798
  168SOPE   C3218918   4.746   0.600   7.173 -0.2093  0.2218  0.2868
  168SOPE   H2X18919   4.643   0.640   7.182 -0.6558 -0.8394  0.0920
  168SOPE   H2Y18920   4.811   0.687   7.192  0.5045 -0.5796  1.7553
  168SOPE   C2318921   4.912   0.011   7.151  0.1820 -0.0928 -0.2231
  168SOPE   H3R18922   5.021   0.020   7.130  0.0961  0.6571 -0.3970
  168SOPE   H3S18923   4.885  -0.093   7.177  0.5122  0.1504  1.1922
  168SOPE   C2418924   4.872   0.085   7.287 -0.3510  0.2154  0.9750
  168SOPE   H4R18925   4.866   0.194   7.265 -0.5493 -0.0204 -0.2328
  168SOPE   H4S18926   4.775   0.058   7.332 -1.2887  1.0334 -0.4789
  168SOPE   C2518927   4.977   0.076   7.389 -0.4980 -0.7240  0.0207
  168SOPE   H5R18928   4.999  -0.031   7.409  0.4576 -0.7568 -1.1715
  168SOPE   H5S18929   5.073   0.107   7.344 -1.6693  0.6401 -1.6777
  168SOPE   C2618930   4.942   0.154   7.514  0.0263 -0.1630  0.0689
  168SOPE   H6R18931   4.933   0.260   7.485 -2.3343 -0.5977 -0.9714
  168SOPE   H6S18932   4.850   0.120   7.566  0.5030 -0.0849  0.9991
  168SOPE   C2718933   5.065   0.131   7.606  0.0888 -0.3145 -0.8276
  168SOPE   H7R18934   5.149   0.144   7.534  0.7734 -1.0051 -0.1711
  168SOPE   H7S18935   5.065   0.220   7.673  1.4362 -1.4668  0.8088
  168SOPE   C2818936   5.059  -0.008   7.682  0.2716 -0.2067  0.1354
  168SOPE   H8R18937   4.963  -0.006   7.737 -0.0513  2.9183 -0.3627
  168SOPE   H8S18938   5.063  -0.095   7.614  0.4965 -0.1467  0.0701
  168SOPE   C2918939   5.173  -0.020   7.774 -0.1504 -0.3687  0.4486
  168SOPE   H9118940   5.270  -0.020   7.722 -0.6025  0.3880 -0.4038
  168SOPE  C21018941   5.178  -0.034   7.905  0.5685 -0.7507 -0.1753
  168SOPE  H10118942   5.275  -0.040   7.956  0.2794  3.4767  1.2712
  168SOPE  C21118943   5.065  -0.040   8.003 -0.2343 -0.2033  0.1482
  168SOPE  H11R18944   5.094  -0.110   8.084 -0.1754 -2.4337 -1.6962
  168SOPE  H11S18945   4.973  -0.067   7.947 -1.2193 -1.3875  2.2043
  168SOPE  C21218946   5.038   0.095   8.073  0.9382  0.1155  0.1311
  168SOPE  H12R18947   4.988   0.154   7.994 -0.6123 -1.8180 -0.4158
  168SOPE  H12S18948   5.135   0.148   8.086  0.6844  0.8605 -0.9329
  168SOPE  C21318949   4.973   0.089   8.212  0.6710 -0.1725  0.2948
  168SOPE  H13R18950   5.052   0.099   8.289 -0.1838 -1.3020  1.3570
  168SOPE  H13S18951   4.933  -0.014   8.224  3.2516 -1.5202 -1.6596
  168SOPE  C21418952   4.881   0.217   8.229  0.1711 -0.4077  0.6235
  168SOPE  H14R18953   4.897   0.285   8.143 -1.9733  1.8030  1.8695
  168SOPE  H14S18954   4.899   0.265   8.328  0.2343  1.4228 -0.2384
  168SOPE  C21518955   4.726   0.170   8.223  0.3817 -0.0800  0.3840
  168SOPE  H15R18956   4.714   0.100   8.309 -2.4684  0.4376  0.5076
  168SOPE  H15S18957   4.703   0.121   8.126  0.6949 -0.7279  0.6261
  168SOPE  C21618958   4.637   0.295   8.238 -0.8708 -0.5952 -0.9054
  168SOPE  H16R18959   4.647   0.362   8.150 -1.5465  0.9532  0.1562
  168SOPE  H16S18960   4.677   0.346   8.328  0.8904  1.1813 -2.5994
  168SOPE  C21718961   4.487   0.254   8.244  0.0427 -0.1353 -0.4122
  168SOPE  H17R18962   4.481   0.174   8.321  0.3442  1.0208  0.8496
  168SOPE  H17S18963   4.436   0.218   8.152 -1.8309  0.0965  0.4825
  168SOPE  C21818964   4.397   0.363   8.297  0.4531  0.1836 -1.1017
  168SOPE  H18R18965   4.417   0.380   8.405  0.6039 -0.4599 -1.0201
  168SOPE  H18S18966   4.288   0.347   8.286  0.0860  1.9902 -0.4476
  168SOPE  H18T18967   4.418   0.459   8.246  0.0411  0.5021 -0.6825
  168SOPE   C3318968   4.775   0.477   7.269 -0.2524  0.1755  0.0915
  168SOPE   H3X18969   4.879   0.446   7.248  0.2252 -0.9214  3.4355
  168SOPE   H3Y18970   4.714   0.386   7.252  0.6454 -0.3125 -0.5244
  168SOPE   C3418971   4.778   0.520   7.410  0.0177 -0.5836 -0.0802
  168SOPE   H4X18972   4.737   0.450   7.485  1.1190 -0.4182  0.7173
  168SOPE   H4Y18973   4.718   0.614   7.418  1.2139  0.2183 -0.1758
  168SOPE   C3518974   4.920   0.553   7.471  0.6362  0.2660 -0.3891
  168SOPE   H5X18975   4.989   0.471   7.443  0.3343  1.3065 -4.8969
  168SOPE   H5Y18976   4.897   0.552   7.580  3.0255 -0.3909  0.1732
  168SOPE   C3618977   4.975   0.685   7.420  0.1804 -0.8854 -0.1357
  168SOPE   H6X18978   4.899   0.766   7.415  2.0717  1.1684  2.0568
  168SOPE   H6Y18979   5.010   0.667   7.316  0.7759  0.5113 -0.2028
  168SOPE   C3718980   5.092   0.737   7.504 -0.6076 -0.2948  0.1859
  168SOPE   H7X18981   5.049   0.778   7.598 -0.1259  1.6042 -0.3818
  168SOPE   H7Y18982   5.129   0.831   7.458  0.2548 -0.4945  0.4653
  168SOPE   C3818983   5.205   0.642   7.540  0.2261  0.5293 -0.0367
  168SOPE   H8X18984   5.234   0.596   7.444 -1.3015 -1.8860  0.5888
  168SOPE   H8Y18985   5.172   0.565   7.612  1.3499  0.3796  0.3374
  168SOPE   C3918986   5.323   0.709   7.617 -0.3579  0.1411  0.9535
  168SOPE   H9X18987   5.384   0.766   7.544 -1.0905 -1.2606 -0.8351
  168SOPE   H9Y18988   5.393   0.624   7.635 -0.9176 -0.8075 -1.0740
  168SOPE  C31018989   5.294   0.784   7.748  0.2857 -0.6417 -0.1865
  168SOPE  H10X18990   5.254   0.709   7.820  2.8764 -0.1299  1.9618
  168SOPE  H10Y18991   5.219   0.859   7.717  0.4274 -1.0486 -1.5941
  168SOPE  C31118992   5.413   0.850   7.818 -0.4753  0.3804 -0.4250
  168SOPE  H11X18993   5.460   0.922   7.748 -1.8194  0.8592 -0.8754
  168SOPE  H11Y18994   5.498   0.786   7.848  0.9925  2.0549 -0.9075
  168SOPE  C31218995   5.352   0.924   7.950 -0.7214 -0.0484  0.7152
  168SOPE  H12X18996   5.285   0.848   7.997 -0.3052 -0.3898  0.7658
  168SOPE  H12Y18997   5.293   1.013   7.920  0.4479  0.6098  0.3309
  168SOPE  C31318998   5.460   0.958   8.042  0.3207  0.0981 -0.4325
  168SOPE  H13X18999   5.547   1.005   7.992  1.4155 -1.3693  0.0148
  168SOPE  H13Y19000   5.502   0.863   8.083 -0.7916  0.2524  1.1874
  168SOPE  C31419001   5.410   1.045   8.155 -0.5025  0.2862 -0.3974
  168SOPE  H14X19002   5.306   1.012   8.177 -0.7515  0.3388 -1.4415
  168SOPE  H14Y19003   5.409   1.154   8.130  0.9225  0.7627  1.3614
  168SOPE  C31519004   5.484   1.043   8.291 -0.1988  0.2871  0.0806
  168SOPE  H15X19005   5.589   1.077   8.287 -0.9122  2.7184  0.7224
  168SOPE  H15Y19006   5.501   0.937   8.322  0.7588  0.4395  0.1017
  168SOPE  C31619007   5.415   1.114   8.410  0.2139  0.2080  0.7193
  168SOPE  H16X19008   5.310   1.079   8.424  0.0171 -0.7223 -2.3322
  168SOPE  H16Y19009   5.414   1.225   8.398  1.3342  0.2772  1.1953
  168SOPE  C31719010   5.496   1.070   8.540  0.0227  0.2347 -0.3655
  168SOPE  H17X19011   5.605   1.077   8.517  0.1096  1.1507  0.2594
  168SOPE  H17Y19012   5.483   0.964   8.570 -1.0440  0.3815 -0.2753
  168SOPE  C31819013   5.471   1.159   8.664 -0.3788 -0.1043  0.3196
  168SOPE  H18X19014   5.506   1.263   8.647  2.1939 -1.3111 -2.6766
  168SOPE  H18Y19015   5.529   1.116   8.749  0.3435  0.5094  0.1453
  168SOPE  H18Z19016   5.362   1.151   8.687 -0.3659  1.5562  1.1694
  169SOPE     N19017   6.136   5.154   6.057  0.3030  0.6670  0.1998
  169SOPE   HN119018   6.234   5.122   6.067  0.5054  1.0909 -0.3843
  169SOPE   HN219019   6.126   5.200   5.964  1.2631  2.1756  0.7962
  169SOPE   HN319020   6.115   5.227   6.128  0.1221  0.0747  0.7619
  169SOPE   C1219021   6.046   5.032   6.085 -0.2057  0.0835 -0.0291
  169SOPE  H12A19022   6.090   4.940   6.041 -1.1162 -0.8796  1.0163
  169SOPE  H12B19023   5.946   5.055   6.041 -0.2157  0.6507  0.2843
  169SOPE   C1119024   6.035   5.028   6.238  0.1865  0.2281 -0.0513
  169SOPE  H11A19025   5.978   4.935   6.261 -2.6426  1.9435  0.4054
  169SOPE  H11B19026   5.971   5.113   6.272 -0.8003  0.4411 -2.3005
  169SOPE     P19027   6.247   4.910   6.366  0.2855 -0.3386  0.3249
  169SOPE   O1319028   6.366   4.980   6.422 -0.4862  0.4985 -1.1346
  169SOPE   O1419029   6.267   4.799   6.273  0.0543  0.2462  0.1968
  169SOPE   O1219030   6.168   5.029   6.291  0.3874  0.5537 -0.0729
  169SOPE   O1119031   6.163   4.854   6.485  0.8212  0.4134 -0.5944
  169SOPE    C119032   6.125   4.935   6.599  0.0729  0.5567  0.6712
  169SOPE    HA19033   6.025   4.908   6.639 -0.1051 -2.3103 -1.3651
  169SOPE    HB19034   6.115   5.043   6.578 -1.4069  0.5736  1.2970
  169SOPE    C219035   6.206   4.897   6.724 -0.1255 -0.1264  0.0138
  169SOPE    HS19036   6.158   4.944   6.812 -0.1506 -0.5972  0.2558
  169SOPE   O2119037   6.343   4.937   6.708 -0.0494  0.2087 -0.0221
  169SOPE   C2119038   6.362   5.066   6.716 -0.8917 -0.2689  0.0356
  169SOPE   O2219039   6.279   5.150   6.753  0.1729 -0.4778  0.2223
  169SOPE   C2219040   6.506   5.097   6.677 -0.0508 -0.0408  0.2171
  169SOPE   H2R19041   6.505   5.138   6.574 -2.2180  1.0019  0.6002
  169SOPE   H2S19042   6.559   4.999   6.678  1.6848  0.8666  0.2131
  169SOPE    C319043   6.193   4.743   6.748 -0.3981  0.7204 -0.3837
  169SOPE    HX19044   6.241   4.703   6.656 -1.2481  0.6871 -0.8199
  169SOPE    HY19045   6.087   4.711   6.757  0.1447 -0.9419  0.5342
  169SOPE   O3119046   6.275   4.703   6.860 -0.4872  0.4604  0.1240
  169SOPE   C3119047   6.239   4.734   6.974  0.1357  0.1251 -0.2392
  169SOPE   O3219048   6.141   4.798   7.008  0.2739 -0.7899  0.1024
  169SOPE   C3219049   6.331   4.686   7.086 -0.5075 -0.0209 -0.4398
  169SOPE   H2X19050   6.412   4.761   7.096  0.5888 -0.7481 -3.0050
  169SOPE   H2Y19051   6.379   4.589   7.060  2.2415  0.1110  3.2745
  169SOPE   C2319052   6.573   5.191   6.784 -0.1680  0.0189 -0.1852
  169SOPE   H3R19053   6.524   5.291   6.787  1.2422  0.7231  0.1935
  169SOPE   H3S19054   6.678   5.206   6.752 -0.5924  1.6450 -0.9255
  169SOPE   C2419055   6.573   5.132   6.924  0.3973  0.5136  0.0670
  169SOPE   H4R19056   6.470   5.138   6.965  0.4840 -1.1880  0.6357
  169SOPE   H4S19057   6.603   5.025   6.913  0.3637  0.5439 -0.3050
  169SOPE   C2519058   6.672   5.192   7.028 -0.0833  0.5549  0.0803
  169SOPE   H5R19059   6.765   5.154   6.981  0.2197  1.7006 -0.2884
  169SOPE   H5S19060   6.667   5.303   7.023  0.1060  0.6151  1.0177
  169SOPE   C2619061   6.649   5.142   7.164 -0.3094  0.3663  0.4920
  169SOPE   H6R19062   6.546   5.170   7.195 -0.9682  0.4005 -1.5593
  169SOPE   H6S19063   6.656   5.031   7.169 -1.1443  0.2755 -0.2034
  169SOPE   C2719064   6.751   5.204   7.260 -0.7776 -0.0690 -0.7371
  169SOPE   H7R19065   6.854   5.175   7.230 -0.3555 -1.9486  2.2086
  169SOPE   H7S19066   6.754   5.315   7.254 -1.0296 -0.1043 -1.6698
  169SOPE   C2819067   6.737   5.147   7.408 -0.3364  0.2131 -0.4235
  169SOPE   H8R19068   6.720   5.038   7.395 -1.4402  0.1492  1.1925
  169SOPE   H8S19069   6.836   5.155   7.459 -0.4236 -0.0413 -0.2093
  169SOPE   C2919070   6.621   5.215   7.481 -0.6548  0.0510 -0.5452
  169SOPE   H9119071   6.642   5.322   7.492  1.1118 -0.2647 -0.6207
  169SOPE  C21019072   6.513   5.141   7.521  0.4871 -0.4918 -0.7988
  169SOPE  H10119073   6.422   5.190   7.559  1.7009  1.1731  0.0575
  169SOPE  C21119074   6.484   4.990   7.491 -1.0750 -0.9166 -0.0295
  169SOPE  H11R19075   6.537   4.969   7.395 -2.1422  1.5675 -1.2771
  169SOPE  H11S19076   6.374   4.982   7.479 -0.9058 -1.0417 -1.9613
  169SOPE  C21219077   6.530   4.898   7.602 -0.0641  0.3592 -0.2424
  169SOPE  H12R19078   6.641   4.902   7.612 -0.0801 -0.5565  0.3952
  169SOPE  H12S19079   6.489   4.800   7.571  1.7525 -0.4295 -0.3010
  169SOPE  C21319080   6.468   4.928   7.742 -0.3971 -0.5812 -0.3899
  169SOPE  H13R19081   6.358   4.913   7.735 -0.5552 -0.1569  0.8405
  169SOPE  H13S19082   6.487   5.035   7.765 -0.5058 -0.7848  0.7171
  169SOPE  C21419083   6.527   4.836   7.855  0.0753  0.2951 -0.2179
  169SOPE  H14R19084   6.625   4.879   7.882  0.9475 -2.4397  1.3409
  169SOPE  H14S19085   6.531   4.739   7.801 -0.7626  0.7443 -1.1366
  169SOPE  C21519086   6.428   4.828   7.968  0.7294  0.6583 -0.7159
  169SOPE  H15R19087   6.326   4.795   7.940  0.6036  0.4538 -0.0390
  169SOPE  H15S19088   6.420   4.922   8.027 -2.0266 -0.4058  0.7586
  169SOPE  C21619089   6.470   4.721   8.068 -0.1338  0.7612 -0.1550
  169SOPE  H16R19090   6.568   4.747   8.114  1.1816 -1.0362 -1.7401
  169SOPE  H16S19091   6.487   4.623   8.018 -1.9781 -0.1094  0.8079
  169SOPE  C21719092   6.376   4.716   8.186  0.5124  0.9316 -0.4345
  169SOPE  H17R19093   6.413   4.627   8.241  0.5449 -0.7480 -2.9981
  169SOPE  H17S19094   6.275   4.690   8.145  0.0345  2.1434 -0.0670
  169SOPE  C21819095   6.374   4.843   8.267 -0.0091  1.0427  0.3359
  169SOPE  H18R19096   6.477   4.875   8.292 -0.0486 -0.3332  2.5908
  169SOPE  H18S19097   6.320   4.839   8.364  0.7440  3.0425  0.8873
  169SOPE  H18T19098   6.332   4.930   8.212  0.6216  1.4337  0.4703
  169SOPE   C3319099   6.249   4.672   7.215  0.2015  0.3198  0.4785
  169SOPE   H3X19100   6.157   4.614   7.193  2.1383 -3.2227  0.9795
  169SOPE   H3Y19101   6.221   4.773   7.253 -0.1252  0.3044  0.2851
  169SOPE   C3419102   6.329   4.592   7.316  0.0760 -0.0353  0.1472
  169SOPE   H4X19103   6.430   4.640   7.315 -0.1708  0.5076  0.5390
  169SOPE   H4Y19104   6.342   4.484   7.295  2.0557  0.1116  0.4051
  169SOPE   C3519105   6.294   4.613   7.462 -0.4473  0.7645  0.2454
  169SOPE   H5X19106   6.197   4.568   7.494  1.0632 -1.2596  2.3700
  169SOPE   H5Y19107   6.298   4.721   7.486  0.6680  0.9401 -0.6512
  169SOPE   C3619108   6.393   4.534   7.554 -0.2177  1.1559 -0.8729
  169SOPE   H6X19109   6.489   4.587   7.535 -0.3669  1.6892 -0.1450
  169SOPE   H6Y19110   6.404   4.426   7.528  0.3552  1.0681 -0.2832
  169SOPE   C3719111   6.357   4.531   7.704  0.3590  1.0444  0.1585
  169SOPE   H7X19112   6.358   4.634   7.745 -2.5491  0.7845  1.1060
  169SOPE   H7Y19113   6.444   4.480   7.752  0.3604  1.1972  0.3207
  169SOPE   C3819114   6.219   4.473   7.732 -0.4212 -0.5798  0.3455
  169SOPE   H8X19115   6.147   4.533   7.673  2.2397  4.0252  1.3528
  169SOPE   H8Y19116   6.215   4.367   7.696  0.8307 -0.2765 -0.7520
  169SOPE   C3919117   6.172   4.498   7.876 -0.1215 -0.5404  0.0721
  169SOPE   H9X19118   6.219   4.584   7.928  2.9678 -2.1978  0.2632
  169SOPE   H9Y19119   6.229   4.421   7.934 -1.5692 -2.1964 -0.6316
  169SOPE  C31019120   6.029   4.481   7.901  0.2698  0.2268  0.5194
  169SOPE  H10X19121   5.985   4.560   7.836  1.2111  0.1936 -0.1811
  169SOPE  H10Y19122   5.998   4.512   8.003 -0.4490  0.9373  0.0931
  169SOPE  C31119123   5.962   4.344   7.870  0.1640 -0.0371 -0.2375
  169SOPE  H11X19124   5.963   4.329   7.760  2.4640  0.1428 -0.3010
  169SOPE  H11Y19125   5.854   4.347   7.895  0.1001  1.2595 -0.6059
  169SOPE  C31219126   6.025   4.215   7.934 -0.3861 -0.5161 -0.0633
  169SOPE  H12X19127   6.018   4.226   8.045 -1.3158  0.1158 -0.1732
  169SOPE  H12Y19128   6.131   4.204   7.902  0.0553  1.3939  0.6088
  169SOPE  C31319129   5.944   4.093   7.897  0.4409  0.3002 -0.2913
  169SOPE  H13X19130   5.930   4.074   7.788  1.2027  0.6431 -0.4607
  169SOPE  H13Y19131   5.843   4.102   7.942  0.9912 -1.1644  1.3410
  169SOPE  C31419132   5.999   3.962   7.956 -0.0539  0.2823  0.1999
  169SOPE  H14X19133   6.104   3.932   7.937 -0.5808 -1.0984 -0.6791
  169SOPE  H14Y19134   5.939   3.881   7.911 -1.4332  1.1059  0.4945
  169SOPE  C31519135   5.966   3.954   8.103 -0.3097 -0.1927 -0.3486
  169SOPE  H15X19136   5.856   3.955   8.117  0.0334  0.7741  3.4920
  169SOPE  H15Y19137   6.013   4.038   8.158 -0.4299 -0.1756 -0.2717
  169SOPE  C31619138   6.009   3.827   8.171 -0.4789 -0.2843 -0.2924
  169SOPE  H16X19139   6.118   3.809   8.164  0.2043  2.6023  1.4914
  169SOPE  H16Y19140   5.949   3.740   8.135 -1.5465  0.3827 -0.1892
  169SOPE  C31719141   5.981   3.814   8.321 -0.0024 -1.3533 -0.4661
  169SOPE  H17X19142   6.027   3.720   8.359  0.2912 -0.7694  0.6869
  169SOPE  H17Y19143   5.870   3.816   8.331 -0.3728  3.8618 -2.5932
  169SOPE  C31819144   6.037   3.925   8.407 -0.3640  0.3491  0.3732
  169SOPE  H18X19145   6.030   3.911   8.517  1.1015 -1.2448  0.2987
  169SOPE  H18Y19146   5.989   4.022   8.382 -1.9383 -0.6492 -0.6573
  169SOPE  H18Z19147   6.146   3.938   8.390 -0.0411 -2.1981  0.0502
  170SOPE     N19148   2.297   6.050   5.961 -0.4628 -0.0447  0.0664
  170SOPE   HN119149   2.295   5.976   6.034 -0.0132  2.7558  3.1681
  170SOPE   HN219150   2.217   6.029   5.898 -0.2183 -0.1563 -0.2082
  170SOPE   HN319151   2.382   6.040   5.903  0.7822  2.2716  1.3424
  170SOPE   C1219152   2.279   6.201   5.991 -0.3165  0.0495 -0.1954
  170SOPE  H12A19153   2.256   6.259   5.900 -0.0015  3.4562  1.7131
  170SOPE  H12B19154   2.381   6.229   6.025 -1.1063  2.3114  0.5073
  170SOPE   C1119155   2.165   6.231   6.088 -0.5719  0.7979  0.2315
  170SOPE  H11A19156   2.174   6.165   6.177 -4.2025 -1.0823 -0.6233
  170SOPE  H11B19157   2.077   6.198   6.030 -1.2044  1.7187  0.6348
  170SOPE     P19158   2.240   6.443   6.206  0.1181 -0.5987 -0.7038
  170SOPE   O1319159   2.170   6.554   6.275 -0.1149  0.5546  0.5145
  170SOPE   O1419160   2.366   6.475   6.142  0.2482 -0.0107  0.0348
  170SOPE   O1219161   2.142   6.372   6.118 -0.3886 -0.1344  0.0358
  170SOPE   O1119162   2.265   6.336   6.313 -0.7303  0.3514 -0.4518
  170SOPE    C119163   2.174   6.300   6.416  0.4627 -0.1314 -0.6380
  170SOPE    HA19164   2.173   6.189   6.410  2.3159 -0.2164 -0.0786
  170SOPE    HB19165   2.065   6.313   6.397  0.2171 -0.1786  0.6558
  170SOPE    C219166   2.202   6.336   6.561 -0.1102  0.8390  0.0573
  170SOPE    HS19167   2.212   6.447   6.565 -2.0755  1.0840 -0.9658
  170SOPE   O2119168   2.316   6.258   6.606  0.5669 -0.0667 -0.6699
  170SOPE   C2119169   2.430   6.317   6.575 -0.0289  0.7609  0.6627
  170SOPE   O2219170   2.442   6.430   6.528 -0.4928  0.7881 -0.2736
  170SOPE   C2219171   2.551   6.229   6.607  0.3547  0.0726  0.0320
  170SOPE   H2R19172   2.639   6.296   6.608  0.8497 -0.5568 -0.2259
  170SOPE   H2S19173   2.575   6.160   6.523  3.0058 -0.3307  1.0212
  170SOPE    C319174   2.077   6.304   6.650  0.0844 -0.9580 -0.4543
  170SOPE    HX19175   2.046   6.200   6.627 -3.1318 -0.3011  0.4729
  170SOPE    HY19176   1.997   6.374   6.618 -0.1775 -0.4457  1.2614
  170SOPE   O3119177   2.119   6.324   6.787  0.4934 -0.0581 -0.1335
  170SOPE   C3119178   2.070   6.248   6.882  0.1648  0.3515 -0.0648
  170SOPE   O3219179   2.004   6.141   6.862 -0.5094 -0.4170  0.2538
  170SOPE   C3219180   2.115   6.292   7.020 -0.2508  0.0927 -0.2364
  170SOPE   H2X19181   2.049   6.377   7.049 -1.1248 -1.0835  1.4149
  170SOPE   H2Y19182   2.219   6.330   7.014  1.5354 -4.1210  0.8026
  170SOPE   C2319183   2.539   6.165   6.744 -0.3770  0.3248  0.5260
  170SOPE   H3R19184   2.604   6.076   6.734 -1.5131 -0.3997 -0.8276
  170SOPE   H3S19185   2.437   6.126   6.765  0.0214 -0.8436  0.3397
  170SOPE   C2419186   2.576   6.263   6.866  0.6013 -0.3508 -0.1317
  170SOPE   H4R19187   2.680   6.302   6.866  0.1660  0.8578 -0.0948
  170SOPE   H4S19188   2.501   6.344   6.851  0.8705  0.0722  0.7332
  170SOPE   C2519189   2.549   6.198   7.005 -0.6526  0.0875 -0.3730
  170SOPE   H5R19190   2.573   6.277   7.080  2.6851 -0.3391 -0.8177
  170SOPE   H5S19191   2.443   6.172   7.020 -0.3825 -0.6549  0.3462
  170SOPE   C2619192   2.644   6.076   7.041 -0.1525 -0.6326 -0.0585
  170SOPE   H6R19193   2.598   6.027   7.129 -0.9868  0.6773  0.2608
  170SOPE   H6S19194   2.633   5.998   6.962 -1.0601 -0.3482 -0.2290
  170SOPE   C2719195   2.791   6.111   7.076  0.2189  0.4210  0.1227
  170SOPE   H7R19196   2.853   6.020   7.056 -0.4292 -0.3967  1.6978
  170SOPE   H7S19197   2.820   6.180   6.994 -0.1088 -2.4709 -2.6648
  170SOPE   C2819198   2.815   6.153   7.218 -0.6155 -0.0958 -0.7354
  170SOPE   H8R19199   2.923   6.170   7.234 -0.2071 -3.0013  0.0384
  170SOPE   H8S19200   2.767   6.252   7.237 -1.0878 -0.8381  2.4774
  170SOPE   C2919201   2.787   6.042   7.317  0.7786  0.4434 -0.6472
  170SOPE   H9119202   2.853   5.954   7.314  1.0343  0.6149 -0.1159
  170SOPE  C21019203   2.696   6.054   7.411  0.1316 -0.1839 -0.6266
  170SOPE  H10119204   2.697   5.967   7.477  0.0475 -0.0553 -0.4558
  170SOPE  C21119205   2.593   6.161   7.437 -0.3100 -0.4308 -0.6739
  170SOPE  H11R19206   2.493   6.114   7.426 -1.1542  1.1513 -0.0209
  170SOPE  H11S19207   2.602   6.246   7.366  1.6535 -1.0425 -1.2315
  170SOPE  C21219208   2.612   6.230   7.572  0.7288 -0.2929  0.5189
  170SOPE  H12R19209   2.603   6.161   7.658  0.3704  0.4977  1.1329
  170SOPE  H12S19210   2.533   6.306   7.590  2.0103  0.4137  3.8480
  170SOPE  C21319211   2.742   6.304   7.593  0.3397 -0.9055  0.0346
  170SOPE  H13R19212   2.829   6.260   7.540  1.6227  0.0310  1.3099
  170SOPE  H13S19213   2.774   6.297   7.699 -2.7799 -4.5132  0.9859
  170SOPE  C21419214   2.724   6.456   7.557 -0.3866  0.7504  0.2156
  170SOPE  H14R19215   2.646   6.507   7.617 -3.0661 -0.5787 -1.9598
  170SOPE  H14S19216   2.693   6.465   7.451 -0.2217  1.2358  0.2069
  170SOPE  C21519217   2.854   6.539   7.571 -0.8273  0.1412  0.3540
  170SOPE  H15R19218   2.839   6.639   7.525 -1.7871 -0.5697 -0.9535
  170SOPE  H15S19219   2.937   6.483   7.523 -0.6193 -2.3643  3.3353
  170SOPE  C21619220   2.886   6.558   7.717 -0.5655  0.0143  1.2515
  170SOPE  H16R19221   2.891   6.458   7.765  0.2556  0.4082  2.0239
  170SOPE  H16S19222   2.805   6.608   7.773 -1.7375 -0.4726  0.0336
  170SOPE  C21719223   3.014   6.650   7.739  0.0238  0.2212  0.4450
  170SOPE  H17R19224   2.977   6.738   7.682  0.6052  0.5932  0.6319
  170SOPE  H17S19225   3.102   6.607   7.687 -0.8191 -0.0147 -0.8475
  170SOPE  C21819226   3.043   6.685   7.885  0.0421  0.3334  0.0468
  170SOPE  H18R19227   2.977   6.757   7.939  3.0773  1.5821  2.3519
  170SOPE  H18S19228   3.144   6.731   7.887  0.1921 -0.0121  0.4480
  170SOPE  H18T19229   3.048   6.594   7.948 -0.7559  1.2915  1.5675
  170SOPE   C3319230   2.088   6.179   7.118 -0.3137 -0.0111 -0.1121
  170SOPE   H3X19231   2.173   6.107   7.116 -2.3861 -2.6963  1.6827
  170SOPE   H3Y19232   1.998   6.116   7.103 -0.8042  1.0311 -1.7926
  170SOPE   C3419233   2.092   6.241   7.259  0.0289  0.6253  0.3660
  170SOPE   H4X19234   1.986   6.268   7.281 -0.4312 -1.3294  0.8020
  170SOPE   H4Y19235   2.146   6.338   7.259  2.4378 -0.6504  0.2107
  170SOPE   C3519236   2.144   6.138   7.362  0.1014 -0.0166  0.4901
  170SOPE   H5X19237   2.146   6.187   7.462 -0.1409  1.1735 -0.0721
  170SOPE   H5Y19238   2.248   6.106   7.338 -0.2817  0.5541 -2.2618
  170SOPE   C3619239   2.043   6.015   7.361 -0.8082  0.5262 -0.5958
  170SOPE   H6X19240   2.048   5.955   7.267  1.2082 -1.7670  0.8521
  170SOPE   H6Y19241   1.945   6.064   7.379  0.1430  2.6686 -0.8417
  170SOPE   C3719242   2.070   5.924   7.482  0.1921  0.4135  0.6427
  170SOPE   H7X19243   2.181   5.917   7.490  0.3089 -1.2417 -1.4055
  170SOPE   H7Y19244   2.035   5.819   7.473  3.3584 -0.9102  2.1192
  170SOPE   C3819245   1.999   5.975   7.601  0.0681 -0.3142  0.4834
  170SOPE   H8X19246   1.889   5.979   7.586  0.2939 -0.3602 -1.3649
  170SOPE   H8Y19247   2.035   6.073   7.638 -1.4930  0.3738  0.2488
  170SOPE   C3919248   2.014   5.898   7.732 -0.1157 -0.0783 -0.3536
  170SOPE   H9X19249   1.989   5.791   7.717 -2.1302  0.2128  0.6590
  170SOPE   H9Y19250   1.938   5.929   7.807 -0.0180 -0.1657 -0.2179
  170SOPE  C31019251   2.157   5.911   7.801 -0.4179  0.2977 -0.1886
  170SOPE  H10X19252   2.175   6.020   7.812  1.4770 -0.0592  0.8494
  170SOPE  H10Y19253   2.242   5.868   7.744 -0.9330  0.5893 -1.1857
  170SOPE  C31119254   2.165   5.850   7.943 -0.0842  0.0033 -0.6813
  170SOPE  H11X19255   2.099   5.916   8.004 -0.5392  0.9760 -2.1671
  170SOPE  H11Y19256   2.266   5.863   7.988  0.0705 -0.6752 -0.8237
  170SOPE  C31219257   2.130   5.705   7.963  0.2381 -0.5103  0.4589
  170SOPE  H12X19258   2.197   5.652   7.891 -0.1884 -0.5665  0.1001
  170SOPE  H12Y19259   2.028   5.680   7.928  0.6810 -0.7768 -0.6788
  170SOPE  C31319260   2.157   5.645   8.103  0.1558  0.4981 -0.0160
  170SOPE  H13X19261   2.263   5.654   8.136  1.1321 -0.9842 -2.4349
  170SOPE  H13Y19262   2.125   5.539   8.092 -0.3023  0.8041 -1.8513
  170SOPE  C31419263   2.058   5.706   8.206 -0.1245 -0.8490 -1.0264
  170SOPE  H14X19264   1.952   5.689   8.178 -1.0353  3.1758 -0.5806
  170SOPE  H14Y19265   2.075   5.816   8.204 -0.5922 -0.6812  1.2117
  170SOPE  C31519266   2.079   5.648   8.348 -0.2081  0.8728  0.1073
  170SOPE  H15X19267   2.185   5.624   8.373 -0.0607  0.9248 -0.4629
  170SOPE  H15Y19268   2.018   5.556   8.355  1.3944 -0.2547 -0.0750
  170SOPE  C31619269   2.030   5.746   8.459  0.0684  0.2439 -0.4398
  170SOPE  H16X19270   1.924   5.780   8.446 -0.3449  0.3186  2.5033
  170SOPE  H16Y19271   2.096   5.833   8.439 -0.5022  1.2258  1.6743
  170SOPE  C31719272   2.055   5.683   8.596 -0.0644  0.6304  0.6447
  170SOPE  H17X19273   2.163   5.656   8.594 -0.5993 -1.7226  0.7699
  170SOPE  H17Y19274   2.011   5.581   8.605  2.7608 -1.0497 -2.2737
  170SOPE  C31819275   2.032   5.765   8.717 -0.1862  0.1730  0.2867
  170SOPE  H18X19276   1.931   5.812   8.712 -0.8661 -1.3634 -1.8416
  170SOPE  H18Y19277   2.106   5.847   8.728  2.3873 -2.0340  0.3251
  170SOPE  H18Z19278   2.042   5.709   8.812 -0.1006 -0.6987 -0.2188
  171SOPE     N19279   5.242   0.537   6.548  0.0965 -0.1751 -0.1414
  171SOPE   HN119280   5.333   0.565   6.590 -1.1719  0.4693  2.3500
  171SOPE   HN219281   5.258   0.456   6.484 -0.8396 -0.3249 -0.1917
  171SOPE   HN319282   5.202   0.613   6.490 -0.8218 -2.7751 -3.2167
  171SOPE   C1219283   5.152   0.496   6.663  0.3882 -0.4169 -0.2422
  171SOPE  H12A19284   5.066   0.445   6.615 -0.5699  1.0701 -0.1841
  171SOPE  H12B19285   5.118   0.590   6.712  1.5514 -0.1386  0.0438
  171SOPE   C1119286   5.223   0.402   6.765  0.0799 -0.2129 -0.0744
  171SOPE  H11A19287   5.163   0.406   6.859  1.1187 -1.3681  0.6739
  171SOPE  H11B19288   5.328   0.430   6.786  0.7827 -1.9931 -1.0093
  171SOPE     P19289   5.319   0.205   6.627  0.4893  0.1850  0.1971
  171SOPE   O1319290   5.344   0.288   6.507  0.2290  0.7407 -0.1683
  171SOPE   O1419291   5.289   0.065   6.604  0.6761  0.3103 -0.2249
  171SOPE   O1219292   5.203   0.265   6.715 -0.5884 -0.8314 -0.5411
  171SOPE   O1119293   5.449   0.214   6.721  0.8587  0.2223  0.1460
  171SOPE    C119294   5.451   0.154   6.847  0.7086  0.4856 -0.8752
  171SOPE    HA19295   5.415   0.049   6.843 -0.9229  0.9875 -0.3213
  171SOPE    HB19296   5.390   0.206   6.924  1.0342 -1.8520  1.0797
  171SOPE    C219297   5.593   0.154   6.902 -0.0518 -0.5241 -0.7616
  171SOPE    HS19298   5.649   0.099   6.823  0.0961 -0.2341 -0.8570
  171SOPE   O2119299   5.588   0.087   7.031 -0.2919 -0.2165  0.0176
  171SOPE   C2119300   5.699   0.014   7.054 -0.0705 -0.4334 -0.3752
  171SOPE   O2219301   5.788  -0.004   6.970 -0.0774  0.1789  0.6074
  171SOPE   C2219302   5.690  -0.041   7.199  0.1179  0.5095 -0.3122
  171SOPE   H2R19303   5.626  -0.130   7.179 -1.3873  1.3903  0.4580
  171SOPE   H2S19304   5.635   0.024   7.269 -1.6912 -2.7545  1.5160
  171SOPE    C319305   5.647   0.301   6.922  0.9303  0.1455 -0.7193
  171SOPE    HX19306   5.586   0.352   7.000  0.2452 -0.9992 -0.4888
  171SOPE    HY19307   5.627   0.358   6.829 -0.8090  4.0993  1.8121
  171SOPE   O3119308   5.784   0.286   6.964 -0.2165  0.4340  0.3805
  171SOPE   C3119309   5.874   0.340   6.885 -0.1968  0.1162 -0.3520
  171SOPE   O3219310   5.857   0.415   6.789 -0.6640 -0.3342  0.2345
  171SOPE   C3219311   6.018   0.302   6.933  0.5973 -0.4232 -0.3292
  171SOPE   H2X19312   6.079   0.287   6.842  1.0532 -0.5804 -0.0040
  171SOPE   H2Y19313   6.019   0.216   7.004 -1.1990  1.1430  1.7486
  171SOPE   C2319314   5.825  -0.099   7.256  0.4557 -0.6541  0.1509
  171SOPE   H3R19315   5.867  -0.169   7.181  1.6126 -0.7094  0.8132
  171SOPE   H3S19316   5.801  -0.156   7.348 -0.3291 -0.6446 -0.0394
  171SOPE   C2419317   5.930   0.017   7.276 -0.4306 -0.4630  0.1458
  171SOPE   H4R19318   6.029  -0.032   7.293 -0.6261 -0.7143  0.5718
  171SOPE   H4S19319   5.936   0.071   7.179 -2.2583 -0.6017 -0.0774
  171SOPE   C2519320   5.883   0.112   7.391  0.5284 -0.2793  1.0108
  171SOPE   H5R19321   5.955   0.197   7.391 -0.4511  0.5697  0.4312
  171SOPE   H5S19322   5.780   0.144   7.367  0.9979 -0.2043 -1.0805
  171SOPE   C2619323   5.905   0.047   7.532 -0.6892 -0.3041  0.5591
  171SOPE   H6R19324   5.854  -0.049   7.554  0.1371 -0.4956  1.7494
  171SOPE   H6S19325   6.008   0.007   7.530 -0.1130  1.0095  1.6536
  171SOPE   C2719326   5.889   0.158   7.641  0.8944  1.0127  0.0236
  171SOPE   H7R19327   5.960   0.241   7.624  2.0356  0.2312  0.8812
  171SOPE   H7S19328   5.784   0.192   7.623 -0.1856 -1.7891  0.3909
  171SOPE   C2819329   5.902   0.100   7.782  0.5883  0.3834 -0.1843
  171SOPE   H8R19330   5.862  -0.004   7.791 -2.5095  1.4320 -0.6763
  171SOPE   H8S19331   6.011   0.089   7.801  0.7106 -0.9252 -1.5165
  171SOPE   C2919332   5.843   0.182   7.896  0.2520 -0.4858  0.8490
  171SOPE   H9119333   5.794   0.122   7.974 -2.2523 -0.6808 -0.7701
  171SOPE  C21019334   5.847   0.314   7.909 -0.0419 -0.1444  0.4928
  171SOPE  H10119335   5.792   0.346   7.999 -2.1034 -2.9284  0.3681
  171SOPE  C21119336   5.909   0.419   7.819  0.0766  0.6762 -0.0846
  171SOPE  H11R19337   5.838   0.445   7.738  2.2590  1.4545 -1.8630
  171SOPE  H11S19338   6.003   0.381   7.773 -0.9503 -0.8887 -0.9625
  171SOPE  C21219339   5.945   0.542   7.904  0.1930  0.6378 -0.1648
  171SOPE  H12R19340   5.858   0.563   7.971 -0.1918 -2.4148  0.4531
  171SOPE  H12S19341   5.960   0.626   7.833 -2.5877  0.7546 -0.7471
  171SOPE  C21319342   6.066   0.523   7.998  0.0813 -0.1347 -0.2285
  171SOPE  H13R19343   6.150   0.510   7.926 -0.1676 -1.7767 -0.2559
  171SOPE  H13S19344   6.060   0.424   8.047 -0.0450 -1.2968 -2.4519
  171SOPE  C21419345   6.088   0.646   8.092  0.4953 -0.4244  0.3050
  171SOPE  H14R19346   5.997   0.658   8.153  0.5329 -1.0452  0.4948
  171SOPE  H14S19347   6.091   0.733   8.023 -0.9184 -0.7624 -0.2216
  171SOPE  C21519348   6.214   0.648   8.186  0.6781 -0.0741 -0.0042
  171SOPE  H15R19349   6.225   0.738   8.250  0.7444 -1.0687  1.4361
  171SOPE  H15S19350   6.306   0.665   8.125  0.3065 -2.7299 -1.4873
  171SOPE  C21619351   6.228   0.530   8.281 -0.6969 -0.3419  0.3368
  171SOPE  H16R19352   6.244   0.435   8.225  2.6636  1.0072 -1.3227
  171SOPE  H16S19353   6.142   0.521   8.349 -0.1113 -1.7230  0.9155
  171SOPE  C21719354   6.350   0.551   8.376  0.3141 -1.2290 -0.2235
  171SOPE  H17R19355   6.336   0.655   8.411 -0.6572 -1.1709 -0.7568
  171SOPE  H17S19356   6.446   0.547   8.321  0.6227  0.4993  0.1530
  171SOPE  C21819357   6.338   0.467   8.500 -0.4208 -0.4880  0.0086
  171SOPE  H18R19358   6.373   0.362   8.494  0.8004  0.0015 -3.1460
  171SOPE  H18S19359   6.231   0.450   8.526 -1.1596 -0.6342 -2.7868
  171SOPE  H18T19360   6.400   0.512   8.580 -0.1344  2.1286 -1.5595
  171SOPE   C3319361   6.076   0.433   6.991 -0.3999  0.1218 -0.4006
  171SOPE   H3X19362   6.052   0.523   6.931 -0.6923  1.0478  1.0461
  171SOPE   H3Y19363   6.186   0.419   6.993 -0.3727 -0.7362 -3.5272
  171SOPE   C3419364   6.025   0.462   7.136  0.1267  0.5142 -0.0140
  171SOPE   H4X19365   6.004   0.365   7.185 -0.2116 -0.1601 -1.4346
  171SOPE   H4Y19366   5.930   0.519   7.130  0.2255  0.5380 -1.9921
  171SOPE   C3519367   6.133   0.529   7.220 -0.4347 -0.0395  0.4118
  171SOPE   H5X19368   6.138   0.631   7.178 -0.7007 -0.3532 -0.3959
  171SOPE   H5Y19369   6.234   0.484   7.222 -0.3222  0.2055  0.2180
  171SOPE   C3619370   6.086   0.522   7.365 -0.2958  0.2379  0.0913
  171SOPE   H6X19371   6.090   0.415   7.396  2.8607 -0.0895 -1.0438
  171SOPE   H6Y19372   5.980   0.552   7.355 -1.0053 -2.5247 -1.5437
  171SOPE   C3719373   6.164   0.622   7.455  0.0494  0.3986  0.2479
  171SOPE   H7X19374   6.140   0.724   7.420  1.5500  0.4278 -0.7645
  171SOPE   H7Y19375   6.272   0.606   7.437 -0.3260 -1.1020 -0.9042
  171SOPE   C3819376   6.131   0.612   7.605 -0.2214 -0.7213 -0.5142
  171SOPE   H8X19377   6.154   0.505   7.629  3.0399 -0.2723 -1.2163
  171SOPE   H8Y19378   6.026   0.637   7.629  0.4691  1.8604  0.0627
  171SOPE   C3919379   6.232   0.695   7.685 -0.3573  0.7361  0.4024
  171SOPE   H9X19380   6.331   0.665   7.644 -0.6302 -0.7611  0.7674
  171SOPE   H9Y19381   6.230   0.663   7.792 -1.6167 -1.0199 -0.0904
  171SOPE  C31019382   6.212   0.843   7.686 -0.0487 -0.1606 -0.0733
  171SOPE  H10X19383   6.111   0.873   7.722 -0.9076 -3.0001  0.0899
  171SOPE  H10Y19384   6.219   0.858   7.576 -0.8258 -0.0472 -0.1107
  171SOPE  C31119385   6.327   0.922   7.753  0.2584  0.3778 -0.3800
  171SOPE  H11X19386   6.322   1.030   7.732 -1.5107  0.1956 -1.0012
  171SOPE  H11Y19387   6.416   0.882   7.699  0.0889 -0.0753 -0.3303
  171SOPE  C31219388   6.348   0.898   7.904 -0.0414 -0.4582 -0.0297
  171SOPE  H12X19389   6.349   0.789   7.926 -0.2051 -0.5260 -0.3473
  171SOPE  H12Y19390   6.265   0.942   7.965  0.8838  0.0871  0.8748
  171SOPE  C31319391   6.480   0.947   7.960 -0.5358  0.1123 -0.3114
  171SOPE  H13X19392   6.488   1.053   7.930  0.6844  0.0941 -0.1016
  171SOPE  H13Y19393   6.570   0.901   7.915 -0.5517  0.6283 -0.8745
  171SOPE  C31419394   6.483   0.934   8.115  0.2418 -0.3890 -0.1054
  171SOPE  H14X19395   6.454   0.834   8.155 -0.3132 -0.6374 -1.0798
  171SOPE  H14Y19396   6.414   1.016   8.144  0.9949  0.7097 -1.3107
  171SOPE  C31519397   6.615   0.972   8.177 -0.0730  0.0213  0.1756
  171SOPE  H15X19398   6.651   1.076   8.166 -3.1001  1.1669  0.2253
  171SOPE  H15Y19399   6.687   0.904   8.128 -1.7258 -1.1257 -0.7573
  171SOPE  C31619400   6.624   0.941   8.331 -1.1455 -0.2320 -0.0392
  171SOPE  H16X19401   6.714   0.991   8.371 -1.3390  1.1622 -1.2611
  171SOPE  H16Y19402   6.632   0.830   8.341 -0.0669 -0.1885 -0.3005
  171SOPE  C31719403   6.506   0.985   8.413  0.3750  0.0640  0.5794
  171SOPE  H17X19404   6.468   0.922   8.496  0.9009  0.1306  0.8792
  171SOPE  H17Y19405   6.415   0.989   8.350 -0.9506 -1.1464  2.3146
  171SOPE  C31819406   6.523   1.121   8.480 -0.2722 -0.0792 -0.1427
  171SOPE  H18X19407   6.426   1.170   8.505  0.0752  0.2956  0.4797
  171SOPE  H18Y19408   6.580   1.187   8.411  0.6459 -1.0640 -0.3382
  171SOPE  H18Z19409   6.583   1.119   8.573  0.9881 -0.1599 -0.9248
  172SOPE     N19410   0.539   2.538   6.081 -0.3594  0.5178 -0.5636
  172SOPE   HN119411   0.461   2.568   6.142 -0.4760  0.3727 -0.6401
  172SOPE   HN219412   0.521   2.440   6.051  1.4731  0.2494 -0.9502
  172SOPE   HN319413   0.625   2.519   6.137 -1.8103 -0.2804  1.4983
  172SOPE   C1219414   0.573   2.633   5.970 -0.6306 -0.1470 -0.0318
  172SOPE  H12A19415   0.487   2.703   5.960 -0.7085 -0.2614 -0.1673
  172SOPE  H12B19416   0.576   2.567   5.881 -0.4933 -1.2588  0.7792
  172SOPE   C1119417   0.707   2.693   6.011  0.1731 -0.1255 -0.2239
  172SOPE  H11A19418   0.709   2.777   6.084  1.4113 -0.7886  0.5485
  172SOPE  H11B19419   0.752   2.739   5.919 -0.6005 -2.0214 -1.6174
  172SOPE     P19420   0.930   2.640   6.141 -0.3024  0.0703  0.6593
  172SOPE   O1319421   1.015   2.723   6.051 -0.5871  0.2386  0.5064
  172SOPE   O1419422   0.976   2.514   6.196 -0.1269 -0.2305  0.3752
  172SOPE   O1219423   0.797   2.598   6.067  0.6242  0.1826  0.3812
  172SOPE   O1119424   0.886   2.730   6.254  0.9717 -0.2367  0.3017
  172SOPE    C119425   0.881   2.877   6.242 -0.4867  0.4669  0.2392
  172SOPE    HA19426   0.799   2.917   6.305 -1.1799 -2.6776  1.4915
  172SOPE    HB19427   0.853   2.910   6.140  0.1875 -1.6223 -0.6687
  172SOPE    C219428   1.012   2.942   6.283 -0.1312 -1.0417 -0.0435
  172SOPE    HS19429   1.090   2.929   6.205  0.9333  2.1630  0.3472
  172SOPE   O2119430   1.057   2.884   6.409 -0.0548 -0.3350  0.8964
  172SOPE   C2119431   1.183   2.896   6.431  0.1630  0.4780  0.3080
  172SOPE   O2219432   1.262   2.947   6.348  0.0346  0.1958 -0.5514
  172SOPE   C2219433   1.220   2.829   6.567  0.5104 -0.9340 -0.3406
  172SOPE   H2R19434   1.303   2.754   6.565 -0.5915 -2.1878 -2.0058
  172SOPE   H2S19435   1.130   2.772   6.599  0.6932 -0.6780  0.6643
  172SOPE    C319436   0.982   3.096   6.303 -0.2112 -0.0032  0.0998
  172SOPE    HX19437   0.919   3.098   6.395  1.3588 -0.2931  1.2217
  172SOPE    HY19438   0.910   3.126   6.224 -2.2927  1.8832  2.5460
  172SOPE   O3119439   1.096   3.181   6.322 -0.0081  0.0488  0.6097
  172SOPE   C3119440   1.075   3.312   6.354  0.0378 -0.4260 -1.0292
  172SOPE   O3219441   0.969   3.369   6.364 -0.0388  0.4681  0.0696
  172SOPE   C3219442   1.207   3.378   6.344 -0.8171 -0.1117 -0.0056
  172SOPE   H2X19443   1.199   3.488   6.327 -0.4730 -0.1664 -0.5410
  172SOPE   H2Y19444   1.246   3.340   6.247 -0.4313 -3.1024  1.2418
  172SOPE   C2319445   1.222   2.934   6.677  0.1448 -0.1799  0.6215
  172SOPE   H3R19446   1.144   3.011   6.654  0.1055 -0.8237 -1.7190
  172SOPE   H3S19447   1.320   2.986   6.678 -0.1127  0.7767 -3.7094
  172SOPE   C2419448   1.183   2.877   6.812 -0.6505 -0.0280 -0.9055
  172SOPE   H4R19449   1.072   2.863   6.811 -0.7251 -0.1739  1.7504
  172SOPE   H4S19450   1.236   2.783   6.838 -0.5628  0.7067  1.8886
  172SOPE   C2519451   1.196   2.968   6.939 -0.7657  0.2540  0.1539
  172SOPE   H5R19452   1.293   3.023   6.931 -0.4250 -0.4861 -1.3311
  172SOPE   H5S19453   1.108   3.035   6.941 -0.0032  1.3414 -0.9342
  172SOPE   C2619454   1.194   2.890   7.070 -0.8695 -0.5970  0.1059
  172SOPE   H6R19455   1.091   2.850   7.079 -1.1932  0.6463  2.6833
  172SOPE   H6S19456   1.275   2.814   7.081  0.5756  0.8176 -0.4384
  172SOPE   C2719457   1.185   2.976   7.189  0.2627  0.4530  1.0916
  172SOPE   H7R19458   1.283   3.028   7.198  0.8141 -0.6103  1.4495
  172SOPE   H7S19459   1.113   3.060   7.182  1.3295  1.2539 -2.8639
  172SOPE   C2819460   1.186   2.898   7.316 -0.0464  0.5984 -0.6400
  172SOPE   H8R19461   1.275   2.832   7.319 -0.6728 -0.2349  1.4253
  172SOPE   H8S19462   1.216   2.970   7.395 -0.5537 -1.0071  1.0801
  172SOPE   C2919463   1.067   2.809   7.348  0.2782  0.1513 -0.0511
  172SOPE   H9119464   1.039   2.739   7.267 -1.0531  0.9820 -0.3386
  172SOPE  C21019465   0.998   2.812   7.464 -0.3160  0.1932 -0.0784
  172SOPE  H10119466   0.915   2.740   7.473  0.3963 -0.6133  0.2405
  172SOPE  C21119467   1.026   2.891   7.590 -0.0576  0.2501  0.0704
  172SOPE  H11R19468   0.989   2.993   7.571 -2.3316 -0.6025 -0.3656
  172SOPE  H11S19469   1.135   2.914   7.597  0.0990 -0.9016  2.4126
  172SOPE  C21219470   0.989   2.819   7.721 -1.0275 -0.6421 -0.5750
  172SOPE  H12R19471   0.889   2.770   7.712 -1.3481 -0.2007  0.3910
  172SOPE  H12S19472   0.993   2.890   7.807 -0.0206 -1.3931  0.0220
  172SOPE  C21319473   1.089   2.702   7.746  0.1291 -0.2010 -0.0363
  172SOPE  H13R19474   1.185   2.757   7.737 -0.8101  1.5251 -0.1914
  172SOPE  H13S19475   1.071   2.640   7.656  2.9080  0.9328 -1.4901
  172SOPE  C21419476   1.061   2.622   7.872 -1.4000  0.1743  0.0223
  172SOPE  H14R19477   1.124   2.530   7.877  1.1014  1.8348  0.6417
  172SOPE  H14S19478   0.954   2.593   7.858 -1.0883 -0.9728 -0.1574
  172SOPE  C21519479   1.099   2.705   7.989  0.0291 -0.2048 -0.1999
  172SOPE  H15R19480   1.015   2.777   7.997  0.6979  0.4555  1.3983
  172SOPE  H15S19481   1.197   2.755   7.973  0.6822 -1.2064  0.5313
  172SOPE  C21619482   1.108   2.621   8.120  0.2374  0.4747 -0.8205
  172SOPE  H16R19483   1.196   2.554   8.108 -1.0911 -0.9359 -3.4883
  172SOPE  H16S19484   1.018   2.560   8.142 -1.0768  1.7640 -2.4119
  172SOPE  C21719485   1.123   2.695   8.252 -0.5907 -0.3294 -1.2832
  172SOPE  H17R19486   1.033   2.745   8.293 -0.4243 -0.3424 -0.8924
  172SOPE  H17S19487   1.206   2.770   8.255 -1.5883  0.8422  1.9864
  172SOPE  C21819488   1.162   2.607   8.370 -0.2746  0.8199  0.5930
  172SOPE  H18R19489   1.242   2.533   8.349 -1.8150 -0.1733 -2.2235
  172SOPE  H18S19490   1.074   2.558   8.416 -0.5453 -0.1009 -0.8603
  172SOPE  H18T19491   1.194   2.670   8.456  0.1641  2.4081 -0.6891
  172SOPE   C3319492   1.312   3.349   6.460 -0.5833  0.4382  0.0685
  172SOPE   H3X19493   1.409   3.382   6.417 -0.5718 -0.3101 -0.5006
  172SOPE   H3Y19494   1.320   3.238   6.468 -1.3700  0.3994  0.4034
  172SOPE   C3419495   1.289   3.402   6.608 -0.5275  0.0791  0.9189
  172SOPE   H4X19496   1.309   3.511   6.596 -2.1307  0.1582 -1.9115
  172SOPE   H4Y19497   1.374   3.370   6.672  0.3412  0.7654  0.1550
  172SOPE   C3519498   1.153   3.369   6.671  0.2972 -0.2650  0.4189
  172SOPE   H5X19499   1.134   3.262   6.648 -0.7272 -0.2819  1.2698
  172SOPE   H5Y19500   1.086   3.430   6.606  2.7096  0.6714 -1.3394
  172SOPE   C3619501   1.125   3.416   6.812  0.4940 -0.1972 -0.2270
  172SOPE   H6X19502   1.023   3.390   6.847  0.8675 -1.2728  0.1234
  172SOPE   H6Y19503   1.161   3.520   6.830  0.2613 -0.5665  2.8865
  172SOPE   C3719504   1.225   3.331   6.901 -0.7245  0.5607  0.6642
  172SOPE   H7X19505   1.328   3.354   6.869 -0.5118  1.4016  1.9268
  172SOPE   H7Y19506   1.210   3.223   6.876  2.9830  0.4364 -1.7364
  172SOPE   C3819507   1.208   3.362   7.049 -0.3217 -0.1459  0.1459
  172SOPE   H8X19508   1.235   3.466   7.078 -0.4662 -0.0720  0.0112
  172SOPE   H8Y19509   1.286   3.310   7.109 -0.6567  0.4508  1.1338
  172SOPE   C3919510   1.069   3.345   7.109  0.0735  0.4849  0.5205
  172SOPE   H9X19511   1.025   3.246   7.083 -0.5876  0.9882 -0.3383
  172SOPE   H9Y19512   1.002   3.419   7.060  1.6287  1.6568  0.0833
  172SOPE  C31019513   1.077   3.360   7.264  0.0026 -0.7960 -0.2420
  172SOPE  H10X19514   1.128   3.453   7.297 -0.5034 -0.6167  0.0475
  172SOPE  H10Y19515   1.140   3.275   7.298  1.0239 -0.1205 -0.4291
  172SOPE  C31119516   0.937   3.370   7.314 -0.1843  0.0140  0.3930
  172SOPE  H11X19517   0.875   3.315   7.241  0.9182  0.7300 -1.1218
  172SOPE  H11Y19518   0.895   3.473   7.312 -1.1694 -0.3884 -1.7079
  172SOPE  C31219519   0.898   3.318   7.459 -0.3342 -1.0198  0.5496
  172SOPE  H12X19520   0.912   3.207   7.461  0.0418 -0.9974 -0.3429
  172SOPE  H12Y19521   0.787   3.328   7.468 -0.6131 -2.8664 -0.2887
  172SOPE  C31319522   0.970   3.402   7.557 -0.0121 -0.2140  0.6211
  172SOPE  H13X19523   0.955   3.509   7.530 -0.1520 -0.2133  0.7026
  172SOPE  H13Y19524   1.079   3.380   7.547  0.4848  2.0372  0.5071
  172SOPE  C31419525   0.909   3.374   7.694 -0.1107  0.4937 -0.0323
  172SOPE  H14X19526   0.933   3.272   7.732  0.1998  0.6338  0.1442
  172SOPE  H14Y19527   0.798   3.377   7.687 -0.0469 -0.3673 -2.2813
  172SOPE  C31519528   0.954   3.477   7.798  0.0678 -0.4492 -0.6858
  172SOPE  H15X19529   1.054   3.520   7.773 -0.6178  1.6010 -0.1655
  172SOPE  H15Y19530   0.961   3.435   7.900  1.0801  2.2856  0.4736
  172SOPE  C31619531   0.869   3.604   7.799 -0.8008  0.3528  0.8859
  172SOPE  H16X19532   0.771   3.570   7.839  0.5309 -4.2057  0.9308
  172SOPE  H16Y19533   0.853   3.646   7.698 -1.7548  1.3556  1.4351
  172SOPE  C31719534   0.921   3.710   7.891  0.6771  0.1761  0.3828
  172SOPE  H17X19535   0.869   3.807   7.878  0.4955 -0.0638 -0.8845
  172SOPE  H17Y19536   1.021   3.739   7.855 -0.4437  0.9267 -2.4116
  172SOPE  C31819537   0.939   3.673   8.038 -0.0581 -0.8604 -0.2399
  172SOPE  H18X19538   0.852   3.614   8.071  0.5111 -2.2333 -1.1038
  172SOPE  H18Y19539   0.953   3.756   8.110 -1.3363 -1.8079  1.1593
  172SOPE  H18Z19540   1.033   3.613   8.040  0.5725  0.0653  3.1951
  173SAPI   C1219541   6.127   6.152  10.453 -0.1374 -0.1175  0.3395
  173SAPI    H219542   6.171   6.112  10.359  0.4908 -1.6802  1.2504
  173SAPI    O219543   6.075   6.287  10.439 -0.1488  0.3096  0.3986
  173SAPI   HO219544   6.135   6.332  10.379  0.3859 -1.6704 -0.6508
  173SAPI   C1319545   6.024   6.056  10.505  0.0764  1.0995  0.2023
  173SAPI    H319546   6.072   5.956  10.513 -2.3583 -0.1647 -0.0317
  173SAPI    O319547   5.918   6.040  10.410  0.4691 -0.1379  0.0918
  173SAPI   HO319548   5.906   6.125  10.368  1.7617 -1.2194 -2.7540
  173SAPI   C1419549   5.970   6.099  10.634 -0.2346 -1.2463  0.2001
  173SAPI    H419550   5.916   6.195  10.622  1.0742 -0.5075  0.0392
  173SAPI    O419551   5.870   6.007  10.682  0.1522  0.5513 -0.2434
  173SAPI   HO419552   5.903   5.935  10.735  0.2572  1.6778  1.2795
  173SAPI   C1519553   6.077   6.121  10.735 -0.3980  0.1746  0.0671
  173SAPI    H519554   6.102   6.016  10.762  1.3420  0.0715 -1.7221
  173SAPI    O519555   6.023   6.181  10.855  0.1074  0.3961  0.0103
  173SAPI   HO519556   5.982   6.265  10.831  1.1616  0.2719 -2.5548
  173SAPI   C1619557   6.208   6.201  10.689  0.1948 -0.4469 -0.0473
  173SAPI    H619558   6.201   6.312  10.689  1.4564 -0.3207 -1.7628
  173SAPI    O619559   6.315   6.175  10.776 -0.2584  0.0236  0.2841
  173SAPI   HO619560   6.381   6.128  10.725  0.7381 -2.1020  3.2481
  173SAPI   C1119561   6.243   6.164  10.549 -0.0964  0.2838  0.0135
  173SAPI    H119562   6.281   6.059  10.557 -0.9918  0.0347  1.3518
  173SAPI     P19563   6.504   6.199  10.471  0.2231  0.0558  0.0070
  173SAPI   O1319564   6.542   6.103  10.578  0.2396  0.3568 -0.4128
  173SAPI   O1419565   6.595   6.310  10.456 -0.2961 -0.6801  0.1832
  173SAPI   O1219566   6.346   6.261  10.502 -0.1386  0.3613  0.1701
  173SAPI   O1119567   6.497   6.120  10.328 -0.5869 -0.3461 -0.5396
  173SAPI    C119568   6.463   6.202  10.216 -0.2833  0.0289 -0.6288
  173SAPI    HA19569   6.356   6.195  10.188 -0.1409 -0.6102 -1.0182
  173SAPI    HB19570   6.454   6.311  10.235  0.0341  0.1182 -0.9744
  173SAPI    C219571   6.569   6.189  10.103  0.0521 -0.0081  0.3321
  173SAPI    HS19572   6.556   6.274  10.033  1.0997  0.6761  0.9471
  173SAPI   O2119573   6.572   6.060  10.035  0.4494  0.6472 -0.6584
  173SAPI   C2119574   6.468   6.062   9.940 -0.3936  0.4308  0.5687
  173SAPI   O2219575   6.412   6.167   9.914  0.1422  0.6584  0.4918
  173SAPI   C2219576   6.437   5.918   9.891  0.1137  0.5007 -0.3818
  173SAPI   H2R19577   6.401   5.860   9.978 -1.4371  1.8528 -0.0676
  173SAPI   H2S19578   6.352   5.915   9.819  0.3836 -0.8703 -0.6617
  173SAPI    C319579   6.717   6.217  10.160 -1.2811 -0.1937  0.1195
  173SAPI    HX19580   6.737   6.145  10.242 -2.9767 -1.6222 -0.6820
  173SAPI    HY19581   6.712   6.320  10.202 -0.2080 -0.2645  0.4657
  173SAPI   O3119582   6.813   6.221  10.053 -0.9365  0.2798  0.0638
  173SAPI   C3119583   6.884   6.111  10.032 -0.0006 -0.9399 -0.1597
  173SAPI   O3219584   6.883   6.016  10.105  0.2408 -0.1552 -1.1886
  173SAPI   C3219585   6.978   6.131   9.917 -0.4399 -0.7140 -0.1201
  173SAPI   H2X19586   7.054   6.206   9.948  1.2114 -1.3770 -2.2772
  173SAPI   H2Y19587   6.926   6.167   9.825  0.9373 -3.1004 -1.9277
  173SAPI   C2319588   6.563   5.851   9.830  0.6257  0.0640 -0.0505
  173SAPI   H3R19589   6.640   5.835   9.908  1.0198 -1.0402 -0.6447
  173SAPI   H3S19590   6.599   5.918   9.749 -0.7683 -0.9394 -1.5912
  173SAPI   C2419591   6.542   5.705   9.766 -0.3247 -0.2131  0.1332
  173SAPI   H4R19592   6.642   5.683   9.724 -0.3712  0.8838 -0.6043
  173SAPI   H4S19593   6.482   5.715   9.672  3.6162  0.0579 -2.5918
  173SAPI   C2519594   6.504   5.595   9.864 -0.0770  0.1880  0.1459
  173SAPI   H5R19595   6.557   5.586   9.960  0.1309 -0.2021 -0.0009
  173SAPI   C2619596   6.396   5.515   9.855  0.1925  0.0064  0.3723
  173SAPI   H6R19597   6.386   5.437   9.932 -1.2958 -0.7603 -0.5743
  173SAPI   C2719598   6.306   5.505   9.738  0.2374 -0.0273  0.7875
  173SAPI   H7R19599   6.351   5.540   9.643 -0.5515  0.9041  0.7421
  173SAPI   H7S19600   6.229   5.583   9.759  0.1613 -0.3463  1.7382
  173SAPI   C2819601   6.246   5.370   9.721 -0.6161 -0.4910  0.3480
  173SAPI   H8R19602   6.241   5.309   9.812 -0.9164  1.7774  1.9036
  173SAPI   C2919603   6.206   5.330   9.602 -0.0609  0.2506  0.1059
  173SAPI   H9R19604   6.154   5.233   9.595 -0.7068  0.5384  0.8464
  173SAPI  C21019605   6.189   5.409   9.476 -0.7124  0.3296  0.5764
  173SAPI  H10R19606   6.284   5.454   9.441 -0.8116 -0.2146 -0.4256
  173SAPI  H10S19607   6.115   5.489   9.497 -0.0609  0.4453  2.6813
  173SAPI  C21119608   6.129   5.326   9.366 -0.2401  0.0667  0.2960
  173SAPI  H11R19609   6.046   5.261   9.397 -0.4026  0.0967 -0.0667
  173SAPI  C21219610   6.167   5.336   9.239  0.6548  0.0938  0.6050
  173SAPI  H12R19611   6.129   5.261   9.168  2.7144 -0.9601  0.5327
  173SAPI  C21319612   6.248   5.448   9.177 -0.7719  0.1548 -0.7157
  173SAPI  H13R19613   6.351   5.442   9.219 -1.1846 -1.6857  0.1473
  173SAPI  H13S19614   6.207   5.540   9.224  0.4911 -0.2019  1.2031
  173SAPI  C21419615   6.250   5.473   9.027 -0.3607 -0.1351  0.3447
  173SAPI  H14R19616   6.228   5.382   8.969 -0.3338 -0.6816  1.1822
  173SAPI  C21519617   6.288   5.590   8.963 -0.1487  0.8528 -0.2942
  173SAPI  H15R19618   6.297   5.593   8.853 -0.7886  0.7045 -0.3524
  173SAPI  C21619619   6.319   5.716   9.028 -0.5840  0.5193  0.2469
  173SAPI  H16R19620   6.287   5.718   9.134  0.2231 -1.3729  0.5737
  173SAPI  H16S19621   6.258   5.796   8.980 -1.5507 -0.8027 -0.8158
  173SAPI  C21719622   6.475   5.755   9.025 -0.5315  0.2759  0.0280
  173SAPI  H17R19623   6.491   5.862   9.051  0.1939  0.0981  0.3214
  173SAPI  H17S19624   6.503   5.731   8.921 -2.1118 -1.3849 -0.0642
  173SAPI  C21819625   6.556   5.667   9.121  0.5206  0.3193  0.1272
  173SAPI  H18R19626   6.546   5.562   9.086 -3.6396  1.4558 -2.9730
  173SAPI  H18S19627   6.518   5.671   9.226 -1.9654 -1.5811 -0.5832
  173SAPI  C21919628   6.706   5.686   9.097 -0.5549 -0.4296 -0.3151
  173SAPI  H19R19629   6.727   5.793   9.116 -2.1825 -0.6510  3.6362
  173SAPI  H19S19630   6.730   5.664   8.990 -0.7548 -0.4065 -0.3655
  173SAPI  C22019631   6.790   5.607   9.196 -0.1677  0.7036 -0.0349
  173SAPI  H20R19632   6.768   5.498   9.186  2.6747 -0.5085  4.1476
  173SAPI  H20S19633   6.774   5.644   9.300 -3.0461  0.6532 -0.3718
  173SAPI  H20T19634   6.899   5.623   9.183  0.0744  1.7108  2.6256
  173SAPI   C3319635   7.068   6.002   9.879 -0.7091  0.2515  0.1689
  173SAPI   H3X19636   7.120   5.966   9.970 -0.0049  0.2596 -0.2247
  173SAPI   H3Y19637   7.149   6.046   9.817 -2.0888  1.5025 -0.8298
  173SAPI   C3419638   6.990   5.887   9.808  0.6792  0.5971 -0.1167
  173SAPI   H4X19639   6.909   5.862   9.880 -1.9272  3.7398 -1.7178
  173SAPI   H4Y19640   7.042   5.793   9.780 -1.8008 -0.8671 -0.1368
  173SAPI   C3519641   6.937   5.925   9.666  0.7565 -0.5292 -0.1572
  173SAPI   H5X19642   6.889   6.025   9.668  3.2546  0.7724  2.4938
  173SAPI   H5Y19643   6.869   5.849   9.622  2.5445 -2.2663 -0.0189
  173SAPI   C3619644   7.055   5.940   9.571 -0.2682 -0.2140  0.3465
  173SAPI   H6X19645   7.132   5.860   9.570  1.6560  1.5568  0.1556
  173SAPI   H6Y19646   7.117   6.029   9.594  1.0671  0.0009 -3.3814
  173SAPI   C3719647   6.997   5.954   9.428 -0.0644 -1.0886  0.3875
  173SAPI   H7X19648   6.912   6.025   9.437  1.9209  1.4420  0.1084
  173SAPI   H7Y19649   6.949   5.858   9.400 -2.2554  0.3596 -1.1661
  173SAPI   C3819650   7.098   6.002   9.322 -0.3593  0.1125 -0.1191
  173SAPI   H8X19651   7.190   5.944   9.342  0.1355  1.1098  0.6135
  173SAPI   H8Y19652   7.128   6.106   9.346  0.3359 -0.0572 -0.2419
  173SAPI   C3919653   7.056   5.970   9.178 -0.2973 -0.4482  0.3344
  173SAPI   H9X19654   7.044   5.860   9.184  1.3869 -0.6233  0.9532
  173SAPI   H9Y19655   7.128   6.007   9.102  1.0824  0.4736  2.0087
  173SAPI  C31019656   6.925   6.043   9.136  0.7353  0.7882 -0.4405
  173SAPI  H10X19657   6.944   6.152   9.146 -1.3398  1.3161 -1.5579
  173SAPI  H10Y19658   6.833   6.005   9.186  0.6956  2.0909  0.5377
  173SAPI  C31119659   6.884   6.012   8.994  0.3857  0.2954 -0.2568
  173SAPI  H11X19660   6.864   5.902   8.991 -0.7428  0.4649  0.6214
  173SAPI  H11Y19661   6.966   6.039   8.923  0.5723  0.5270  0.0486
  173SAPI  C31219662   6.758   6.075   8.945  0.8164 -0.6617  0.3873
  173SAPI  H12X19663   6.782   6.177   8.907 -4.1108  0.0440 -1.6493
  173SAPI  H12Y19664   6.680   6.079   9.023  0.4472 -2.3768  0.1367
  173SAPI  C31319665   6.692   6.023   8.814 -0.5345  0.1244  0.5493
  173SAPI  H13X19666   6.682   5.916   8.841  0.9696  0.5154  2.9430
  173SAPI  H13Y19667   6.756   6.043   8.726  0.8427  1.1527  1.7279
  173SAPI  C31419668   6.561   6.092   8.771  0.8503 -0.6707  0.4061
  173SAPI  H14X19669   6.590   6.197   8.752 -1.1447  0.2153  1.8141
  173SAPI  H14Y19670   6.490   6.095   8.857  2.3693  0.1735  1.6850
  173SAPI  C31519671   6.494   6.017   8.655  0.8288  0.3764 -0.1904
  173SAPI  H15X19672   6.390   6.052   8.644  0.0841 -1.7941 -0.5094
  173SAPI  H15Y19673   6.490   5.917   8.702  0.1386  0.6757  0.4032
  173SAPI  C31619674   6.567   6.019   8.527  0.1250  0.8499 -0.0572
  173SAPI  H16X19675   6.659   5.957   8.532  2.1168  3.2330 -3.1665
  173SAPI  H16Y19676   6.614   6.119   8.518  4.1503 -0.8816 -0.3521
  173SAPI  C31719677   6.484   5.970   8.405  0.8738 -0.5142  1.0030
  173SAPI  H17X19678   6.416   5.889   8.439 -0.3643 -0.2863 -0.8211
  173SAPI  H17Y19679   6.555   5.916   8.339  0.3446 -0.4704  0.3954
  173SAPI  C31819680   6.414   6.095   8.336  0.1691  0.5776  0.5207
  173SAPI  H18X19681   6.488   6.147   8.272  0.9841  0.9044  1.6985
  173SAPI  H18Y19682   6.383   6.173   8.408 -0.1248 -0.6142  1.7397
  173SAPI  H18Z19683   6.341   6.048   8.266 -0.1393 -0.1095  1.2902
  174SAPI   C1219684   1.754   5.810  10.792 -1.3700  0.0170 -0.0650
  174SAPI    H219685   1.739   5.705  10.826 -1.2677 -0.6969 -2.1065
  174SAPI    O219686   1.631   5.872  10.824  0.3484  0.3004  0.1078
  174SAPI   HO219687   1.574   5.857  10.749  0.9112  0.5897 -0.3884
  174SAPI   C1319688   1.869   5.873  10.871 -0.1266 -0.0005  0.0600
  174SAPI    H319689   1.956   5.808  10.848  1.2447  1.0367  1.9982
  174SAPI    O319690   1.850   5.854  11.010  0.6200 -0.3233 -0.0587
  174SAPI   HO319691   1.775   5.910  11.031  0.3827 -0.5119 -0.3973
  174SAPI   C1419692   1.899   6.016  10.827  0.0817  0.6088 -0.0646
  174SAPI    H419693   1.810   6.069  10.868 -1.2702 -2.7133  1.6389
  174SAPI    O419694   2.023   6.067  10.882 -0.5117 -0.0210  0.3462
  174SAPI   HO419695   2.094   6.060  10.819 -0.7302 -0.5864  0.1586
  174SAPI   C1519696   1.902   6.042  10.678 -0.4381  0.1726 -0.1595
  174SAPI    H519697   1.998   5.993  10.652 -1.4082 -1.4883 -0.7889
  174SAPI    O519698   1.910   6.175  10.628 -0.8085 -0.1153 -0.3916
  174SAPI   HO519699   1.970   6.180  10.554  1.2774 -1.8276  1.0657
  174SAPI   C1619700   1.802   5.963  10.598  0.0588  0.2358  0.1986
  174SAPI    H619701   1.711   6.028  10.600  0.9822  1.5666  0.3458
  174SAPI    O619702   1.840   5.960  10.459 -0.3838  0.3218 -0.2416
  174SAPI   HO619703   1.802   5.887  10.410  2.1472  0.1162 -2.0853
  174SAPI   C1119704   1.781   5.820  10.643  0.1064 -0.0607  0.1277
  174SAPI    H119705   1.870   5.758  10.619  0.1292  0.7758 -2.2287
  174SAPI     P19706   1.654   5.655  10.464 -0.6545  0.1813 -0.1213
  174SAPI   O1319707   1.516   5.590  10.460 -0.2113  0.0302  0.1499
  174SAPI   O1419708   1.770   5.570  10.457 -0.1228  0.2367 -0.5916
  174SAPI   O1219709   1.661   5.757  10.581 -0.2870 -0.5762  0.0985
  174SAPI   O1119710   1.670   5.762  10.344 -0.5030  0.2035  0.1075
  174SAPI    C119711   1.598   5.745  10.225  0.0967  0.3218  0.1443
  174SAPI    HA19712   1.650   5.680  10.151  2.1976  1.2154  0.7356
  174SAPI    HB19713   1.502   5.692  10.242  0.2984  0.1764  0.8310
  174SAPI    C219714   1.576   5.880  10.150  0.3674 -0.0706 -0.2748
  174SAPI    HS19715   1.514   5.860  10.060  2.2450  0.3282 -1.7311
  174SAPI   O2119716   1.690   5.949  10.093  0.7169 -0.2360 -0.0171
  174SAPI   C2119717   1.743   5.879   9.986  0.1002 -0.3800 -0.0533
  174SAPI   O2219718   1.707   5.779   9.938  0.0317  0.2298  0.0709
  174SAPI   C2219719   1.857   5.965   9.927 -1.0136  0.3686 -0.2357
  174SAPI   H2R19720   1.832   6.068   9.896  2.4414  1.4387  0.1798
  174SAPI   H2S19721   1.931   5.989  10.007  0.5873  1.1430 -1.8896
  174SAPI    C319722   1.507   5.976  10.252 -0.1900  0.2628  0.1271
  174SAPI    HX19723   1.581   5.994  10.333  0.9897 -1.1009 -0.5934
  174SAPI    HY19724   1.422   5.921  10.296 -0.5830  1.8435  1.4399
  174SAPI   O3119725   1.459   6.097  10.190 -0.1406  0.1214  0.4166
  174SAPI   C3119726   1.416   6.178  10.291  0.6728 -1.2599  0.0649
  174SAPI   O3219727   1.398   6.148  10.406 -0.5825  0.3446 -0.6206
  174SAPI   C3219728   1.370   6.313  10.234 -0.4215 -0.3410  0.5437
  174SAPI   H2X19729   1.307   6.359  10.313 -0.0295 -0.4470  0.9229
  174SAPI   H2Y19730   1.299   6.300  10.150  0.4137 -0.7377 -0.1205
  174SAPI   C2319731   1.925   5.903   9.806  0.1066 -0.5735 -0.2282
  174SAPI   H3R19732   1.848   5.879   9.730  1.2024 -2.7126 -0.7316
  174SAPI   H3S19733   1.964   5.803   9.836  0.4703  0.3556  2.7101
  174SAPI   C2419734   2.044   5.992   9.764  0.7800  0.0879 -0.3770
  174SAPI   H4R19735   2.111   6.023   9.847 -0.6200  1.0874  0.4161
  174SAPI   H4S19736   2.004   6.082   9.713  1.4333  0.2680 -0.5881
  174SAPI   C2519737   2.135   5.913   9.676 -0.2739  0.1722 -0.0386
  174SAPI   H5R19738   2.183   5.827   9.726  1.0867  1.5951  1.2182
  174SAPI   C2619739   2.159   5.923   9.542 -0.5712  0.3745 -0.7523
  174SAPI   H6R19740   2.244   5.866   9.501  0.2306  0.6684  0.4563
  174SAPI   C2719741   2.105   6.033   9.448  0.4647  0.1417  0.7098
  174SAPI   H7R19742   2.186   6.098   9.409  1.9757  1.3035  5.2082
  174SAPI   H7S19743   2.033   6.109   9.487  0.2984  0.3965 -0.0765
  174SAPI   C2819744   2.044   5.952   9.334  0.0414 -0.1410 -0.4412
  174SAPI   H8R19745   1.960   5.885   9.360  0.1312  0.0814  0.4504
  174SAPI   C2919746   2.072   5.981   9.206  0.5296 -0.1433  0.6505
  174SAPI   H9R19747   2.018   5.928   9.127  1.2449  1.7271 -1.1894
  174SAPI  C21019748   2.171   6.086   9.148  0.3573 -0.6235  0.4457
  174SAPI  H10R19749   2.274   6.059   9.181  1.7017  1.5942 -1.6414
  174SAPI  H10S19750   2.163   6.185   9.198  3.1919 -0.5982  1.0142
  174SAPI  C21119751   2.173   6.095   8.998 -0.1990  0.0079 -0.1248
  174SAPI  H11R19752   2.105   6.174   8.964  3.4796  2.3477 -2.8016
  174SAPI  C21219753   2.247   6.044   8.905 -0.1200 -0.4259  0.2765
  174SAPI  H12R19754   2.252   6.096   8.808 -3.2835  0.3276  0.4018
  174SAPI  C21319755   2.348   5.929   8.932 -0.0764  0.2204 -0.1572
  174SAPI  H13R19756   2.293   5.835   8.912 -0.5298  0.3731  0.3604
  174SAPI  H13S19757   2.375   5.938   9.039  0.8177 -0.6972 -0.2877
  174SAPI  C21419758   2.481   5.950   8.860  0.2927  0.2434  0.3763
  174SAPI  H14R19759   2.569   5.977   8.919 -0.4669 -1.2450  2.3047
  174SAPI  C21519760   2.514   5.917   8.737  0.8948 -0.0651  0.8719
  174SAPI  H15R19761   2.606   5.965   8.699 -0.0815  1.4258  0.3232
  174SAPI  C21619762   2.423   5.874   8.626  0.6053  0.0694  0.4310
  174SAPI  H16R19763   2.319   5.898   8.656  0.4080 -2.3331  1.9881
  174SAPI  H16S19764   2.441   5.764   8.624  1.0526  0.1476 -0.4650
  174SAPI  C21719765   2.446   5.921   8.476  0.4897  0.2027  0.4723
  174SAPI  H17R19766   2.361   5.886   8.413  1.0738  2.1823 -1.5606
  174SAPI  H17S19767   2.537   5.873   8.436  0.8665  0.0332  1.5163
  174SAPI  C21819768   2.450   6.069   8.473 -0.3917  0.2836 -0.1959
  174SAPI  H18R19769   2.553   6.099   8.501 -0.7450  0.7636  0.6256
  174SAPI  H18S19770   2.375   6.110   8.544  0.7630  0.0398  1.2317
  174SAPI  C21919771   2.412   6.117   8.333 -0.0588 -0.6599 -0.0516
  174SAPI  H19R19772   2.471   6.071   8.252 -0.2046 -1.1516  0.1170
  174SAPI  H19S19773   2.441   6.224   8.322  1.1764 -1.2748 -5.5710
  174SAPI  C22019774   2.267   6.105   8.302 -0.2452 -0.1122 -0.4639
  174SAPI  H20R19775   2.208   6.171   8.369  2.6020  0.4572  1.6800
  174SAPI  H20S19776   2.216   6.007   8.314 -0.3670  0.0757  0.7258
  174SAPI  H20T19777   2.253   6.150   8.201  0.3720 -1.2178 -1.0597
  174SAPI   C3319778   1.493   6.411  10.196 -0.1030 -0.6233 -0.3249
  174SAPI   H3X19779   1.575   6.345  10.161  0.2340 -1.2731  1.5845
  174SAPI   H3Y19780   1.530   6.471  10.282 -0.7811  0.3202 -0.6715
  174SAPI   C3419781   1.465   6.521  10.092  0.1832 -0.6432 -0.8206
  174SAPI   H4X19782   1.430   6.618  10.133  0.7270 -0.4851 -0.7153
  174SAPI   H4Y19783   1.391   6.482  10.019 -0.1436  0.8687 -1.3272
  174SAPI   C3519784   1.582   6.553   9.999 -0.2352 -0.1887  0.4220
  174SAPI   H5X19785   1.616   6.454   9.962  1.6476  0.2526  0.8671
  174SAPI   H5Y19786   1.653   6.610  10.063 -1.7649  0.9125  1.2140
  174SAPI   C3619787   1.538   6.643   9.887 -0.0150  0.2833  0.0703
  174SAPI   H6X19788   1.497   6.741   9.919 -2.5891 -1.1054  1.3780
  174SAPI   H6Y19789   1.454   6.593   9.835  1.0361 -1.3505 -0.1197
  174SAPI   C3719790   1.640   6.670   9.777  0.5138 -0.1302  0.9931
  174SAPI   H7X19791   1.689   6.579   9.735  2.1379  0.8777  0.6058
  174SAPI   H7Y19792   1.715   6.746   9.808  1.9775 -1.2614  0.3601
  174SAPI   C3819793   1.563   6.719   9.652 -0.3442 -0.4868 -0.3506
  174SAPI   H8X19794   1.494   6.799   9.686 -3.8793 -2.3578 -2.4989
  174SAPI   H8Y19795   1.484   6.646   9.623 -2.1554  1.7707 -1.3651
  174SAPI   C3919796   1.647   6.774   9.539 -0.4041  0.3015  0.0709
  174SAPI   H9X19797   1.719   6.690   9.531 -0.3573  0.2587  0.9086
  174SAPI   H9Y19798   1.709   6.858   9.579  1.3233 -0.6614 -0.4664
  174SAPI  C31019799   1.581   6.802   9.402 -0.7728 -0.3820  0.1693
  174SAPI  H10X19800   1.503   6.880   9.419 -0.8955 -0.9771  2.6067
  174SAPI  H10Y19801   1.533   6.705   9.376 -0.2826 -1.0490  1.6631
  174SAPI  C31119802   1.698   6.845   9.306  0.0627  0.3995  0.3830
  174SAPI  H11X19803   1.772   6.761   9.304 -0.6459 -0.2783  1.5609
  174SAPI  H11Y19804   1.756   6.929   9.351 -2.4689  2.9983 -0.9114
  174SAPI  C31219805   1.633   6.881   9.169  0.2033 -0.1886  0.0353
  174SAPI  H12X19806   1.591   6.983   9.170 -0.2503 -0.3706  1.2462
  174SAPI  H12Y19807   1.561   6.799   9.147  0.4222 -0.2620 -0.4179
  174SAPI  C31319808   1.737   6.869   9.047  0.1010 -0.4359  0.0893
  174SAPI  H13X19809   1.774   6.766   9.033  0.4785 -0.2392 -0.3508
  174SAPI  H13Y19810   1.820   6.938   9.075  1.2317 -1.8534  0.3246
  174SAPI  C31419811   1.676   6.921   8.913 -0.3011 -0.5681 -0.5929
  174SAPI  H14X19812   1.643   7.021   8.945  0.0845 -1.1259  1.6921
  174SAPI  H14Y19813   1.592   6.862   8.870  0.0078 -0.8233 -0.8539
  174SAPI  C31519814   1.779   6.943   8.797 -0.3491  0.1694 -0.3395
  174SAPI  H15X19815   1.823   6.849   8.758 -1.5308 -0.5878  0.1152
  174SAPI  H15Y19816   1.867   7.004   8.826  0.5516 -1.8881  1.5298
  174SAPI  C31619817   1.723   7.014   8.670  0.0331  0.1399  0.2787
  174SAPI  H16X19818   1.807   7.034   8.600 -0.4138  1.3681  0.0785
  174SAPI  H16Y19819   1.687   7.112   8.706  0.2354  0.7803 -1.1896
  174SAPI  C31719820   1.615   6.935   8.594  0.2134 -0.2682 -0.1958
  174SAPI  H17X19821   1.540   6.997   8.540 -2.0063 -0.2307  2.6803
  174SAPI  H17Y19822   1.541   6.887   8.662  0.2010 -3.3139 -2.1775
  174SAPI  C31819823   1.663   6.828   8.498 -0.9696 -0.2727 -0.6522
  174SAPI  H18X19824   1.722   6.856   8.407  0.8704 -3.5288 -0.6322
  174SAPI  H18Y19825   1.580   6.763   8.462 -1.4935  0.5214 -0.8896
  174SAPI  H18Z19826   1.730   6.764   8.560 -0.5750  2.2895  1.7698
  175SAPI   C1219827   3.813   0.542   6.361 -0.1893 -0.0778  0.5177
  175SAPI    H219828   3.822   0.531   6.471 -1.1589 -3.3023  0.3934
  175SAPI    O219829   3.789   0.676   6.316  0.6995  0.0364 -0.2350
  175SAPI   HO219830   3.694   0.676   6.304  0.6136 -2.0560  0.1333
  175SAPI   C1319831   3.941   0.493   6.306 -0.5167  0.5081 -0.2144
  175SAPI    H319832   3.953   0.387   6.336  0.6468  0.1923 -1.6717
  175SAPI    O319833   4.059   0.562   6.354 -0.2431  0.1069 -0.1593
  175SAPI   HO319834   4.043   0.656   6.348 -1.7617 -0.0488  0.8654
  175SAPI   C1419835   3.928   0.485   6.149 -1.3723  0.7539 -0.0540
  175SAPI    H419836   3.929   0.590   6.113 -0.1014  1.2335  1.2470
  175SAPI    O419837   4.049   0.425   6.096  0.2409  0.1890 -0.1771
  175SAPI   HO419838   4.054   0.341   6.142  1.3889 -0.2097 -0.9811
  175SAPI   C1519839   3.801   0.421   6.093  0.6006 -0.3602  0.3627
  175SAPI    H519840   3.828   0.313   6.087  1.0469 -0.2966  1.1269
  175SAPI    O519841   3.775   0.461   5.958  0.1536  0.2245  0.3042
  175SAPI   HO519842   3.796   0.394   5.893 -1.4796  2.0469 -2.2744
  175SAPI   C1619843   3.677   0.434   6.181 -0.1455 -0.3462  0.3778
  175SAPI    H619844   3.616   0.517   6.140 -1.7938 -0.7037  1.9350
  175SAPI    O619845   3.602   0.313   6.151  0.1112 -0.2632  0.1072
  175SAPI   HO619846   3.508   0.327   6.143 -0.0574 -0.9991  0.7651
  175SAPI   C1119847   3.702   0.453   6.328 -0.3572 -0.2872 -0.3871
  175SAPI    H119848   3.737   0.352   6.358 -0.4219 -0.3825 -0.6312
  175SAPI     P19849   3.463   0.402   6.433 -0.1024 -0.1517  0.5980
  175SAPI   O1319850   3.516   0.265   6.447  0.5151 -0.0744 -0.0508
  175SAPI   O1419851   3.360   0.418   6.334  0.7856 -0.9570  0.2424
  175SAPI   O1219852   3.587   0.501   6.402 -0.1223 -0.3549 -0.0625
  175SAPI   O1119853   3.411   0.441   6.579 -0.1103 -0.5506  0.0142
  175SAPI    C119854   3.394   0.578   6.621 -0.2968  0.3522 -0.2568
  175SAPI    HA19855   3.414   0.652   6.540 -0.3124  0.8093  0.1564
  175SAPI    HB19856   3.289   0.587   6.655 -0.7028 -2.5901 -0.4003
  175SAPI    C219857   3.476   0.617   6.751 -0.4118 -0.2959  0.6008
  175SAPI    HS19858   3.471   0.544   6.834 -0.3046  0.0390  0.9056
  175SAPI   O2119859   3.438   0.754   6.789  0.5387  0.2625  0.2746
  175SAPI   C2119860   3.425   0.773   6.920  0.2712 -0.0437  0.2505
  175SAPI   O2219861   3.426   0.685   7.004  0.0778  0.1302  0.0871
  175SAPI   C2219862   3.394   0.924   6.946  0.3828 -0.0145  0.3004
  175SAPI   H2R19863   3.487   0.972   6.910 -0.0274 -1.4596 -3.0720
  175SAPI   H2S19864   3.303   0.959   6.892  1.9291  0.9063 -1.8425
  175SAPI    C319865   3.631   0.622   6.721 -0.4037 -0.1679 -0.3677
  175SAPI    HX19866   3.648   0.705   6.649 -0.9381  0.9255  0.7126
  175SAPI    HY19867   3.670   0.528   6.678  0.2942 -0.5259  0.9900
  175SAPI   O3119868   3.700   0.645   6.841 -0.7435 -0.2029  0.3029
  175SAPI   C3119869   3.734   0.770   6.864  0.5288  0.3547  0.5547
  175SAPI   O3219870   3.731   0.859   6.784  0.2489 -0.0682  0.7977
  175SAPI   C3219871   3.766   0.778   7.008 -0.3283 -1.1220 -0.4043
  175SAPI   H2X19872   3.869   0.739   7.023  1.0144  1.4285 -2.1775
  175SAPI   H2Y19873   3.688   0.733   7.072  0.0526  2.9352  3.3731
  175SAPI   C2319874   3.369   0.947   7.092  0.5885  0.3252 -0.2026
  175SAPI   H3R19875   3.445   0.910   7.165 -0.3741 -1.0316  0.1558
  175SAPI   H3S19876   3.273   0.898   7.120  0.6203  0.8150  0.7942
  175SAPI   C2419877   3.331   1.096   7.123 -0.1039  0.3614 -0.0470
  175SAPI   H4R19878   3.285   1.098   7.224  1.9865 -1.3618  1.0170
  175SAPI   H4S19879   3.254   1.123   7.047  0.3144  1.7176 -0.0136
  175SAPI   C2519880   3.446   1.191   7.111  0.0125  0.9214  0.4780
  175SAPI   H5R19881   3.453   1.224   7.006 -2.0095  2.6067  0.8189
  175SAPI   C2619882   3.546   1.212   7.201  0.5894 -0.0021  0.6319
  175SAPI   H6R19883   3.635   1.267   7.168  1.3225 -0.1575  2.2453
  175SAPI   C2719884   3.542   1.161   7.347 -1.1610 -1.3612  0.2495
  175SAPI   H7R19885   3.644   1.161   7.390 -2.0033 -2.4275  2.3933
  175SAPI   H7S19886   3.517   1.053   7.351  0.3019 -1.6837  3.3611
  175SAPI   C2819887   3.443   1.238   7.428 -0.3971  0.4553 -0.3893
  175SAPI   H8R19888   3.462   1.345   7.446 -0.1316  0.0754  1.9761
  175SAPI   C2919889   3.341   1.185   7.508  0.3015 -0.2104  0.4419
  175SAPI   H9R19890   3.283   1.258   7.566  0.3168  0.8156 -0.7848
  175SAPI  C21019891   3.295   1.046   7.525 -0.2326  0.3999  0.2553
  175SAPI  H10R19892   3.308   0.981   7.436  2.0592  0.1623  0.6986
  175SAPI  H10S19893   3.187   1.035   7.548 -0.2494  0.6643  0.3128
  175SAPI  C21119894   3.372   0.983   7.644  0.4103 -0.4197  0.1509
  175SAPI  H11R19895   3.464   0.928   7.619  1.2879  1.3111 -0.6556
  175SAPI  C21219896   3.329   0.984   7.767 -0.0986 -0.4033 -0.8650
  175SAPI  H12R19897   3.387   0.930   7.843  0.5214  1.9710  0.4396
  175SAPI  C21319898   3.211   1.062   7.822 -0.0544 -0.3285 -1.0793
  175SAPI  H13R19899   3.167   1.133   7.748 -0.6214 -0.6462 -1.0518
  175SAPI  H13S19900   3.244   1.136   7.897  1.2398 -0.6479 -1.3171
  175SAPI  C21419901   3.100   0.968   7.862  0.8648 -0.0132  0.4884
  175SAPI  H14R19902   3.041   0.922   7.781  0.5147  1.0488  0.1151
  175SAPI  C21519903   3.073   0.929   7.987 -0.4417  0.0887 -0.2672
  175SAPI  H15R19904   2.991   0.857   8.000 -0.4040  0.1307  0.1989
  175SAPI  C21619905   3.148   0.989   8.111  0.5030 -0.0482 -0.1598
  175SAPI  H16R19906   3.097   1.082   8.145  0.1531  0.6206 -2.3552
  175SAPI  H16S19907   3.248   1.018   8.074 -0.6488  3.3875 -0.9571
  175SAPI  C21719908   3.160   0.906   8.241  0.1326 -0.8487 -0.1033
  175SAPI  H17R19909   3.218   0.815   8.216 -1.6190 -1.9910 -0.1763
  175SAPI  H17S19910   3.059   0.878   8.278 -0.4072  1.9779  0.8198
  175SAPI  C21819911   3.227   0.988   8.345  0.0979 -0.0345  0.4435
  175SAPI  H18R19912   3.147   1.059   8.374 -0.8761 -1.9490  2.8441
  175SAPI  H18S19913   3.311   1.047   8.304 -0.4968  0.0911 -0.6346
  175SAPI  C21919914   3.271   0.908   8.472 -0.6590  0.5916  0.0950
  175SAPI  H19R19915   3.194   0.838   8.510 -2.8944  3.1376  0.5339
  175SAPI  H19S19916   3.267   0.987   8.550 -2.5234  0.4472  0.1764
  175SAPI  C22019917   3.405   0.832   8.476  0.2593 -0.1023  0.0145
  175SAPI  H20R19918   3.408   0.757   8.558  0.2530  0.1715  0.2698
  175SAPI  H20S19919   3.493   0.900   8.483  0.0834 -0.0113  1.9837
  175SAPI  H20T19920   3.400   0.779   8.379 -0.4587  1.3179 -0.7644
  175SAPI   C3319921   3.754   0.924   7.070 -0.2029 -0.2592  0.5550
  175SAPI   H3X19922   3.650   0.960   7.083 -0.1269  0.3579 -0.3907
  175SAPI   H3Y19923   3.793   0.999   6.998 -0.7023  1.1132  1.6740
  175SAPI   C3419924   3.813   0.944   7.206  0.0631  0.3380 -0.3673
  175SAPI   H4X19925   3.783   1.049   7.226 -0.9359  0.4782 -2.3670
  175SAPI   H4Y19926   3.923   0.929   7.202 -0.1479 -1.7682  0.2679
  175SAPI   C3519927   3.748   0.849   7.308  0.2655  0.2190 -0.3417
  175SAPI   H5X19928   3.774   0.744   7.283  1.6186  0.4605 -0.0300
  175SAPI   H5Y19929   3.639   0.861   7.294  0.1493  0.3328  0.6147
  175SAPI   C3619930   3.790   0.894   7.450  0.2048 -0.1791  0.0830
  175SAPI   H6X19931   3.776   1.004   7.460 -2.7659 -0.3038 -1.5698
  175SAPI   H6Y19932   3.898   0.873   7.468 -0.3418 -1.5476  2.0811
  175SAPI   C3719933   3.699   0.829   7.555 -0.0959 -0.6796 -0.2552
  175SAPI   H7X19934   3.740   0.728   7.579  0.4080  0.0525  2.3456
  175SAPI   H7Y19935   3.599   0.822   7.509  0.0770 -2.9315 -0.3824
  175SAPI   C3819936   3.702   0.887   7.696  0.3587  0.0717  0.4541
  175SAPI   H8X19937   3.618   0.846   7.757 -1.1799  3.1337  0.6059
  175SAPI   H8Y19938   3.676   0.995   7.696 -0.4084 -0.0241 -2.6514
  175SAPI   C3919939   3.833   0.871   7.777 -0.2620 -0.0132 -0.7109
  175SAPI   H9X19940   3.922   0.915   7.728  1.0964 -0.7104  1.0383
  175SAPI   H9Y19941   3.844   0.762   7.797 -1.4926  0.3544  2.6407
  175SAPI  C31019942   3.817   0.949   7.911  0.3985 -0.0984  0.3438
  175SAPI  H10X19943   3.806   1.057   7.885  1.4847  0.0051  0.2720
  175SAPI  H10Y19944   3.907   0.953   7.976  0.3160 -0.3533  0.4770
  175SAPI  C31119945   3.703   0.919   8.008 -0.9731  0.2495 -0.4069
  175SAPI  H11X19946   3.704   0.808   8.013  0.7430  0.2955  2.0392
  175SAPI  H11Y19947   3.609   0.955   7.960 -0.8014  1.7831  0.3646
  175SAPI  C31219948   3.708   0.980   8.153 -1.1959  0.2208  0.6040
  175SAPI  H12X19949   3.786   1.059   8.157 -0.0293 -0.7966 -0.8909
  175SAPI  H12Y19950   3.742   0.900   8.222  1.2636  0.2786 -0.4383
  175SAPI  C31319951   3.575   1.047   8.189  0.6651  0.2773 -0.2950
  175SAPI  H13X19952   3.559   1.051   8.299  1.1567 -1.7206 -0.1098
  175SAPI  H13Y19953   3.488   0.990   8.150  0.9380  0.2915 -0.9278
  175SAPI  C31419954   3.570   1.189   8.143 -0.3105 -0.2906  0.3564
  175SAPI  H14X19955   3.663   1.228   8.189 -0.6662  0.3778  0.5208
  175SAPI  H14Y19956   3.490   1.237   8.203 -1.9632 -0.6184 -1.4775
  175SAPI  C31519957   3.549   1.226   7.996  0.3645 -0.8499 -0.4736
  175SAPI  H15X19958   3.476   1.169   7.935 -0.9220  0.3311 -0.0800
  175SAPI  H15Y19959   3.638   1.195   7.937 -0.6522 -0.7722 -2.1094
  175SAPI  C31619960   3.517   1.372   7.973  0.1616 -0.0024  0.7004
  175SAPI  H16X19961   3.600   1.436   8.009  0.1869  1.2087 -1.4085
  175SAPI  H16Y19962   3.423   1.389   8.030 -1.2299 -0.8726 -1.2165
  175SAPI  C31719963   3.487   1.410   7.826 -0.2645  0.5116  0.7566
  175SAPI  H17X19964   3.413   1.342   7.778 -0.3851  0.6742  0.7085
  175SAPI  H17Y19965   3.582   1.411   7.769  0.1687  0.5143  1.4748
  175SAPI  C31819966   3.436   1.550   7.824 -0.5082  0.4135 -0.2840
  175SAPI  H18X19967   3.415   1.580   7.720 -0.4358  1.3216 -0.0410
  175SAPI  H18Y19968   3.513   1.617   7.868 -0.1361 -0.5686  0.6341
  175SAPI  H18Z19969   3.345   1.554   7.888 -0.7185  2.5776 -0.6709
  176SAPI   C1219970   1.849   6.677   6.199 -0.4254  0.4214  0.4539
  176SAPI    H219971   1.847   6.771   6.258 -1.3035 -0.8520  2.5604
  176SAPI    O219972   1.974   6.673   6.124  0.1541 -0.2014  0.8272
  176SAPI   HO219973   2.048   6.660   6.183 -1.5579  1.7945  3.6875
  176SAPI   C1319974   1.849   6.567   6.301  0.0591  0.3336  0.5390
  176SAPI    H319975   1.751   6.572   6.354 -0.3982 -0.3127 -0.2209
  176SAPI    O319976   1.952   6.574   6.398 -0.0009  0.3511  0.6929
  176SAPI   HO319977   2.036   6.561   6.352 -0.4776 -0.7032  0.0665
  176SAPI   C1419978   1.835   6.430   6.225  0.1746 -0.3407 -0.8845
  176SAPI    H419979   1.938   6.402   6.196  0.7831  1.6327 -0.7476
  176SAPI    O419980   1.781   6.328   6.312  0.3422  0.1994 -0.5262
  176SAPI   HO419981   1.834   6.248   6.307  1.6653  1.0000  0.1469
  176SAPI   C1519982   1.774   6.426   6.081 -0.4908  0.0425 -0.1267
  176SAPI    H519983   1.676   6.374   6.094 -0.0288 -0.9403 -0.4813
  176SAPI    O519984   1.854   6.338   5.992 -0.2310 -0.1930 -0.8736
  176SAPI   HO519985   1.828   6.248   6.011 -0.7799  0.1607  0.0714
  176SAPI   C1619986   1.740   6.553   6.010 -0.0366  0.0963  0.2302
  176SAPI    H619987   1.830   6.573   5.948  1.2436 -0.0192  1.9644
  176SAPI    O619988   1.624   6.544   5.925 -0.2440  0.1188 -0.6709
  176SAPI   HO619989   1.579   6.629   5.927  0.1993  0.3379  0.8834
  176SAPI   C1119990   1.729   6.672   6.103  0.5120 -0.4038 -0.4130
  176SAPI    H119991   1.629   6.671   6.153  0.1447  0.3888 -1.1047
  176SAPI     P19992   1.619   6.904   6.018 -0.4563 -0.1100  0.0695
  176SAPI   O1319993   1.503   6.854   5.946 -0.1885  0.5778  0.3420
  176SAPI   O1419994   1.670   7.035   5.967 -0.0505 -0.1470  0.0814
  176SAPI   O1219995   1.731   6.789   6.019  0.6648 -0.3016  0.0280
  176SAPI   O1119996   1.578   6.915   6.176  0.0653  0.2334  0.3489
  176SAPI    C119997   1.651   7.012   6.257  0.1495 -0.3516  0.7048
  176SAPI    HA19998   1.758   6.985   6.271  0.1125 -1.0099 -0.2378
  176SAPI    HB19999   1.652   7.113   6.210  1.4320 -1.3625 -1.5823
  176SAPI    C220000   1.566   7.017   6.398  0.4173 -0.5273  1.2505
  176SAPI    HS20001   1.611   7.103   6.452 -1.3101  1.8685 -0.8414
  176SAPI   O2120002   1.579   6.896   6.467  0.2792 -0.6094 -0.1258
  176SAPI   C2120003   1.699   6.869   6.522  0.0626 -0.0321  0.3969
  176SAPI   O2220004   1.805   6.927   6.506 -0.0210  0.1373 -0.1898
  176SAPI   C2220005   1.693   6.730   6.588  0.1439 -0.4800 -0.2197
  176SAPI   H2R20006   1.601   6.682   6.548 -2.0253  1.4782  2.0799
  176SAPI   H2S20007   1.788   6.683   6.555  0.8677  0.0399  1.0562
  176SAPI    C320008   1.413   7.033   6.379 -0.9468  0.5263  0.3305
  176SAPI    HX20009   1.392   6.935   6.331  0.3761 -0.1807  1.1157
  176SAPI    HY20010   1.401   7.117   6.307  0.7889  0.1535 -0.4464
  176SAPI   O3120011   1.350   7.047   6.505  0.0450 -0.8462  0.0855
  176SAPI   C3120012   1.295   7.173   6.536 -0.4508  0.0727  0.4456
  176SAPI   O3220013   1.357   7.275   6.499 -0.0719  0.4863  0.4325
  176SAPI   C3220014   1.167   7.164   6.621 -0.2843 -0.0343  0.9330
  176SAPI   H2X20015   1.141   7.060   6.651 -1.6152  0.3798  1.2904
  176SAPI   H2Y20016   1.082   7.187   6.553 -1.4580 -2.2705  1.5070
  176SAPI   C2320017   1.683   6.748   6.740 -0.5418 -0.1936 -0.0517
  176SAPI   H3R20018   1.580   6.774   6.773 -0.4816 -0.0226 -0.0012
  176SAPI   H3S20019   1.744   6.834   6.773  1.4470 -0.7114 -2.1417
  176SAPI   C2420020   1.727   6.619   6.813 -0.3764 -0.7263  0.2146
  176SAPI   H4R20021   1.708   6.544   6.733  3.2991  0.1575 -1.6899
  176SAPI   H4S20022   1.672   6.616   6.909 -0.6236  0.0654  0.1085
  176SAPI   C2520023   1.875   6.620   6.836 -0.0774  0.0424  0.5335
  176SAPI   H5R20024   1.937   6.632   6.746 -2.0565  2.7896 -0.6115
  176SAPI   C2620025   1.940   6.625   6.954  0.7130 -0.2806  0.5950
  176SAPI   H6R20026   2.049   6.638   6.957  0.7666 -0.6538  0.2718
  176SAPI   C2720027   1.879   6.623   7.090 -0.1242  0.0516 -0.5574
  176SAPI   H7R20028   1.831   6.523   7.093 -2.3457  0.9735 -2.2298
  176SAPI   H7S20029   1.792   6.691   7.101 -0.6317 -0.6789  0.1089
  176SAPI   C2820030   1.975   6.657   7.200  1.1293 -0.0132 -0.4916
  176SAPI   H8R20031   2.051   6.735   7.182 -0.5989  1.4294 -1.9941
  176SAPI   C2920032   1.948   6.615   7.324  0.3511  0.8507 -0.1322
  176SAPI   H9R20033   2.019   6.656   7.397 -0.3345  1.0209  0.4472
  176SAPI  C21020034   1.832   6.524   7.366 -0.6370 -0.3546  0.0953
  176SAPI  H10R20035   1.863   6.417   7.359  1.7220  0.3399 -0.8209
  176SAPI  H10S20036   1.755   6.538   7.287 -0.6942  1.8365  0.4944
  176SAPI  C21120037   1.790   6.569   7.504 -0.0769  0.2978  0.3198
  176SAPI  H11R20038   1.783   6.679   7.513  1.3166  0.4514 -0.1760
  176SAPI  C21220039   1.758   6.484   7.605 -0.0542  0.4688 -0.7996
  176SAPI  H12R20040   1.728   6.524   7.703 -1.8289 -3.0219  0.2596
  176SAPI  C21320041   1.756   6.333   7.611  0.5378  0.3821  0.7357
  176SAPI  H13R20042   1.858   6.289   7.615  0.3684 -0.1940 -0.6647
  176SAPI  H13S20043   1.728   6.300   7.509 -2.2311 -0.9687  1.8355
  176SAPI  C21420044   1.659   6.277   7.717  1.2453 -0.3306  0.4502
  176SAPI  H14R20045   1.557   6.268   7.676  2.0203  1.5863 -2.1777
  176SAPI  C21520046   1.688   6.222   7.840  0.4443  0.2264 -0.4057
  176SAPI  H15R20047   1.615   6.175   7.906 -0.8237  1.4687 -0.8753
  176SAPI  C21620048   1.833   6.222   7.892  0.4673 -0.0494 -0.4436
  176SAPI  H16R20049   1.912   6.192   7.821  1.7336  1.4208  0.2787
  176SAPI  H16S20050   1.844   6.152   7.978  1.0045  1.1447  0.5019
  176SAPI  C21720051   1.857   6.356   7.954  0.3809 -0.2568  0.2882
  176SAPI  H17R20052   1.814   6.429   7.881  0.0258 -0.8549 -0.1121
  176SAPI  H17S20053   1.962   6.380   7.978 -0.4999  1.1461  3.1743
  176SAPI  C21820054   1.783   6.382   8.084 -0.0530  0.1552 -0.1254
  176SAPI  H18R20055   1.823   6.320   8.167 -0.7108  1.2432  1.0257
  176SAPI  H18S20056   1.675   6.361   8.076 -0.1115  0.4364 -0.0600
  176SAPI  C21920057   1.811   6.523   8.136 -0.5516 -0.0098 -0.5308
  176SAPI  H19R20058   1.786   6.593   8.053 -1.3921  0.2632 -0.0519
  176SAPI  H19S20059   1.920   6.534   8.155 -0.1277  1.7115 -3.3399
  176SAPI  C22020060   1.735   6.548   8.263  0.5171  0.2236  0.1432
  176SAPI  H20R20061   1.629   6.540   8.230  0.3266 -1.9477  1.0976
  176SAPI  H20S20062   1.751   6.653   8.293  1.1375  0.1042  0.2507
  176SAPI  H20T20063   1.762   6.474   8.342  1.7593 -0.1201 -0.5661
  176SAPI   C3320064   1.174   7.262   6.743  0.8221 -0.0277  0.3421
  176SAPI   H3X20065   1.079   7.286   6.795  1.7118  1.2050  1.4628
  176SAPI   H3Y20066   1.212   7.356   6.697  1.7755 -1.1218 -1.1973
  176SAPI   C3420067   1.275   7.213   6.848  0.8092 -0.2554 -0.9754
  176SAPI   H4X20068   1.371   7.178   6.804  1.3507 -0.0073 -0.0106
  176SAPI   H4Y20069   1.239   7.131   6.913  0.0128  0.5927 -0.3106
  176SAPI   C3520070   1.307   7.330   6.953 -0.2057  0.1002  0.0284
  176SAPI   H5X20071   1.320   7.425   6.897 -0.8596  0.3448  0.2854
  176SAPI   H5Y20072   1.404   7.323   7.007  0.1683  2.1581 -0.3030
  176SAPI   C3620073   1.198   7.349   7.059  0.3944 -0.2443  0.6432
  176SAPI   H6X20074   1.101   7.307   7.024  0.1795 -2.3261  3.3937
  176SAPI   H6Y20075   1.189   7.458   7.081  1.0719 -0.2428  0.9229
  176SAPI   C3720076   1.229   7.270   7.187 -0.2580 -0.7791 -0.2385
  176SAPI   H7X20077   1.277   7.173   7.160 -1.0712 -1.3963  0.4905
  176SAPI   H7Y20078   1.142   7.236   7.247  0.2326 -2.3354 -0.3609
  176SAPI   C3820079   1.320   7.358   7.272  1.0344 -0.4664 -0.2868
  176SAPI   H8X20080   1.288   7.458   7.306  2.1378 -0.6360  1.3926
  176SAPI   H8Y20081   1.424   7.372   7.233  0.5925  3.6468 -0.4351
  176SAPI   C3920082   1.339   7.286   7.413 -0.4525  1.0410 -0.1672
  176SAPI   H9X20083   1.381   7.185   7.393 -1.2771  0.5193  0.6583
  176SAPI   H9Y20084   1.251   7.262   7.477  0.6379 -2.1185  0.3074
  176SAPI  C31020085   1.445   7.361   7.500 -0.1884 -0.0727  0.1659
  176SAPI  H10X20086   1.520   7.414   7.437  0.4884  0.4170  1.3529
  176SAPI  H10Y20087   1.514   7.286   7.544  0.7622  1.9217  2.3087
  176SAPI  C31120088   1.378   7.465   7.595  0.1570  0.2015  0.0990
  176SAPI  H11X20089   1.296   7.499   7.530  0.5061  1.7838  0.4365
  176SAPI  H11Y20090   1.458   7.537   7.625  0.8390 -0.7928  0.7432
  176SAPI  C31220091   1.310   7.406   7.717  1.4050  0.5597  0.1610
  176SAPI  H12X20092   1.233   7.332   7.687  1.5483  0.6218 -0.3844
  176SAPI  H12Y20093   1.251   7.482   7.772 -0.1088 -1.1268  0.9873
  176SAPI  C31320094   1.407   7.345   7.826  0.2195  0.3319  0.4845
  176SAPI  H13X20095   1.487   7.277   7.791  1.0695  2.1464 -1.2890
  176SAPI  H13Y20096   1.344   7.277   7.888 -1.8260  1.7986  0.1307
  176SAPI  C31420097   1.462   7.449   7.922 -0.6408 -0.1027 -1.1265
  176SAPI  H14X20098   1.376   7.509   7.960  0.4170 -0.1960  1.6331
  176SAPI  H14Y20099   1.532   7.521   7.874 -0.5128  0.7492  0.2685
  176SAPI  C31520100   1.534   7.398   8.044  0.1878  0.1949 -0.1429
  176SAPI  H15X20101   1.630   7.346   8.022  0.5865  1.1464 -0.7093
  176SAPI  H15Y20102   1.469   7.334   8.106  0.3866  1.0851  1.0105
  176SAPI  C31620103   1.566   7.513   8.141 -0.2123 -0.5993  0.3369
  176SAPI  H16X20104   1.475   7.575   8.157  0.5106  0.3132  1.0070
  176SAPI  H16Y20105   1.639   7.575   8.086 -1.8342  2.2746  1.2243
  176SAPI  C31720106   1.624   7.479   8.278 -0.4974 -0.0956  0.9501
  176SAPI  H17X20107   1.660   7.569   8.332  0.9343  1.2759 -2.0721
  176SAPI  H17Y20108   1.717   7.423   8.255 -2.3079 -2.2081 -1.8782
  176SAPI  C31820109   1.531   7.387   8.360  0.1068 -0.6274  0.6372
  176SAPI  H18X20110   1.452   7.460   8.388  0.5847  1.3774 -2.6007
  176SAPI  H18Y20111   1.567   7.358   8.461  0.8325  1.3243  0.9907
  176SAPI  H18Z20112   1.495   7.301   8.300 -1.8953  0.7661 -0.2750
  177SLPC     N20113   2.502   0.164  10.541  0.9067  0.0652 -0.1443
  177SLPC   C1320114   2.557   0.092  10.662 -0.2515  0.2967 -0.0280
  177SLPC  H13A20115   2.556  -0.012  10.637  0.7120  0.1409  0.5155
  177SLPC  H13B20116   2.655   0.124  10.694  0.5977 -2.0311 -0.1629
  177SLPC  H13C20117   2.492   0.107  10.747 -2.3689  2.5963 -1.8877
  177SLPC   C1420118   2.389   0.085  10.497 -0.2600  0.2148  0.0969
  177SLPC  H14A20119   2.334   0.132  10.417 -1.8645 -0.3975  0.8002
  177SLPC  H14B20120   2.428  -0.006  10.454 -3.5504 -0.7788 -1.0820
  177SLPC  H14C20121   2.318   0.065  10.576 -2.5922  4.1204 -0.7468
  177SLPC   C1520122   2.609   0.166  10.436  0.2556 -0.0606  0.1974
  177SLPC  H15A20123   2.702   0.211  10.465  0.3789  0.4861 -0.9896
  177SLPC  H15B20124   2.649   0.068  10.414 -0.8427 -0.9815  2.0424
  177SLPC  H15C20125   2.565   0.208  10.346 -0.5791 -0.8449  0.2173
  177SLPC   C1220126   2.447   0.299  10.579 -0.2175 -0.0915  0.5808
  177SLPC  H12A20127   2.527   0.363  10.613 -0.6464  0.8659 -0.1862
  177SLPC  H12B20128   2.382   0.289  10.664 -0.5093  1.4514  0.5661
  177SLPC   C1120129   2.361   0.371  10.471  0.6729 -0.6517  0.2395
  177SLPC  H11A20130   2.409   0.358  10.372 -2.5876  0.4981 -1.6546
  177SLPC  H11B20131   2.369   0.477  10.504 -0.0884 -0.6939  0.5841
  177SLPC     P20132   2.109   0.362  10.573 -0.3555  0.1597  0.2354
  177SLPC   O1320133   2.025   0.241  10.607 -0.6729 -0.1226 -0.0446
  177SLPC   O1420134   2.167   0.434  10.687  0.5808 -0.1642  0.2765
  177SLPC   O1220135   2.221   0.334  10.465  0.0319  0.5196 -0.4003
  177SLPC   O1120136   2.021   0.451  10.483 -0.6971  0.4001 -0.1140
  177SLPC    C120137   2.074   0.543  10.383 -0.5567 -0.1447 -0.1675
  177SLPC    HA20138   2.163   0.598  10.423  0.0123 -0.8755 -0.4115
  177SLPC    HB20139   2.114   0.483  10.299 -1.7773 -1.7344  0.3409
  177SLPC    C220140   1.978   0.651  10.323 -0.2273 -0.0652  0.6755
  177SLPC    HS20141   1.936   0.689  10.418 -1.0772 -2.2214  1.2262
  177SLPC   O2120142   1.872   0.586  10.249 -0.4995 -0.4173 -0.2488
  177SLPC   C2120143   1.768   0.669  10.224  0.3099 -0.4862 -0.6191
  177SLPC   O2220144   1.758   0.779  10.273 -0.4523 -0.8124 -0.1080
  177SLPC   C2220145   1.666   0.607  10.140  0.6788 -0.5303  0.1274
  177SLPC   H2R20146   1.694   0.588  10.034  0.8982 -1.2276  0.3093
  177SLPC   H2S20147   1.642   0.509  10.187  2.1006 -1.6040 -1.2959
  177SLPC    C320148   2.057   0.752  10.233  0.4286 -0.7883 -0.0082
  177SLPC    HX20149   2.129   0.802  10.301  1.5414 -2.7512  0.3445
  177SLPC    HY20150   1.986   0.828  10.194  1.0328  0.2529  0.8857
  177SLPC   O3120151   2.139   0.689  10.130  0.4649 -0.0061  0.2514
  177SLPC   C3120152   2.072   0.669  10.019 -0.8698 -0.2007 -0.0308
  177SLPC   O3220153   1.964   0.718   9.993 -0.1524 -0.0880 -0.8712
  177SLPC   C3220154   2.154   0.580   9.921  0.7241 -0.1229  0.2414
  177SLPC   H2X20155   2.086   0.508   9.870  0.1846  0.0614  0.6774
  177SLPC   H2Y20156   2.230   0.515   9.970  1.0591 -1.8887 -2.4391
  177SLPC   C2320157   1.537   0.690  10.145  0.1051 -0.0020 -0.3018
  177SLPC   H3R20158   1.567   0.794  10.122 -0.8495  0.2773 -0.3317
  177SLPC   H3S20159   1.494   0.700  10.248 -0.2852  1.0506 -0.5581
  177SLPC   C2420160   1.430   0.635  10.056  0.0713 -0.0294 -0.5143
  177SLPC   H4R20161   1.407   0.531  10.087 -0.7745  0.6597  1.2706
  177SLPC   H4S20162   1.472   0.626   9.953 -1.5363  2.0309 -1.4237
  177SLPC   C2520163   1.302   0.717  10.048  0.3483 -0.4349 -0.8931
  177SLPC   H5R20164   1.324   0.823  10.025 -2.1045  0.1316 -0.8598
  177SLPC   H5S20165   1.254   0.710  10.148  0.5863  0.2336 -0.7253
  177SLPC   C2620166   1.200   0.672   9.944  0.3355  0.0027 -0.0147
  177SLPC   H6R20167   1.140   0.766   9.942  1.2473  0.5966 -0.9560
  177SLPC   H6S20168   1.143   0.587   9.985 -2.2220  2.2927  1.5282
  177SLPC   C2720169   1.258   0.632   9.803 -0.0078  0.3570 -0.9024
  177SLPC   H7R20170   1.331   0.549   9.808  1.2586  1.4931  0.6410
  177SLPC   H7S20171   1.297   0.728   9.762 -1.2303  1.5574  0.6151
  177SLPC   C2820172   1.157   0.580   9.701 -0.3777 -0.8843  0.5771
  177SLPC   H8R20173   1.102   0.502   9.757 -1.0025 -0.0576  1.1385
  177SLPC   H8S20174   1.217   0.534   9.619  0.5950  2.4866 -0.7673
  177SLPC   C2920175   1.071   0.685   9.633 -0.4980  0.0744  0.0772
  177SLPC   H9R20176   1.018   0.749   9.704 -0.9197 -0.3364  0.1351
  177SLPC  C21020177   1.079   0.722   9.506  0.0332  0.4535  0.4276
  177SLPC  H10R20178   1.023   0.811   9.472 -0.8899 -0.3886 -0.3013
  177SLPC  C21120179   1.157   0.659   9.392  0.1058  0.0272  0.5382
  177SLPC  H11R20180   1.186   0.554   9.411 -0.2535 -0.4005 -1.1528
  177SLPC  H11S20181   1.093   0.655   9.301  0.0513 -3.3714  0.6196
  177SLPC  C21220182   1.278   0.745   9.356  0.2017 -0.1492  0.0556
  177SLPC  H12R20183   1.346   0.781   9.434  0.7324 -3.0769  1.0570
  177SLPC  C21320184   1.321   0.768   9.230 -0.1893 -0.1206 -0.0148
  177SLPC  H13R20185   1.413   0.828   9.220 -0.1153 -0.5581 -2.8019
  177SLPC  C21420186   1.275   0.715   9.097  0.0583  0.7416  0.0709
  177SLPC  H14R20187   1.234   0.802   9.041  1.1631  1.4776  0.3695
  177SLPC  H14S20188   1.188   0.647   9.109 -0.3457  0.9884 -1.2953
  177SLPC  C21520189   1.378   0.644   9.009 -0.4989 -0.4245 -0.3256
  177SLPC  H15R20190   1.444   0.585   9.075  0.8843 -1.1840 -2.2984
  177SLPC  H15S20191   1.431   0.724   8.953  2.2467 -1.4271  0.7086
  177SLPC  C21620192   1.316   0.538   8.909 -1.2997 -0.0955  0.2460
  177SLPC  H16R20193   1.232   0.584   8.852 -0.1975  3.0586  0.9499
  177SLPC  H16S20194   1.269   0.455   8.965  0.8425 -0.7826  1.0951
  177SLPC  C21720195   1.426   0.489   8.813  0.2643  0.3122  0.0532
  177SLPC  H17R20196   1.515   0.445   8.864 -0.1980  0.0106  0.6138
  177SLPC  H17S20197   1.464   0.577   8.757  0.6036 -0.0880 -0.3493
  177SLPC  C21820198   1.378   0.395   8.704  0.2647  0.1385 -0.3234
  177SLPC  H18R20199   1.276   0.432   8.679 -0.8336 -0.3278  3.0116
  177SLPC  H18S20200   1.358   0.292   8.742  0.6490 -0.1160 -0.7969
  177SLPC  H18T20201   1.452   0.383   8.623  0.2585  2.0083 -0.6444
  177SLPC   C3320202   2.215   0.665   9.806 -0.5807  0.4125  0.2907
  177SLPC   H3X20203   2.292   0.737   9.842 -0.5669  1.3300 -1.4691
  177SLPC   H3Y20204   2.139   0.739   9.772 -0.2697  0.7654  0.3568
  177SLPC   C3420205   2.251   0.577   9.688  0.1318  0.7729  0.7981
  177SLPC   H4X20206   2.157   0.543   9.641  0.8893  1.6251 -1.5041
  177SLPC   H4Y20207   2.323   0.500   9.722 -0.4163  0.1354  0.5107
  177SLPC   C3520208   2.329   0.663   9.579  0.7837  0.7476  0.3940
  177SLPC   H5X20209   2.371   0.587   9.510  1.8598  0.9837  0.7855
  177SLPC   H5Y20210   2.413   0.715   9.628  1.0257 -0.0078  0.8012
  177SLPC   C3620211   2.251   0.767   9.499  0.0998  0.8066 -0.8494
  177SLPC   H6X20212   2.220   0.854   9.561  3.4070  0.8729  0.9290
  177SLPC   H6Y20213   2.158   0.728   9.452  0.1676 -0.6121  0.1214
  177SLPC   C3720214   2.328   0.823   9.373 -0.5832 -0.4405 -0.2955
  177SLPC   H7X20215   2.418   0.875   9.412  2.6234 -4.2212 -1.8760
  177SLPC   H7Y20216   2.261   0.897   9.323 -1.6721 -0.8692  0.4979
  177SLPC   C3820217   2.386   0.716   9.274 -0.1764 -0.3310 -0.4058
  177SLPC   H8X20218   2.299   0.652   9.247  0.3879 -0.8097 -1.0924
  177SLPC   H8Y20219   2.459   0.650   9.324 -1.5428 -1.1152  0.6508
  177SLPC   C3920220   2.442   0.764   9.137  0.1719 -0.4047 -0.4827
  177SLPC   H9X20221   2.532   0.829   9.140 -0.7448  0.9445 -1.4270
  177SLPC   H9Y20222   2.361   0.826   9.093 -1.0380 -3.0638 -2.2748
  177SLPC  C31020223   2.473   0.650   9.040 -0.3400 -0.6622  0.0974
  177SLPC  H10X20224   2.388   0.580   9.033 -0.8420 -0.1460  0.8569
  177SLPC  H10Y20225   2.553   0.586   9.082 -1.3126 -1.4924  0.7271
  177SLPC  C31120226   2.501   0.719   8.907  0.6556  0.0099  0.2984
  177SLPC  H11X20227   2.612   0.725   8.896  0.4622  0.3111 -1.9455
  177SLPC  H11Y20228   2.445   0.814   8.892 -2.7940 -1.9578 -0.2138
  177SLPC  C31220229   2.467   0.610   8.793 -0.1300 -0.2357 -0.1078
  177SLPC  H12X20230   2.356   0.608   8.794 -0.1454 -1.8001  1.8011
  177SLPC  H12Y20231   2.504   0.512   8.832 -0.8045  0.6793  3.1088
  177SLPC  C31320232   2.520   0.667   8.663  0.5169 -0.3980  0.0344
  177SLPC  H13X20233   2.514   0.778   8.666 -0.2161 -0.4338  0.0493
  177SLPC  H13Y20234   2.463   0.644   8.570  0.5520  2.5109 -0.8055
  177SLPC  C31420235   2.662   0.624   8.636  0.0909 -0.3185 -0.0683
  177SLPC  H14X20236   2.678   0.521   8.675  0.4275 -0.5270 -0.7361
  177SLPC  H14Y20237   2.722   0.697   8.695  0.4346  0.0864 -0.9040
  177SLPC  C31520238   2.691   0.625   8.488 -0.7640  0.2028 -0.4405
  177SLPC  H15X20239   2.677   0.731   8.457 -0.6345  0.5738  0.7478
  177SLPC  H15Y20240   2.627   0.547   8.442 -0.0897 -2.3301  2.6372
  177SLPC  C31620241   2.842   0.593   8.449  0.0014 -0.4458 -0.1789
  177SLPC  H16X20242   2.876   0.498   8.495  1.7336 -0.6828 -1.8496
  177SLPC  H16Y20243   2.906   0.678   8.480 -0.6491  0.1176 -0.3505
  177SLPC  C31720244   2.873   0.553   8.300 -1.0264 -0.6039  0.9808
  177SLPC  H17X20245   2.837   0.647   8.251  2.8511 -0.6369 -2.5423
  177SLPC  H17Y20246   2.803   0.476   8.260  0.2364 -0.9521 -0.6716
  177SLPC  C31820247   3.016   0.509   8.264  0.3301  0.5327  0.4868
  177SLPC  H18X20248   3.031   0.402   8.288 -1.2095  0.3996  0.9751
  177SLPC  H18Y20249   3.101   0.569   8.303 -1.0560  2.3093  0.9487
  177SLPC  H18Z20250   3.018   0.503   8.153 -3.3037  0.1552  0.3067
  178SLPC     N20251   4.288   2.634  10.701  1.1898 -0.3824  0.5597
  178SLPC   C1320252   4.401   2.611  10.794 -0.3768  0.2465  0.2448
  178SLPC  H13A20253   4.387   2.526  10.859  1.9853 -0.2856  0.1574
  178SLPC  H13B20254   4.496   2.598  10.743  0.1136 -0.7742  1.3571
  178SLPC  H13C20255   4.407   2.696  10.859 -2.1067  0.0431  0.7086
  178SLPC   C1420256   4.335   2.757  10.626  0.5352  0.1550  0.5303
  178SLPC  H14A20257   4.252   2.795  10.568 -0.1750 -0.2151  1.2812
  178SLPC  H14B20258   4.377   2.838  10.683  1.7814 -0.6643  0.8112
  178SLPC  H14C20259   4.418   2.728  10.565  1.2993  2.2350  0.5172
  178SLPC   C1520260   4.169   2.669  10.782 -0.4379 -0.2809 -0.3489
  178SLPC  H15A20261   4.084   2.697  10.722 -0.7021  0.4489  0.3482
  178SLPC  H15B20262   4.146   2.582  10.842  2.5093  0.6278  2.4107
  178SLPC  H15C20263   4.191   2.735  10.864 -0.3866 -1.0507  0.2758
  178SLPC   C1220264   4.261   2.513  10.611  0.5607 -0.2942 -0.4172
  178SLPC  H12A20265   4.247   2.429  10.678  2.2795  0.5728  1.1011
  178SLPC  H12B20266   4.356   2.488  10.565 -0.3121 -2.4724 -1.2127
  178SLPC   C1120267   4.146   2.512  10.510 -0.2042 -0.3636 -0.0079
  178SLPC  H11A20268   4.161   2.429  10.437  1.7115 -1.0785  1.1083
  178SLPC  H11B20269   4.145   2.607  10.453  1.3805 -0.9568 -1.0746
  178SLPC     P20270   3.974   2.348  10.619 -0.1806 -0.3539  0.2176
  178SLPC   O1320271   4.093   2.261  10.601 -0.0048 -0.3912 -0.0481
  178SLPC   O1420272   3.921   2.364  10.754  0.0597  0.4337  0.2266
  178SLPC   O1220273   4.013   2.494  10.573 -0.0941 -0.3366  0.0051
  178SLPC   O1120274   3.856   2.308  10.524 -0.1000  0.6273  0.5634
  178SLPC    C120275   3.759   2.402  10.487  0.2036 -0.0717 -0.0754
  178SLPC    HA20276   3.661   2.377  10.534 -0.5859 -0.4874 -1.8783
  178SLPC    HB20277   3.772   2.507  10.524 -0.4171 -0.3593  1.0194
  178SLPC    C220278   3.740   2.405  10.330 -0.1252 -0.0765 -0.4612
  178SLPC    HS20279   3.694   2.310  10.295  0.4989 -0.2830 -0.7308
  178SLPC   O2120280   3.858   2.433  10.261 -0.5223 -0.2703 -0.1646
  178SLPC   C2120281   3.933   2.327  10.226 -0.0432 -0.6110  0.6363
  178SLPC   O2220282   3.892   2.210  10.227 -0.0234  0.6453  0.4438
  178SLPC   C2220283   4.060   2.372  10.151 -0.6587  0.3411 -0.1502
  178SLPC   H2R20284   4.041   2.476  10.116 -1.2078  0.0707 -0.6547
  178SLPC   H2S20285   4.145   2.381  10.223 -0.2489  0.9068 -0.6933
  178SLPC    C320286   3.643   2.520  10.293 -0.3843 -0.2942  0.6073
  178SLPC    HX20287   3.689   2.617  10.321 -0.8482  0.1877 -0.2434
  178SLPC    HY20288   3.547   2.514  10.348 -0.6292  1.8896  0.4788
  178SLPC   O3120289   3.625   2.528  10.150 -0.0332  0.6405 -0.6297
  178SLPC   C3120290   3.527   2.449  10.100  0.2015  0.3854 -0.7036
  178SLPC   O3220291   3.461   2.375  10.166  0.1199  0.1940  0.1584
  178SLPC   C3220292   3.525   2.452   9.950 -0.6063 -0.5406  0.5979
  178SLPC   H2X20293   3.573   2.549   9.920 -1.3556 -0.6741 -1.1672
  178SLPC   H2Y20294   3.416   2.468   9.934 -0.9892 -1.0254  2.5759
  178SLPC   C2320295   4.118   2.292  10.035  0.5386  0.5054 -0.5387
  178SLPC   H3R20296   4.098   2.184  10.055 -1.4542  0.5543 -1.9802
  178SLPC   H3S20297   4.228   2.305  10.026  0.5549  0.5827 -0.2233
  178SLPC   C2420298   4.058   2.341   9.901  0.3528  0.7297 -0.0149
  178SLPC   H4R20299   4.079   2.448   9.883 -0.0301  0.6967 -0.6675
  178SLPC   H4S20300   3.954   2.303   9.909  0.8818 -0.9692 -0.5949
  178SLPC   C2520301   4.106   2.275   9.765  0.0985  0.4662 -0.6634
  178SLPC   H5R20302   4.091   2.166   9.778 -2.0831  0.7749 -0.1787
  178SLPC   H5S20303   4.212   2.307   9.751 -0.3990  1.0979 -3.3998
  178SLPC   C2620304   4.024   2.326   9.644  0.5269  0.4688  0.4592
  178SLPC   H6R20305   4.036   2.436   9.641 -0.1241  0.6282  2.1907
  178SLPC   H6S20306   3.916   2.307   9.664  0.7910 -1.3806  0.3289
  178SLPC   C2720307   4.076   2.254   9.512  0.1479 -0.0551 -0.2301
  178SLPC   H7R20308   4.057   2.144   9.517  0.6781 -0.2331 -1.6578
  178SLPC   H7S20309   4.185   2.265   9.494  0.0314  1.5665 -0.0715
  178SLPC   C2820310   4.001   2.310   9.398 -0.1176  0.0325  0.2981
  178SLPC   H8R20311   4.042   2.413   9.384  2.8276 -1.2377 -1.1669
  178SLPC   H8S20312   3.892   2.303   9.418  0.0298  1.9887  2.1279
  178SLPC   C2920313   4.020   2.244   9.272  0.8435  0.4100  0.3277
  178SLPC   H9R20314   4.027   2.135   9.276  1.7153  0.4874  1.0730
  178SLPC  C21020315   4.022   2.295   9.152 -0.5215  0.6166  0.4410
  178SLPC  H10R20316   4.043   2.227   9.068  1.2212  1.2138  0.3477
  178SLPC  C21120317   3.995   2.437   9.114 -0.0953 -0.8059  0.4773
  178SLPC  H11R20318   3.941   2.484   9.199  0.7421  0.5518  0.2881
  178SLPC  H11S20319   3.935   2.449   9.022  0.8165 -0.6425 -0.1112
  178SLPC  C21220320   4.133   2.500   9.104 -0.3601 -0.6584 -0.6796
  178SLPC  H12R20321   4.200   2.484   9.190 -0.6191  0.0795 -0.3412
  178SLPC  C21320322   4.178   2.581   9.011  0.1319  0.3238 -0.2095
  178SLPC  H13R20323   4.280   2.621   9.019  0.1480  0.3469 -0.5261
  178SLPC  C21420324   4.111   2.618   8.884  0.2274 -0.0598  0.8291
  178SLPC  H14R20325   4.062   2.717   8.891 -0.9760 -0.4254 -1.5701
  178SLPC  H14S20326   4.027   2.549   8.864  1.4228 -1.0933 -0.9398
  178SLPC  C21520327   4.197   2.628   8.752  0.6256  0.0237  0.3312
  178SLPC  H15R20328   4.255   2.722   8.763  0.7437  0.2415 -1.6958
  178SLPC  H15S20329   4.135   2.624   8.660  2.3447 -0.2669 -0.8679
  178SLPC  C21620330   4.294   2.511   8.730 -0.0152  0.2596  0.8693
  178SLPC  H16R20331   4.232   2.420   8.750  3.0282 -2.1074  0.3727
  178SLPC  H16S20332   4.376   2.513   8.806  1.1238  1.9222 -0.3470
  178SLPC  C21720333   4.366   2.525   8.590 -0.4687  0.2843 -0.9141
  178SLPC  H17R20334   4.394   2.631   8.571  0.4634  0.0600 -0.8160
  178SLPC  H17S20335   4.284   2.497   8.520 -0.5929 -0.0073 -0.6549
  178SLPC  C21820336   4.499   2.447   8.599  0.3490 -0.9035  0.3921
  178SLPC  H18R20337   4.558   2.487   8.685 -0.0451  2.2009 -0.6841
  178SLPC  H18S20338   4.552   2.432   8.502 -0.5601  3.5257 -0.9973
  178SLPC  H18T20339   4.473   2.344   8.634 -0.1593 -1.7919 -2.3945
  178SLPC   C3320340   3.580   2.335   9.864 -0.2031  0.9124  0.0320
  178SLPC   H3X20341   3.545   2.237   9.901 -0.5683  0.4150 -1.5321
  178SLPC   H3Y20342   3.691   2.333   9.870 -0.1957  0.1719 -0.2959
  178SLPC   C3420343   3.531   2.349   9.715 -0.7912  0.1344  0.6236
  178SLPC   H4X20344   3.584   2.436   9.671  0.8576 -0.9027  0.4836
  178SLPC   H4Y20345   3.420   2.347   9.714 -0.8201  1.0544 -1.0267
  178SLPC   C3520346   3.590   2.238   9.627 -0.2508  0.1841 -0.0473
  178SLPC   H5X20347   3.548   2.139   9.653  0.6837 -0.1069  0.3946
  178SLPC   H5Y20348   3.696   2.212   9.649 -0.9170 -4.0855 -1.0760
  178SLPC   C3620349   3.563   2.259   9.479 -0.1748 -0.2603  0.1006
  178SLPC   H6X20350   3.610   2.356   9.451  1.4905 -0.6348  1.4251
  178SLPC   H6Y20351   3.454   2.275   9.462 -0.0431  0.2500 -0.2695
  178SLPC   C3720352   3.621   2.149   9.386  0.5150 -0.2290 -0.0800
  178SLPC   H7X20353   3.573   2.057   9.425  0.5536  0.3970  1.5199
  178SLPC   H7Y20354   3.732   2.143   9.397  0.4400  0.9541  1.7820
  178SLPC   C3820355   3.575   2.170   9.242  0.1986 -0.3288 -0.1113
  178SLPC   H8X20356   3.615   2.266   9.203 -0.9807  0.7722  1.2561
  178SLPC   H8Y20357   3.464   2.175   9.247  0.2780  2.1804  0.8982
  178SLPC   C3920358   3.603   2.043   9.162  0.1360  0.6550 -0.4351
  178SLPC   H9X20359   3.532   1.970   9.206 -0.4910  2.3003  1.4552
  178SLPC   H9Y20360   3.708   2.007   9.174  0.8625  2.4604 -0.9500
  178SLPC  C31020361   3.570   2.062   9.013 -0.2372 -0.0631 -0.4904
  178SLPC  H10X20362   3.618   2.153   8.971  0.2192 -0.8564 -1.7399
  178SLPC  H10Y20363   3.459   2.060   9.006 -0.3582 -0.8880  1.1825
  178SLPC  C31120364   3.624   1.948   8.926  0.2393  0.0775 -0.3023
  178SLPC  H11X20365   3.573   1.851   8.946 -1.7227  1.6310  2.8846
  178SLPC  H11Y20366   3.726   1.933   8.968  0.3759 -1.4064 -1.0682
  178SLPC  C31220367   3.619   1.990   8.779 -0.0226  0.4419 -0.5513
  178SLPC  H12X20368   3.681   2.078   8.753  1.5984 -0.5090 -0.0619
  178SLPC  H12Y20369   3.515   2.013   8.747 -1.9795 -3.1427  2.3806
  178SLPC  C31320370   3.664   1.865   8.694 -0.1241  0.4663  0.2087
  178SLPC  H13X20371   3.607   1.870   8.598  1.7853 -0.7305 -1.0580
  178SLPC  H13Y20372   3.636   1.766   8.735 -0.2108  0.2263 -0.4089
  178SLPC  C31420373   3.807   1.863   8.654  0.1746 -0.2692  0.7160
  178SLPC  H14X20374   3.862   1.910   8.739 -0.1983  2.2976 -0.3783
  178SLPC  H14Y20375   3.817   1.934   8.570 -1.1692  0.4605  1.1405
  178SLPC  C31520376   3.871   1.723   8.634 -0.1172 -0.2531  0.2837
  178SLPC  H15X20377   3.850   1.652   8.717 -1.9918 -0.7767 -0.5956
  178SLPC  H15Y20378   3.820   1.662   8.557  0.1199 -0.4299  0.2649
  178SLPC  C31620379   4.024   1.722   8.614 -0.0280 -0.5432  0.1399
  178SLPC  H16X20380   4.053   1.616   8.596 -2.7671 -1.5868  1.2829
  178SLPC  H16Y20381   4.073   1.760   8.707  0.8865 -0.1906 -0.4692
  178SLPC  C31720382   4.071   1.805   8.489 -0.4637  0.4213 -0.1965
  178SLPC  H17X20383   4.181   1.796   8.502 -0.4047  1.9564  0.5606
  178SLPC  H17Y20384   4.049   1.912   8.510  2.4429  1.1682 -0.4766
  178SLPC  C31820385   4.028   1.763   8.346 -0.3773 -0.0584  0.1708
  178SLPC  H18X20386   4.020   1.653   8.338  2.0063 -0.2777 -0.0007
  178SLPC  H18Y20387   4.087   1.801   8.260  1.6940  0.4328  1.7106
  178SLPC  H18Z20388   3.924   1.800   8.334 -0.3316  0.1201  0.3085
  179SLPC     N20389   1.137   6.160  10.816  0.4639  0.1017  0.1455
  179SLPC   C1320390   1.229   6.064  10.890 -1.1099 -0.1413 -0.1206
  179SLPC  H13A20391   1.201   6.068  10.995  0.4536 -0.0183  0.3146
  179SLPC  H13B20392   1.222   5.964  10.849  1.4229  0.2270 -1.6184
  179SLPC  H13C20393   1.331   6.097  10.877 -1.7815  0.9939 -3.5075
  179SLPC   C1420394   1.136   6.290  10.879  0.2813 -0.7144  0.0313
  179SLPC  H14A20395   1.233   6.337  10.883  0.6634 -1.5495  2.3849
  179SLPC  H14B20396   1.068   6.362  10.836  0.7615  0.0545  0.5372
  179SLPC  H14C20397   1.110   6.284  10.984  0.9643  0.3442  0.2776
  179SLPC   C1520398   1.006   6.096  10.818  0.2937 -0.1465 -0.2596
  179SLPC  H15A20399   0.919   6.142  10.774 -0.2607  0.5895  1.5275
  179SLPC  H15B20400   1.012   6.001  10.768  1.0067 -0.0682 -0.3357
  179SLPC  H15C20401   0.976   6.093  10.922 -2.8268  0.3492 -1.0417
  179SLPC   C1220402   1.185   6.172  10.670 -0.5456 -0.2891 -0.2252
  179SLPC  H12A20403   1.200   6.071  10.634 -0.5181 -1.0044  1.6930
  179SLPC  H12B20404   1.281   6.221  10.668 -0.1115 -1.1332 -0.4373
  179SLPC   C1120405   1.080   6.237  10.571  0.0223  0.1158  0.1400
  179SLPC  H11A20406   0.999   6.169  10.539 -1.4233  1.0678  1.6006
  179SLPC  H11B20407   1.148   6.252  10.484 -0.5716 -0.9868 -0.5410
  179SLPC     P20408   0.874   6.390  10.626 -0.2530 -0.5300 -0.4291
  179SLPC   O1320409   0.799   6.273  10.679 -0.4027 -0.1883  0.0028
  179SLPC   O1420410   0.847   6.523  10.692 -0.1162 -0.2391  0.2670
  179SLPC   O1220411   1.029   6.364  10.620 -0.1758 -0.3141  0.4848
  179SLPC   O1120412   0.835   6.403  10.470  0.3033 -0.2080  0.6874
  179SLPC    C120413   0.896   6.519  10.405 -0.4663  0.1280 -0.0448
  179SLPC    HA20414   0.815   6.595  10.402  0.2445  1.0783  2.5872
  179SLPC    HB20415   0.984   6.555  10.463  0.7538 -0.8231 -1.2332
  179SLPC    C220416   0.956   6.499  10.263  0.8866 -0.4606  0.5177
  179SLPC    HS20417   1.051   6.446  10.287  1.1732 -1.6707 -2.7069
  179SLPC   O2120418   0.966   6.619  10.189  0.5339  0.2056 -0.0058
  179SLPC   C2120419   1.089   6.684  10.200 -0.1571  0.8009 -0.2394
  179SLPC   O2220420   1.172   6.649  10.281  0.2189  0.4769  0.1548
  179SLPC   C2220421   1.096   6.808  10.112  0.0292  0.2549 -0.2259
  179SLPC   H2R20422   0.996   6.854  10.101 -0.1212  0.3061  1.1057
  179SLPC   H2S20423   1.155   6.880  10.172  0.4582 -0.7172  0.5610
  179SLPC    C320424   0.872   6.387  10.192  0.8288 -0.5386  0.0855
  179SLPC    HX20425   0.766   6.418  10.207  0.7068 -0.6702 -0.4941
  179SLPC    HY20426   0.898   6.294  10.247  1.7417 -0.3324  0.0180
  179SLPC   O3120427   0.894   6.381  10.046  0.3961  0.6028 -0.4933
  179SLPC   C3120428   0.844   6.272   9.985 -0.4525 -0.2038 -0.3177
  179SLPC   O3220429   0.763   6.188  10.033 -0.0892  0.0563  0.2101
  179SLPC   C3220430   0.911   6.272   9.848 -0.2005 -0.2873  0.1460
  179SLPC   H2X20431   1.020   6.264   9.872 -0.4260 -1.0003  0.9653
  179SLPC   H2Y20432   0.882   6.368   9.801 -1.9368 -0.2695  1.2012
  179SLPC   C2320433   1.153   6.789   9.972 -0.1133  0.7540 -0.4756
  179SLPC   H3R20434   1.261   6.765   9.979  0.4568  2.6410 -1.8893
  179SLPC   H3S20435   1.142   6.880   9.909  0.2053  0.2653 -1.2419
  179SLPC   C2420436   1.087   6.672   9.900 -0.2238 -0.8347 -1.1616
  179SLPC   H4R20437   0.981   6.694   9.874 -0.9150  0.0066  1.8814
  179SLPC   H4S20438   1.093   6.579   9.960  1.6413  0.3525  0.6412
  179SLPC   C2520439   1.168   6.658   9.770  0.4985 -0.0462 -0.4895
  179SLPC   H5R20440   1.239   6.573   9.786  0.4654  0.2229  1.3840
  179SLPC   H5S20441   1.219   6.750   9.735 -1.4245  1.2286 -0.0834
  179SLPC   C2620442   1.085   6.616   9.648  0.8473 -0.5931  0.0823
  179SLPC   H6R20443   1.007   6.687   9.613  0.7991 -0.9889 -0.6303
  179SLPC   H6S20444   1.029   6.525   9.678  0.8571 -0.9156 -0.8392
  179SLPC   C2720445   1.169   6.586   9.523 -0.1112  1.0316 -0.4808
  179SLPC   H7R20446   1.236   6.500   9.545  0.7162  0.9513 -3.0422
  179SLPC   H7S20447   1.232   6.674   9.496 -2.5317  2.0690 -3.2130
  179SLPC   C2820448   1.080   6.538   9.407  0.1422  0.9151 -0.5679
  179SLPC   H8R20449   1.012   6.459   9.445 -0.6648  0.7155 -2.3666
  179SLPC   H8S20450   1.151   6.482   9.344 -0.9099  0.6965 -1.5982
  179SLPC   C2920451   0.997   6.647   9.336 -0.2245  0.0693 -0.5632
  179SLPC   H9R20452   0.951   6.725   9.398  0.9375  0.8955 -0.7134
  179SLPC  C21020453   0.981   6.648   9.199 -0.0348 -0.4599  0.7065
  179SLPC  H10R20454   0.923   6.733   9.161 -1.8291 -0.8393  2.4189
  179SLPC  C21120455   1.025   6.545   9.096  0.5322 -0.1234 -0.4716
  179SLPC  H11R20456   0.938   6.528   9.029 -1.2374  0.5459  1.5523
  179SLPC  H11S20457   1.045   6.445   9.141 -1.4023 -2.0431 -3.4765
  179SLPC  C21220458   1.143   6.589   9.012 -0.4442 -0.0726  0.7368
  179SLPC  H12R20459   1.227   6.622   9.074 -1.1110  0.4266  1.3855
  179SLPC  C21320460   1.163   6.583   8.874  0.0450  0.0988 -0.2207
  179SLPC  H13R20461   1.260   6.616   8.832 -0.0966  0.8357  0.0306
  179SLPC  C21420462   1.063   6.536   8.773 -0.0820  0.3994  0.3715
  179SLPC  H14R20463   1.024   6.619   8.710  3.4373  1.1362 -1.0750
  179SLPC  H14S20464   0.974   6.489   8.821  1.0977 -0.4459  1.8068
  179SLPC  C21520465   1.130   6.432   8.683  0.1758 -0.1173 -0.2003
  179SLPC  H15R20466   1.048   6.390   8.622 -1.4802  0.8408  1.2570
  179SLPC  H15S20467   1.161   6.347   8.748  0.7469 -0.0089 -0.3240
  179SLPC  C21620468   1.236   6.488   8.590 -1.1761 -0.5593 -0.4640
  179SLPC  H16R20469   1.318   6.528   8.654 -0.3782 -0.8461 -1.2851
  179SLPC  H16S20470   1.194   6.569   8.527 -0.2154  0.7550  0.5359
  179SLPC  C21720471   1.295   6.380   8.504  1.0328 -0.3505  0.5022
  179SLPC  H17R20472   1.220   6.307   8.467  0.8696 -1.8401  3.4692
  179SLPC  H17S20473   1.360   6.315   8.566 -0.0064 -1.7657  0.1610
  179SLPC  C21820474   1.372   6.432   8.382 -0.3142  0.0277 -0.6240
  179SLPC  H18R20475   1.445   6.352   8.361  0.5701  0.1699  1.6508
  179SLPC  H18S20476   1.417   6.532   8.398  1.5851 -0.4464 -2.5275
  179SLPC  H18T20477   1.295   6.445   8.302  0.9972  0.4075 -1.8638
  179SLPC   C3320478   0.868   6.159   9.752 -0.5598  0.0457 -0.6406
  179SLPC   H3X20479   0.757   6.159   9.747 -0.5813 -0.6579 -0.3016
  179SLPC   H3Y20480   0.900   6.059   9.791 -1.3967  0.1273  0.3025
  179SLPC   C3420481   0.923   6.188   9.614 -0.2802 -0.2137 -0.2992
  179SLPC   H4X20482   0.941   6.298   9.613  1.6625 -0.4533 -3.1722
  179SLPC   H4Y20483   0.853   6.159   9.532  1.2358 -1.1151 -1.3101
  179SLPC   C3520484   1.051   6.123   9.572 -0.0005  0.7224  0.0998
  179SLPC   H5X20485   1.068   6.039   9.642  2.0910  1.3437  0.4088
  179SLPC   H5Y20486   1.136   6.195   9.577  0.8159 -0.2398  0.3395
  179SLPC   C3620487   1.049   6.051   9.437  1.1015 -0.5441  0.1198
  179SLPC   H6X20488   0.954   5.994   9.433 -0.5750  2.1424 -2.4652
  179SLPC   H6Y20489   1.141   5.990   9.442  1.5628  0.1136 -0.2493
  179SLPC   C3720490   1.052   6.146   9.316  0.4359 -0.3825  0.3190
  179SLPC   H7X20491   1.148   6.200   9.303 -0.0148  0.0432 -1.5611
  179SLPC   H7Y20492   0.977   6.225   9.340 -0.1432 -0.6299 -0.6293
  179SLPC   C3820493   1.020   6.076   9.191  0.1130  0.3616 -0.1174
  179SLPC   H8X20494   0.935   6.005   9.193  0.8080 -0.4716  1.2597
  179SLPC   H8Y20495   1.109   6.015   9.165  1.0280  0.0234  3.3272
  179SLPC   C3920496   0.992   6.178   9.078  0.4104 -0.7743 -0.2187
  179SLPC   H9X20497   1.065   6.262   9.083  1.1132 -1.4509  1.8043
  179SLPC   H9Y20498   0.895   6.232   9.088  0.7776 -0.3277  1.2123
  179SLPC  C31020499   0.994   6.117   8.941 -0.1771 -0.2220 -0.4840
  179SLPC  H10X20500   0.962   6.197   8.869 -3.6592 -2.2934 -1.4794
  179SLPC  H10Y20501   0.930   6.029   8.924  0.0954 -0.2932 -1.2203
  179SLPC  C31120502   1.138   6.070   8.907  0.3743  0.5741 -0.3231
  179SLPC  H11X20503   1.161   5.977   8.963 -1.1732 -0.0167 -0.5979
  179SLPC  H11Y20504   1.207   6.151   8.940  2.0253 -1.2972  1.0660
  179SLPC  C31220505   1.156   6.057   8.754 -1.0391  0.4515  0.4820
  179SLPC  H12X20506   1.131   6.154   8.707  0.1612 -0.6144 -2.5851
  179SLPC  H12Y20507   1.086   5.983   8.710  1.0401  0.5631 -3.4436
  179SLPC  C31320508   1.299   6.016   8.726  0.5483 -0.1035 -0.1615
  179SLPC  H13X20509   1.326   5.928   8.788 -3.1908 -0.9873  0.5015
  179SLPC  H13Y20510   1.358   6.107   8.750 -1.0072  0.7141  0.7260
  179SLPC  C31420511   1.326   5.983   8.576  0.0075  0.1461 -0.2070
  179SLPC  H14X20512   1.230   6.011   8.525 -0.1462  0.7856  0.4245
  179SLPC  H14Y20513   1.332   5.874   8.555  0.3565  0.1349 -0.0380
  179SLPC  C31520514   1.455   6.043   8.518 -0.1387 -0.2652  0.5771
  179SLPC  H15X20515   1.532   6.050   8.598  0.4229  1.1784 -0.0545
  179SLPC  H15Y20516   1.445   6.148   8.484  0.9507 -0.4013 -0.2098
  179SLPC  C31620517   1.526   5.951   8.419 -0.6448 -0.1837  0.4836
  179SLPC  H16X20518   1.440   5.941   8.349 -0.9761 -1.8643  1.0752
  179SLPC  H16Y20519   1.542   5.848   8.458 -0.0630  0.1571  1.1496
  179SLPC  C31720520   1.659   6.010   8.374  0.1491 -0.4426 -0.5317
  179SLPC  H17X20521   1.743   6.018   8.447 -0.9757  1.3463  0.6584
  179SLPC  H17Y20522   1.637   6.117   8.354  0.2049  0.3555  2.9887
  179SLPC  C31820523   1.715   5.950   8.246 -0.1560 -0.1120  0.5876
  179SLPC  H18X20524   1.663   5.962   8.149 -0.2573  0.9627  0.7652
  179SLPC  H18Y20525   1.737   5.842   8.262  0.6836  0.2518  2.2199
  179SLPC  H18Z20526   1.820   5.981   8.226 -0.6273  1.3192  0.2431
  180SLPC     N20527   1.874   2.816  10.889  0.5514 -0.3729  0.1210
  180SLPC   C1320528   1.899   2.957  10.854 -0.6664  0.4870 -0.6161
  180SLPC  H13A20529   1.981   2.993  10.914 -0.8632  0.9797 -0.6392
  180SLPC  H13B20530   1.937   2.966  10.754  2.9157  2.0809  0.7337
  180SLPC  H13C20531   1.816   3.025  10.869 -0.2346  0.6544  1.2976
  180SLPC   C1420532   1.772   2.781  10.786 -0.5972  0.8276  0.0601
  180SLPC  H14A20533   1.817   2.770  10.688  1.1602 -1.9722  1.0515
  180SLPC  H14B20534   1.731   2.681  10.797 -0.6470  1.0443  2.3246
  180SLPC  H14C20535   1.693   2.854  10.782  0.3537  1.9106  0.6962
  180SLPC   C1520536   1.806   2.812  11.022 -0.5160 -0.1284  0.7947
  180SLPC  H15A20537   1.773   2.711  11.045 -1.2840  0.4559  2.4347
  180SLPC  H15B20538   1.877   2.853  11.093 -1.3550  0.5799  1.2389
  180SLPC  H15C20539   1.714   2.867  11.030 -0.6363  0.0612 -1.4364
  180SLPC   C1220540   2.003   2.735  10.876 -1.7089  0.2667 -0.3345
  180SLPC  H12A20541   2.055   2.743  10.782 -0.4984 -2.5329  0.0053
  180SLPC  H12B20542   1.973   2.631  10.872 -0.1128 -0.2354  0.0181
  180SLPC   C1120543   2.104   2.755  10.989  0.2949 -0.1411 -0.4034
  180SLPC  H11A20544   2.182   2.679  10.968 -0.4302 -1.0617  0.1141
  180SLPC  H11B20545   2.061   2.728  11.088 -0.0417  1.5704 -0.0439
  180SLPC     P20546   2.267   2.924  10.892  0.1640 -0.1043  0.1690
  180SLPC   O1320547   2.254   3.071  10.865 -0.2218 -0.6806  0.3464
  180SLPC   O1420548   2.399   2.868  10.935  0.3244 -0.2615 -0.1929
  180SLPC   O1220549   2.153   2.890  10.991 -0.4165  0.2645  0.0616
  180SLPC   O1120550   2.222   2.842  10.761  0.6660  0.0565  0.1636
  180SLPC    C120551   2.235   2.888  10.629 -0.2103  0.4604 -0.7590
  180SLPC    HA20552   2.148   2.847  10.573 -1.1125  0.4692  0.5837
  180SLPC    HB20553   2.232   2.999  10.620  0.8240  0.5389 -0.2318
  180SLPC    C220554   2.364   2.836  10.569  0.5315 -0.2487 -0.2239
  180SLPC    HS20555   2.436   2.859  10.650 -0.7467  2.1005  0.3167
  180SLPC   O2120556   2.395   2.907  10.450 -0.3952 -0.0726  0.0733
  180SLPC   C2120557   2.532   2.908  10.429 -0.8424  0.2930 -0.2385
  180SLPC   O2220558   2.616   2.882  10.516 -0.1335 -0.3152  0.5240
  180SLPC   C2220559   2.567   2.954  10.285  0.1243 -0.2967  0.2605
  180SLPC   H2R20560   2.473   2.995  10.241  0.0652  0.5947  1.1766
  180SLPC   H2S20561   2.635   3.041  10.302  0.1391  0.3332 -2.5139
  180SLPC    C320562   2.354   2.679  10.540 -0.0349 -0.4436 -0.0644
  180SLPC    HX20563   2.281   2.676  10.456  0.9669  3.5559 -1.2998
  180SLPC    HY20564   2.314   2.614  10.621  0.7172 -0.2163  0.4971
  180SLPC   O3120565   2.483   2.627  10.498  0.0732  0.3481  0.5737
  180SLPC   C3120566   2.557   2.580  10.591 -0.2722  0.0900  0.5843
  180SLPC   O3220567   2.536   2.580  10.713  0.2843 -0.6336 -0.3918
  180SLPC   C3220568   2.670   2.517  10.518 -0.1514  0.2712 -0.0914
  180SLPC   H2X20569   2.751   2.516  10.593  0.0975  1.2759 -0.3257
  180SLPC   H2Y20570   2.693   2.578  10.428 -0.2702  1.2267  0.5089
  180SLPC   C2320571   2.626   2.837  10.197  0.2665  0.0036  0.0576
  180SLPC   H3R20572   2.702   2.783  10.257 -1.7180  0.1393  2.9018
  180SLPC   H3S20573   2.687   2.879  10.114 -0.2184  1.4584  0.4039
  180SLPC   C2420574   2.516   2.749  10.140  0.0035  0.3882 -0.0733
  180SLPC   H4R20575   2.438   2.809  10.088 -0.3100 -0.2222 -0.3169
  180SLPC   H4S20576   2.460   2.703  10.224 -1.1823 -0.6367 -1.3803
  180SLPC   C2520577   2.567   2.633  10.049  0.1826 -0.3201  0.4123
  180SLPC   H5R20578   2.509   2.540  10.063  0.3434 -0.2728  1.4807
  180SLPC   H5S20579   2.672   2.611  10.076 -0.2786  0.1747  2.8979
  180SLPC   C2620580   2.542   2.673   9.898 -0.5916 -0.3952  0.0145
  180SLPC   H6R20581   2.433   2.688   9.878 -0.6854 -2.4059 -1.2618
  180SLPC   H6S20582   2.571   2.588   9.833  0.6839  0.7710 -1.0015
  180SLPC   C2720583   2.623   2.794   9.834  0.3455  0.5420  0.4268
  180SLPC   H7R20584   2.732   2.784   9.851  0.8514  0.0348 -2.6940
  180SLPC   H7S20585   2.588   2.887   9.884 -0.4005 -0.3006  1.5504
  180SLPC   C2820586   2.580   2.806   9.680 -0.1508  0.1182  0.4552
  180SLPC   H8R20587   2.623   2.906   9.658 -1.1504  0.6168  0.7057
  180SLPC   H8S20588   2.469   2.810   9.668 -0.3486  0.2253  1.9993
  180SLPC   C2920589   2.652   2.701   9.601 -0.0352  0.3590  1.1194
  180SLPC   H9R20590   2.751   2.669   9.637 -0.9418 -0.2419  3.2131
  180SLPC  C21020591   2.597   2.636   9.495 -0.3426  0.2179 -0.3791
  180SLPC  H10R20592   2.656   2.559   9.442 -1.9323 -0.1719 -1.6640
  180SLPC  C21120593   2.465   2.667   9.437  0.1236 -0.3475  0.2073
  180SLPC  H11R20594   2.388   2.672   9.517  0.5283 -0.0348  0.5750
  180SLPC  H11S20595   2.427   2.575   9.386  0.5400 -0.4628  0.1054
  180SLPC  C21220596   2.445   2.782   9.347  1.1225 -0.0280 -0.4186
  180SLPC  H12R20597   2.412   2.870   9.405 -1.4221  0.8306 -2.9533
  180SLPC  C21320598   2.443   2.778   9.214 -0.4774 -0.8287 -0.5555
  180SLPC  H13R20599   2.408   2.867   9.160 -2.1466 -0.0147  1.6844
  180SLPC  C21420600   2.472   2.657   9.133  0.6060  0.6426  0.1561
  180SLPC  H14R20601   2.446   2.562   9.184  0.0587  0.7591  0.1089
  180SLPC  H14S20602   2.580   2.643   9.112  0.6137  1.0383 -0.0839
  180SLPC  C21520603   2.409   2.662   8.988 -0.1593  0.3554 -0.6948
  180SLPC  H15R20604   2.300   2.683   8.990 -0.8769 -2.9192 -0.6068
  180SLPC  H15S20605   2.422   2.560   8.947 -0.7967  0.2441 -0.6324
  180SLPC  C21620606   2.491   2.754   8.898 -0.4414 -1.3125  0.5412
  180SLPC  H16R20607   2.598   2.728   8.903  0.2849  1.0150 -0.8918
  180SLPC  H16S20608   2.484   2.858   8.938 -1.5679 -1.3903  0.5850
  180SLPC  C21720609   2.433   2.752   8.754 -0.4624  0.2775  0.7426
  180SLPC  H17R20610   2.403   2.652   8.717  1.1526 -0.1389  0.5125
  180SLPC  H17S20611   2.525   2.775   8.696 -0.6389 -2.0855 -0.6168
  180SLPC  C21820612   2.318   2.848   8.724  0.1306 -0.4280 -0.7713
  180SLPC  H18R20613   2.342   2.955   8.743  0.3330 -0.4528 -0.8875
  180SLPC  H18S20614   2.241   2.809   8.794  0.3078 -0.7680 -0.7603
  180SLPC  H18T20615   2.264   2.831   8.629 -2.3783 -2.4821  0.8617
  180SLPC   C3320616   2.633   2.366  10.478 -0.9249 -0.7422  0.2449
  180SLPC   H3X20617   2.593   2.310  10.565 -2.1669  0.1412  0.2628
  180SLPC   H3Y20618   2.728   2.313  10.456  1.1773  1.1685  3.6989
  180SLPC   C3420619   2.552   2.361  10.351  0.7600  0.3163  0.3086
  180SLPC   H4X20620   2.575   2.453  10.293  1.1552  0.8921  1.3463
  180SLPC   H4Y20621   2.441   2.360  10.356  0.6429  0.7248 -1.5461
  180SLPC   C3520622   2.586   2.246  10.254 -0.7573 -0.5769 -0.0799
  180SLPC   H5X20623   2.560   2.156  10.313 -1.2026 -0.9983 -0.9173
  180SLPC   H5Y20624   2.695   2.256  10.233 -0.4468 -1.0430  1.2077
  180SLPC   C3620625   2.508   2.242  10.130  0.4850 -0.0401 -0.1511
  180SLPC   H6X20626   2.534   2.333  10.072  3.4881 -0.2027  0.7629
  180SLPC   H6Y20627   2.398   2.252  10.144  0.7668  0.8618  1.7545
  180SLPC   C3720628   2.540   2.123  10.050  0.1302 -0.1577 -0.0774
  180SLPC   H7X20629   2.493   2.030  10.089 -0.6915 -0.1108 -0.9006
  180SLPC   H7Y20630   2.649   2.104  10.043  0.3077  0.5693  0.5642
  180SLPC   C3820631   2.480   2.142   9.907 -0.1041 -0.1928 -0.3321
  180SLPC   H8X20632   2.533   2.235   9.879  2.5214  0.1577  4.7230
  180SLPC   H8Y20633   2.374   2.175   9.916  0.2421  0.7938  0.3733
  180SLPC   C3920634   2.507   2.018   9.823  0.5364  0.0485  0.1733
  180SLPC   H9X20635   2.449   1.931   9.861  1.2467 -0.1891  0.7438
  180SLPC   H9Y20636   2.613   1.996   9.846  0.1070 -1.3406  0.9650
  180SLPC  C31020637   2.485   2.025   9.672 -0.0611  0.2207  0.0538
  180SLPC  H10X20638   2.376   2.039   9.657  0.1631  2.4490  0.1651
  180SLPC  H10Y20639   2.517   1.935   9.615  1.6985  1.5222 -1.1237
  180SLPC  C31120640   2.561   2.146   9.613  0.0282  0.0079  0.7723
  180SLPC  H11X20641   2.662   2.134   9.657  1.8145 -1.1267 -3.1483
  180SLPC  H11Y20642   2.536   2.249   9.647  3.8025  0.9924  1.0431
  180SLPC  C31220643   2.550   2.141   9.462  0.6643  0.0400  0.4123
  180SLPC  H12X20644   2.451   2.169   9.419  0.6147 -1.6858 -0.7113
  180SLPC  H12Y20645   2.578   2.041   9.422  2.0443 -0.1659  1.8189
  180SLPC  C31320646   2.654   2.235   9.403 -0.0281 -0.5457 -0.0256
  180SLPC  H13X20647   2.754   2.187   9.397  1.5961  2.3194  1.3250
  180SLPC  H13Y20648   2.680   2.316   9.475  1.7333  0.9004 -2.1713
  180SLPC  C31420649   2.617   2.307   9.279 -0.0638 -0.3261  0.9558
  180SLPC  H14X20650   2.549   2.393   9.293  1.0384  0.3535  2.3119
  180SLPC  H14Y20651   2.566   2.230   9.216  2.0985 -1.4145  0.4336
  180SLPC  C31520652   2.740   2.353   9.199 -0.0263 -0.2710 -0.4551
  180SLPC  H15X20653   2.826   2.281   9.194 -0.1339 -0.3643 -1.0062
  180SLPC  H15Y20654   2.780   2.445   9.246  1.3323 -0.4918 -1.1052
  180SLPC  C31620655   2.698   2.376   9.052  0.1451 -0.2700  0.4515
  180SLPC  H16X20656   2.607   2.439   9.044 -0.1635 -0.8386 -0.5753
  180SLPC  H16Y20657   2.665   2.278   9.011 -0.6600 -0.4950  1.5792
  180SLPC  C31720658   2.810   2.439   8.955  0.3357 -0.2194 -0.0546
  180SLPC  H17X20659   2.894   2.373   8.986  0.3422  0.0772  0.5756
  180SLPC  H17Y20660   2.825   2.539   9.000 -0.9912  0.6073 -1.3599
  180SLPC  C31820661   2.784   2.427   8.809 -0.3586 -0.4037  0.3834
  180SLPC  H18X20662   2.863   2.483   8.754 -1.3142  1.1961  0.5603
  180SLPC  H18Y20663   2.687   2.474   8.782 -0.2398 -0.9692 -1.1370
  180SLPC  H18Z20664   2.788   2.323   8.771  0.0267 -0.0199 -0.6863
  181SLPC     N20665   2.763   2.949  10.876  0.6460 -0.4795  0.1077
  181SLPC   C1320666   2.746   3.099  10.871  0.0596 -1.3071  0.8494
  181SLPC  H13A20667   2.823   3.153  10.925 -2.0598  2.3514  0.5004
  181SLPC  H13B20668   2.756   3.134  10.770 -0.0973 -1.2985  0.8357
  181SLPC  H13C20669   2.650   3.137  10.905  0.0819 -1.5033  1.1376
  181SLPC   C1420670   2.652   2.897  10.793  0.1733  0.2679  0.5707
  181SLPC  H14A20671   2.654   2.930  10.690 -2.3766 -0.0973  0.3427
  181SLPC  H14B20672   2.654   2.791  10.774  1.7343  0.5674 -1.1743
  181SLPC  H14C20673   2.555   2.925  10.832 -0.0391  0.3126  0.0190
  181SLPC   C1520674   2.752   2.893  11.014  0.4503 -0.2291  0.1337
  181SLPC  H15A20675   2.830   2.920  11.083  1.8978 -1.3467 -0.9961
  181SLPC  H15B20676   2.661   2.922  11.064  1.6552  0.8423  1.7996
  181SLPC  H15C20677   2.771   2.787  11.002  3.4995  0.4414 -2.2650
  181SLPC   C1220678   2.895   2.909  10.808 -0.1394 -0.4076  1.0248
  181SLPC  H12A20679   2.970   2.903  10.885  0.3514 -2.7989  0.4426
  181SLPC  H12B20680   2.927   2.984  10.737 -1.6478  1.5908  2.3264
  181SLPC   C1120681   2.897   2.772  10.732  0.1855 -1.0635  0.4631
  181SLPC  H11A20682   2.995   2.766  10.679  0.0813  0.1823  0.0969
  181SLPC  H11B20683   2.824   2.755  10.650  0.5881  1.8443 -0.6202
  181SLPC     P20684   3.015   2.602  10.895 -0.0153 -0.2655 -0.0642
  181SLPC   O1320685   3.062   2.690  11.002 -0.0947 -0.0391 -1.0394
  181SLPC   O1420686   2.977   2.466  10.948  0.1248 -0.0907  0.4054
  181SLPC   O1220687   2.885   2.664  10.831 -0.2023 -0.0640  0.4733
  181SLPC   O1120688   3.122   2.589  10.780  0.0662  0.3223 -0.0244
  181SLPC    C120689   3.100   2.473  10.697 -0.5807  0.5563 -0.4714
  181SLPC    HA20690   3.127   2.375  10.741 -2.5705  0.4066  0.5829
  181SLPC    HB20691   3.002   2.466  10.644  0.1511  0.0663 -1.7933
  181SLPC    C220692   3.201   2.501  10.573 -0.1813 -0.1999 -0.9062
  181SLPC    HS20693   3.298   2.489  10.627 -0.9699  0.4182  0.7166
  181SLPC   O2120694   3.178   2.641  10.532  0.2738  0.0777 -0.0671
  181SLPC   C2120695   3.283   2.702  10.480 -0.4037  0.0450  0.3878
  181SLPC   O2220696   3.397   2.656  10.480  0.0862 -0.4661 -0.2565
  181SLPC   C2220697   3.227   2.837  10.428 -0.6073  0.1452  0.6962
  181SLPC   H2R20698   3.135   2.810  10.372  0.6975  0.0140 -1.4953
  181SLPC   H2S20699   3.203   2.890  10.522  0.5148  0.5832  0.7555
  181SLPC    C320700   3.188   2.402  10.466  0.1055  0.3098 -0.4428
  181SLPC    HX20701   3.210   2.301  10.508  4.4641  0.5167 -1.6770
  181SLPC    HY20702   3.262   2.422  10.385 -1.2583  0.0484 -1.7975
  181SLPC   O3120703   3.051   2.403  10.402  0.2055  0.0707 -0.3045
  181SLPC   C3120704   3.047   2.476  10.294  0.5900  0.2332  0.2015
  181SLPC   O3220705   3.129   2.555  10.259  0.2455 -0.7361  0.2067
  181SLPC   C3220706   2.915   2.445  10.216 -0.1228  0.6696  0.2303
  181SLPC   H2X20707   2.874   2.547  10.201  1.0189  0.6991 -3.5105
  181SLPC   H2Y20708   2.860   2.366  10.272 -1.4350  0.2749 -1.5163
  181SLPC   C2320709   3.334   2.910  10.349 -0.3087  0.7986 -0.6254
  181SLPC   H3R20710   3.421   2.938  10.412 -0.0572 -0.2369 -0.5064
  181SLPC   H3S20711   3.301   3.015  10.333 -1.9199  1.1110  3.4957
  181SLPC   C2420712   3.382   2.847  10.217  0.3616 -0.5832  0.5940
  181SLPC   H4R20713   3.287   2.825  10.162 -0.2202 -0.7954  1.6642
  181SLPC   H4S20714   3.448   2.758  10.220  1.3584  0.0626 -0.8555
  181SLPC   C2520715   3.450   2.945  10.112  0.0118 -0.4510 -0.2516
  181SLPC   H5R20716   3.550   2.972  10.152 -1.9424  4.1220  2.3849
  181SLPC   H5S20717   3.404   3.047  10.112 -0.7418 -0.6266  3.6744
  181SLPC   C2620718   3.470   2.873   9.975  0.4303 -0.7243  0.3494
  181SLPC   H6R20719   3.539   2.787   9.987  3.1467  0.8619 -2.5784
  181SLPC   H6S20720   3.516   2.948   9.906 -1.3033 -0.1178 -0.1995
  181SLPC   C2720721   3.338   2.833   9.911  0.0632 -0.2706  0.1537
  181SLPC   H7R20722   3.275   2.924   9.913 -1.3222 -1.1233 -1.4837
  181SLPC   H7S20723   3.290   2.746   9.962 -3.8907  1.5192 -0.0988
  181SLPC   C2820724   3.362   2.790   9.761  0.3528 -0.4389 -0.2314
  181SLPC   H8R20725   3.424   2.699   9.777  1.2748  0.1776 -0.2187
  181SLPC   H8S20726   3.423   2.875   9.724 -0.9495  0.8138  0.4004
  181SLPC   C2920727   3.229   2.755   9.705  0.1428  0.3926  0.7742
  181SLPC   H9R20728   3.143   2.808   9.751 -1.8814 -0.4967 -1.7547
  181SLPC  C21020729   3.206   2.669   9.602  0.1686  0.6809 -0.5378
  181SLPC  H10R20730   3.100   2.671   9.572  0.0111 -1.3430 -0.2640
  181SLPC  C21120731   3.297   2.577   9.525 -0.8678 -0.0327  0.0185
  181SLPC  H11R20732   3.234   2.503   9.471  0.4598  0.4581 -2.3174
  181SLPC  H11S20733   3.370   2.524   9.590 -0.2951  0.9851  0.2229
  181SLPC  C21220734   3.372   2.649   9.414  0.1122  0.5143  0.3893
  181SLPC  H12R20735   3.468   2.695   9.443 -1.6051  4.3277  0.6207
  181SLPC  C21320736   3.321   2.667   9.293 -0.4098  0.1399  0.4947
  181SLPC  H13R20737   3.380   2.725   9.220 -2.1738 -0.0753 -1.1969
  181SLPC  C21420738   3.186   2.618   9.249  0.2424 -0.6451  0.1440
  181SLPC  H14R20739   3.114   2.605   9.332 -0.2105  2.9314  0.4625
  181SLPC  H14S20740   3.198   2.521   9.195 -1.4383  0.1126 -1.6926
  181SLPC  C21520741   3.114   2.730   9.174 -0.3013  0.2645 -0.1319
  181SLPC  H15R20742   3.132   2.826   9.227  0.7421 -0.2084  0.3816
  181SLPC  H15S20743   3.005   2.709   9.171 -0.0218 -1.2645 -0.6045
  181SLPC  C21620744   3.169   2.749   9.026 -0.6272  0.0611 -0.0152
  181SLPC  H16R20745   3.280   2.744   9.032 -0.7328 -0.6241  1.8075
  181SLPC  H16S20746   3.136   2.851   8.995 -1.3731  0.1166  0.9077
  181SLPC  C21720747   3.107   2.647   8.925  0.3128 -0.2469 -0.5116
  181SLPC  H17R20748   2.996   2.647   8.918  0.3918 -0.8170 -2.0996
  181SLPC  H17S20749   3.147   2.547   8.952 -0.0846 -0.1942  0.2877
  181SLPC  C21820750   3.164   2.692   8.790  0.5565  0.5668 -0.2720
  181SLPC  H18R20751   3.149   2.613   8.714 -0.6353 -0.6742  1.1854
  181SLPC  H18S20752   3.273   2.707   8.806  0.5246  0.0892  0.4846
  181SLPC  H18T20753   3.118   2.786   8.754  0.8955  1.2444  0.9868
  181SLPC   C3320754   2.943   2.394  10.073  0.4491 -0.2188  0.2654
  181SLPC   H3X20755   2.837   2.369  10.049  0.4232 -0.6344  0.7871
  181SLPC   H3Y20756   3.005   2.302  10.069 -1.2593 -1.3889 -1.8088
  181SLPC   C3420757   3.002   2.503   9.975  0.2269 -0.3333 -0.0316
  181SLPC   H4X20758   3.108   2.530   9.993 -0.1526  0.3626  1.2957
  181SLPC   H4Y20759   2.947   2.596   9.999 -1.0016 -0.4212 -2.2669
  181SLPC   C3520760   2.983   2.468   9.826  0.4214  0.1858  0.9746
  181SLPC   H5X20761   3.045   2.533   9.761  1.3549  2.4598  3.8920
  181SLPC   H5Y20762   2.876   2.463   9.797  0.2533  1.0805  1.4152
  181SLPC   C3620763   3.047   2.330   9.790 -0.1605  0.3455 -0.1094
  181SLPC   H6X20764   2.997   2.245   9.841 -0.2457 -0.3979 -1.3834
  181SLPC   H6Y20765   3.151   2.330   9.831 -0.8677 -1.0932  1.8208
  181SLPC   C3720766   3.033   2.292   9.640 -0.0359 -0.4546  0.2346
  181SLPC   H7X20767   3.028   2.387   9.583  1.1899 -0.5051  0.0170
  181SLPC   H7Y20768   2.933   2.244   9.634  0.9537 -2.7513  0.8382
  181SLPC   C3820769   3.143   2.203   9.584  1.1158  0.1063 -0.2027
  181SLPC   H8X20770   3.158   2.112   9.647 -2.6934 -0.2609  0.4308
  181SLPC   H8Y20771   3.238   2.259   9.577  1.1833  0.4210  2.2223
  181SLPC   C3920772   3.102   2.155   9.446  0.1050 -0.4536 -0.0175
  181SLPC   H9X20773   3.004   2.106   9.431  0.8386 -2.0899  0.2916
  181SLPC   H9Y20774   3.167   2.064   9.440  1.1084  0.1671  0.9749
  181SLPC  C31020775   3.153   2.253   9.342 -0.4324 -0.8065  0.2394
  181SLPC  H10X20776   3.250   2.304   9.361 -0.8796  0.5431 -0.9563
  181SLPC  H10Y20777   3.080   2.338   9.340 -2.1545 -2.2397 -0.0192
  181SLPC  C31120778   3.152   2.186   9.202  0.4845 -0.0719 -0.3064
  181SLPC  H11X20779   3.053   2.151   9.164  0.3985 -0.5228  0.3237
  181SLPC  H11Y20780   3.219   2.098   9.208  0.8465  0.2326  0.1468
  181SLPC  C31220781   3.220   2.270   9.091  0.1155  0.1522  0.3502
  181SLPC  H12X20782   3.326   2.298   9.111  1.4155 -1.7014 -2.9718
  181SLPC  H12Y20783   3.161   2.364   9.084  3.7680  2.5315 -2.1599
  181SLPC  C31320784   3.219   2.209   8.956 -0.2907 -0.2552  0.1350
  181SLPC  H13X20785   3.113   2.211   8.923 -0.0773  1.6723 -0.5159
  181SLPC  H13Y20786   3.236   2.099   8.962 -1.8802 -0.5098  0.5423
  181SLPC  C31420787   3.312   2.272   8.853  0.0371 -0.4452  0.0562
  181SLPC  H14X20788   3.403   2.210   8.838  0.5198 -0.5281  2.8304
  181SLPC  H14Y20789   3.351   2.371   8.882  2.9351 -1.6987  0.8432
  181SLPC  C31520790   3.241   2.298   8.718 -0.6648  0.1593  0.9796
  181SLPC  H15X20791   3.164   2.378   8.728 -1.0494  0.3107 -2.2775
  181SLPC  H15Y20792   3.194   2.204   8.685 -1.7540  1.4464 -1.3758
  181SLPC  C31620793   3.336   2.339   8.600  0.2916  0.9948 -0.2572
  181SLPC  H16X20794   3.390   2.428   8.640  1.9105  0.2840 -0.7935
  181SLPC  H16Y20795   3.272   2.372   8.515  1.4254 -1.8906 -2.3718
  181SLPC  C31720796   3.428   2.226   8.546 -1.0438 -0.4566  0.0006
  181SLPC  H17X20797   3.506   2.198   8.620 -2.0051 -1.9168  0.5100
  181SLPC  H17Y20798   3.497   2.272   8.472  1.4936 -1.5344  1.5470
  181SLPC  C31820799   3.362   2.109   8.478 -0.7835 -0.8266  0.3365
  181SLPC  H18X20800   3.275   2.142   8.417 -0.4897 -0.5522  0.0620
  181SLPC  H18Y20801   3.322   2.050   8.564  2.8676  0.4939  3.1725
  181SLPC  H18Z20802   3.435   2.048   8.421  0.3428 -0.6518  1.5560
  182SLPC     N20803   0.915   0.372  10.750  0.6397  0.1418  0.0672
  182SLPC   C1320804   0.876   0.447  10.628 -0.3588 -0.1084 -0.7293
  182SLPC  H13A20805   0.798   0.521  10.644 -0.1127  0.6910 -2.8507
  182SLPC  H13B20806   0.954   0.508  10.584 -0.2896  0.2695 -0.0944
  182SLPC  H13C20807   0.842   0.382  10.549  1.0185 -0.6264 -0.9310
  182SLPC   C1420808   0.947   0.467  10.854 -0.2315  0.0789 -0.0208
  182SLPC  H14A20809   1.014   0.545  10.820  1.9357 -1.3161  0.8402
  182SLPC  H14B20810   0.864   0.519  10.899 -1.2650 -0.8156 -0.8438
  182SLPC  H14C20811   0.997   0.415  10.935  0.3716  1.9689  0.8926
  182SLPC   C1520812   1.043   0.300  10.710  0.2457 -0.0452 -1.4713
  182SLPC  H15A20813   1.028   0.226  10.632  0.6536 -2.0012  0.1953
  182SLPC  H15B20814   1.127   0.359  10.676  1.3414  0.0293  1.1622
  182SLPC  H15C20815   1.073   0.249  10.801 -2.2288 -0.0363 -0.5774
  182SLPC   C1220816   0.802   0.279  10.787  0.3269  0.7045 -0.7128
  182SLPC  H12A20817   0.830   0.205  10.860 -2.4634 -0.5108 -0.7552
  182SLPC  H12B20818   0.774   0.223  10.699 -1.0520 -1.7860  1.1940
  182SLPC   C1120819   0.667   0.342  10.841  0.0063  0.5347  0.3544
  182SLPC  H11A20820   0.695   0.390  10.937 -0.9837 -0.7923  1.3392
  182SLPC  H11B20821   0.594   0.269  10.882  1.5263 -0.2809  1.7037
  182SLPC     P20822   0.533   0.356  10.629  0.0062  0.1401 -0.0388
  182SLPC   O1320823   0.601   0.234  10.574 -0.4868 -0.1178 -0.4552
  182SLPC   O1420824   0.384   0.343  10.651 -0.1580 -0.1904  0.2322
  182SLPC   O1220825   0.604   0.431  10.750 -0.1408  0.0576 -0.0942
  182SLPC   O1120826   0.562   0.458  10.508 -0.2504 -0.1123  0.7744
  182SLPC    C120827   0.472   0.573  10.492  0.4844 -0.6926  0.5224
  182SLPC    HA20828   0.398   0.582  10.574 -0.9313 -2.0375 -0.5483
  182SLPC    HB20829   0.527   0.669  10.487 -0.8735  0.0950  0.1066
  182SLPC    C220830   0.394   0.567  10.358  0.2310  0.1723 -0.6240
  182SLPC    HS20831   0.319   0.485  10.357 -1.0756  1.3129 -2.0692
  182SLPC   O2120832   0.492   0.549  10.255 -0.5450  0.1053 -0.4205
  182SLPC   C2120833   0.571   0.641  10.215 -0.0724 -0.5009  0.6271
  182SLPC   O2220834   0.585   0.749  10.263 -0.4538 -0.2019 -0.4590
  182SLPC   C2220835   0.646   0.592  10.089  0.0277  0.0341 -0.1874
  182SLPC   H2R20836   0.703   0.502  10.121 -1.2343 -0.1675  1.6281
  182SLPC   H2S20837   0.556   0.563  10.030 -0.2252  1.3717 -0.4964
  182SLPC    C320838   0.303   0.692  10.345  0.5740  0.0182 -0.3196
  182SLPC    HX20839   0.360   0.781  10.379  0.9812 -1.3026  2.8510
  182SLPC    HY20840   0.216   0.692  10.414  0.2760 -1.0333 -0.6775
  182SLPC   O3120841   0.265   0.695  10.203  0.1877 -0.3247 -0.3910
  182SLPC   C3120842   0.256   0.827  10.159 -0.1915  0.1197 -0.0463
  182SLPC   O3220843   0.216   0.924  10.224 -0.4343 -0.5115  0.7618
  182SLPC   C3220844   0.283   0.824  10.003 -0.2434 -0.1905  0.3625
  182SLPC   H2X20845   0.196   0.769   9.959  0.0094 -0.7140  0.5116
  182SLPC   H2Y20846   0.371   0.758   9.987 -0.1116 -0.2640  1.3741
  182SLPC   C2320847   0.724   0.697  10.014 -0.7639  0.4812 -0.3877
  182SLPC   H3R20848   0.819   0.719  10.066 -1.9145  2.9255  0.8707
  182SLPC   H3S20849   0.658   0.787  10.015 -0.6631  0.5729 -1.2862
  182SLPC   C2420850   0.767   0.677   9.867 -0.8314 -0.5470  0.6139
  182SLPC   H4R20851   0.859   0.616   9.865 -1.9561 -2.3312 -1.9015
  182SLPC   H4S20852   0.795   0.777   9.827  1.2147 -1.6000 -0.7238
  182SLPC   C2520853   0.651   0.623   9.779 -0.4378  0.1531 -0.7244
  182SLPC   H5R20854   0.551   0.660   9.810 -0.2806  0.5383 -0.6787
  182SLPC   H5S20855   0.656   0.512   9.791 -0.1272  0.3569  1.4832
  182SLPC   C2620856   0.678   0.644   9.630 -0.6454 -0.0528 -0.0061
  182SLPC   H6R20857   0.782   0.606   9.630 -0.4366  0.0373  4.1770
  182SLPC   H6S20858   0.678   0.755   9.618  2.6383  0.2226  1.5156
  182SLPC   C2720859   0.584   0.573   9.533 -0.1698 -0.7256 -0.0440
  182SLPC   H7R20860   0.478   0.597   9.557 -0.7570 -1.5296 -1.6486
  182SLPC   H7S20861   0.598   0.467   9.563 -0.3183  0.0786  3.1681
  182SLPC   C2820862   0.605   0.608   9.385 -0.8988  0.2057 -0.2635
  182SLPC   H8R20863   0.596   0.718   9.380 -2.6822  0.0626 -1.0036
  182SLPC   H8S20864   0.523   0.554   9.333 -2.7788  1.0063  1.7396
  182SLPC   C2920865   0.744   0.564   9.343  0.2961  0.5132 -0.1945
  182SLPC   H9R20866   0.825   0.607   9.404 -0.3520  1.0022  0.3412
  182SLPC  C21020867   0.777   0.480   9.246 -0.5632  0.4259  0.3342
  182SLPC  H10R20868   0.886   0.468   9.233 -0.3053  3.0423 -0.5899
  182SLPC  C21120869   0.692   0.395   9.158 -0.0324 -0.0161  0.5481
  182SLPC  H11R20870   0.652   0.458   9.076  2.2260 -0.2915 -0.8397
  182SLPC  H11S20871   0.604   0.351   9.210  0.8442 -0.7219  1.4685
  182SLPC  C21220872   0.782   0.292   9.092 -0.0364 -0.2597  0.1314
  182SLPC  H12R20873   0.867   0.333   9.035  0.1000  0.4313  0.8158
  182SLPC  C21320874   0.735   0.165   9.080 -0.1071 -0.6195  0.2844
  182SLPC  H13R20875   0.790   0.091   9.020 -1.8768 -0.7887 -1.2199
  182SLPC  C21420876   0.605   0.103   9.134 -0.3914  0.2295 -0.0731
  182SLPC  H14R20877   0.555   0.154   9.219 -0.4251  2.0401 -1.1195
  182SLPC  H14S20878   0.624  -0.002   9.166  2.0333  0.3417 -0.9005
  182SLPC  C21520879   0.498   0.085   9.024 -0.1786 -0.6408  0.0707
  182SLPC  H15R20880   0.545   0.027   8.941 -0.2998  0.1219 -0.5438
  182SLPC  H15S20881   0.480   0.189   8.989  0.2104  0.2970  2.4392
  182SLPC  C21620882   0.378   0.005   9.076  0.7564  0.2615 -0.5764
  182SLPC  H16R20883   0.351   0.031   9.180  3.4669  1.5889 -0.1133
  182SLPC  H16S20884   0.421  -0.097   9.090  0.8135  0.2810 -0.6090
  182SLPC  C21720885   0.264  -0.003   8.969 -0.5626 -0.0320  0.3061
  182SLPC  H17R20886   0.195  -0.086   8.994  1.4530 -1.5133  1.2422
  182SLPC  H17S20887   0.307  -0.019   8.867  0.1524 -0.3344  0.6489
  182SLPC  C21820888   0.166   0.119   8.967  0.3101  0.3384 -0.2738
  182SLPC  H18R20889   0.082   0.102   8.896  1.5807  0.2736 -1.8151
  182SLPC  H18S20890   0.194   0.222   8.937 -1.3851  1.4627  1.7444
  182SLPC  H18T20891   0.113   0.121   9.065 -1.6731 -2.0046 -1.1894
  182SLPC   C3320892   0.305   0.953   9.924 -0.4518  0.0024 -0.2339
  182SLPC   H3X20893   0.398   1.008   9.949 -1.2902 -0.2083  4.3502
  182SLPC   H3Y20894   0.220   1.017   9.955  0.4130  0.8841  0.3701
  182SLPC   C3420895   0.295   0.934   9.773 -0.5781 -0.0356 -0.0835
  182SLPC   H4X20896   0.346   0.839   9.746 -0.1546  0.3744 -0.7805
  182SLPC   H4Y20897   0.358   1.011   9.723  0.7407 -0.7201  0.4781
  182SLPC   C3520898   0.157   0.916   9.717  0.3659 -0.4223 -0.3517
  182SLPC   H5X20899   0.106   1.014   9.703 -1.6253 -1.3232  0.3354
  182SLPC   H5Y20900   0.099   0.860   9.794 -0.6792  1.1372  0.0447
  182SLPC   C3620901   0.143   0.831   9.593  0.1570  0.8050  0.6158
  182SLPC   H6X20902   0.037   0.807   9.570  0.5062 -0.4214  0.1501
  182SLPC   H6Y20903   0.197   0.738   9.624  0.6647  1.9945  3.6192
  182SLPC   C3720904   0.204   0.894   9.467  0.6123  0.5721  0.0610
  182SLPC   H7X20905   0.311   0.912   9.491  1.1603 -0.1246 -1.6944
  182SLPC   H7Y20906   0.141   0.985   9.459  1.0740  0.8156 -1.0795
  182SLPC   C3820907   0.210   0.808   9.349  0.2878  0.2389  0.4637
  182SLPC   H8X20908   0.110   0.761   9.333  0.3017  0.6143 -0.9082
  182SLPC   H8Y20909   0.271   0.720   9.376  0.8516  0.4058 -0.2365
  182SLPC   C3920910   0.255   0.876   9.214  0.4737 -0.2022 -0.2879
  182SLPC   H9X20911   0.234   0.803   9.133  0.1994 -1.4664  0.8978
  182SLPC   H9Y20912   0.366   0.881   9.212  0.4898  1.5668  1.7169
  182SLPC  C31020913   0.214   1.008   9.174 -0.5092 -0.0770  0.1884
  182SLPC  H10X20914   0.268   1.084   9.235 -1.0589  1.5282 -1.2366
  182SLPC  H10Y20915   0.107   1.017   9.200 -0.3119  0.5618  0.8124
  182SLPC  C31120916   0.225   1.028   9.026  0.2159 -0.4152  0.1667
  182SLPC  H11X20917   0.164   1.117   9.000  1.1111  0.5551  1.2600
  182SLPC  H11Y20918   0.179   0.938   8.980 -2.8191 -0.9625  3.7657
  182SLPC  C31220919   0.366   1.053   8.963  0.4422 -0.7208  0.2969
  182SLPC  H12X20920   0.433   0.965   8.971 -0.6655 -1.4734  1.7999
  182SLPC  H12Y20921   0.411   1.139   9.018 -0.1617  0.3188 -0.7857
  182SLPC  C31320922   0.360   1.091   8.815  0.1604 -0.1795 -0.5551
  182SLPC  H13X20923   0.309   1.190   8.816 -1.5363 -1.0117  1.5501
  182SLPC  H13Y20924   0.286   1.019   8.776  0.3439  0.1476 -1.5415
  182SLPC  C31420925   0.496   1.099   8.740  0.5999  0.7692 -0.4155
  182SLPC  H14X20926   0.535   0.997   8.717 -0.5802  0.5385 -1.5544
  182SLPC  H14Y20927   0.572   1.146   8.805 -0.5241 -1.8309  3.0755
  182SLPC  C31520928   0.473   1.168   8.607  0.3653  0.3628  0.2992
  182SLPC  H15X20929   0.401   1.101   8.554  1.0453 -0.0962 -0.0595
  182SLPC  H15Y20930   0.567   1.162   8.548 -0.1456 -1.4592 -0.4116
  182SLPC  C31620931   0.418   1.309   8.609 -0.4581 -0.3314 -0.3698
  182SLPC  H16X20932   0.462   1.363   8.696 -0.2505  0.7428 -1.1230
  182SLPC  H16Y20933   0.308   1.309   8.623 -0.2802 -0.5901  1.1371
  182SLPC  C31720934   0.453   1.401   8.484  0.2962 -1.4249  0.1930
  182SLPC  H17X20935   0.439   1.336   8.395 -3.3990  0.8958 -1.1558
  182SLPC  H17Y20936   0.561   1.428   8.480  0.4615 -2.1317 -0.2895
  182SLPC  C31820937   0.378   1.532   8.466 -0.2567 -0.3935  0.2534
  182SLPC  H18X20938   0.268   1.519   8.469 -0.2395 -0.5150  0.3739
  182SLPC  H18Y20939   0.416   1.577   8.371  2.8886  0.3994  1.7505
  182SLPC  H18Z20940   0.391   1.600   8.553 -0.5983 -0.5568  0.4330
  183SLPC     N20941   4.362   3.529  11.015 -1.2934  0.0507  0.1196
  183SLPC   C1320942   4.229   3.463  11.012  0.2411  0.3561 -0.2906
  183SLPC  H13A20943   4.199   3.435  11.111  0.0912  1.5533  0.0096
  183SLPC  H13B20944   4.145   3.508  10.962 -2.1721 -2.5880  0.7987
  183SLPC  H13C20945   4.233   3.365  10.965 -1.7999  0.7045 -1.3178
  183SLPC   C1420946   4.442   3.451  11.124  0.0697  0.7965  0.1752
  183SLPC  H14A20947   4.461   3.351  11.087  0.5388  0.4734  1.2620
  183SLPC  H14B20948   4.528   3.504  11.161 -0.4730  0.7051  1.6376
  183SLPC  H14C20949   4.371   3.443  11.205 -0.3606 -0.3651 -0.2980
  183SLPC   C1520950   4.355   3.667  11.067 -0.3857 -0.4654  0.0347
  183SLPC  H15A20951   4.310   3.735  10.997 -0.1282  0.2918  0.5881
  183SLPC  H15B20952   4.276   3.661  11.140 -1.6164  0.2786 -1.1896
  183SLPC  H15C20953   4.443   3.712  11.110 -1.3507 -1.1716  2.9750
  183SLPC   C1220954   4.431   3.530  10.884  0.6454  0.0565  0.3705
  183SLPC  H12A20955   4.525   3.580  10.864  0.6191  0.3955  1.0655
  183SLPC  H12B20956   4.357   3.575  10.820 -0.2863  0.5926  1.7720
  183SLPC   C1120957   4.458   3.391  10.817  0.9253 -0.0419 -0.1848
  183SLPC  H11A20958   4.475   3.405  10.708  1.7025 -1.8114 -0.3286
  183SLPC  H11B20959   4.365   3.330  10.824  1.5701 -1.1358 -0.8847
  183SLPC     P20960   4.703   3.346  10.840 -0.2478 -0.1063  0.3714
  183SLPC   O1320961   4.729   3.484  10.886  0.0295 -0.3405  0.4110
  183SLPC   O1420962   4.789   3.242  10.899 -0.2789 -0.2210  0.0584
  183SLPC   O1220963   4.559   3.307  10.875  0.4332 -0.0635  0.2439
  183SLPC   O1120964   4.708   3.344  10.684  0.7280 -0.2294 -0.0684
  183SLPC    C120965   4.672   3.225  10.614 -0.0460  0.2235 -0.2747
  183SLPC    HA20966   4.716   3.138  10.668  1.4963  0.5669 -0.9297
  183SLPC    HB20967   4.564   3.202  10.622 -0.1997  1.2673  1.0108
  183SLPC    C220968   4.716   3.220  10.464 -0.4098  0.1576 -0.4099
  183SLPC    HS20969   4.827   3.231  10.465 -0.2004 -1.5879  1.0884
  183SLPC   O2120970   4.650   3.337  10.407  0.2007 -0.6094  0.3433
  183SLPC   C2120971   4.715   3.449  10.415 -0.5985 -0.2505 -0.1942
  183SLPC   O2220972   4.831   3.478  10.445  0.3230 -0.4249  0.2492
  183SLPC   C2220973   4.611   3.567  10.399  0.0096  0.3701  0.7306
  183SLPC   H2R20974   4.523   3.526  10.345  1.1612 -0.8078 -0.3053
  183SLPC   H2S20975   4.580   3.605  10.499  0.6710 -0.5095  1.2912
  183SLPC    C320976   4.679   3.080  10.399 -0.3471 -0.7743 -0.2362
  183SLPC    HX20977   4.573   3.049  10.407 -1.1350  0.9997 -2.7049
  183SLPC    HY20978   4.739   3.005  10.454  0.1050  0.6678  1.3199
  183SLPC   O3120979   4.727   3.075  10.266 -0.6753 -0.7095  0.0675
  183SLPC   C3120980   4.643   3.125  10.172  0.2818  0.0296 -0.1125
  183SLPC   O3220981   4.527   3.154  10.188 -0.3421  0.3509 -0.0671
  183SLPC   C3220982   4.724   3.143  10.042 -0.4096  0.2604 -0.4951
  183SLPC   H2X20983   4.781   3.051  10.017  2.8672  1.7796  0.8000
  183SLPC   H2Y20984   4.795   3.229  10.040  2.0744 -1.6860 -1.2715
  183SLPC   C2320985   4.661   3.689  10.309  0.5227 -0.1510 -0.5057
  183SLPC   H3R20986   4.760   3.713  10.355  0.9841 -1.8036 -0.5439
  183SLPC   H3S20987   4.587   3.770  10.321  0.2251 -0.5729  0.6321
  183SLPC   C2420988   4.683   3.652  10.160 -0.0723  0.0331 -0.7423
  183SLPC   H4R20989   4.693   3.748  10.106 -1.0146  1.6331  1.7794
  183SLPC   H4S20990   4.589   3.606  10.120 -0.9947  2.0376 -1.0082
  183SLPC   C2520991   4.802   3.563  10.129  0.7732  0.1561 -0.3225
  183SLPC   H5R20992   4.787   3.457  10.159  2.3781 -0.0297 -0.1041
  183SLPC   H5S20993   4.887   3.590  10.195  0.5467 -0.9044  0.4202
  183SLPC   C2620994   4.828   3.576   9.985 -0.1836 -0.5101 -0.1616
  183SLPC   H6R20995   4.927   3.529   9.966  0.4486  1.2108 -1.4188
  183SLPC   H6S20996   4.855   3.683   9.974 -1.4359  0.2994  3.4868
  183SLPC   C2720997   4.718   3.541   9.884 -0.0257  0.0089 -0.4402
  183SLPC   H7R20998   4.639   3.619   9.886  0.5720  0.6881  2.8970
  183SLPC   H7S20999   4.666   3.451   9.922  0.7897  0.2947  1.5205
  183SLPC   C2821000   4.761   3.523   9.733  0.3598  0.2209 -0.1128
  183SLPC   H8R21001   4.684   3.471   9.671  2.4829  0.4171 -3.1154
  183SLPC   H8S21002   4.842   3.448   9.737  0.8859  0.7620  4.9914
  183SLPC   C2921003   4.798   3.654   9.663  0.2418 -0.1030 -0.3264
  183SLPC   H9R21004   4.859   3.719   9.727 -1.7667  1.0876  0.4680
  183SLPC  C21021005   4.736   3.714   9.556 -0.9369 -0.2284 -0.5256
  183SLPC  H10R21006   4.779   3.810   9.526 -0.7104  0.9976  3.2613
  183SLPC  C21121007   4.645   3.651   9.455  0.1472  0.2857  0.2335
  183SLPC  H11R21008   4.576   3.730   9.419  1.8256  1.8168  0.2080
  183SLPC  H11S21009   4.587   3.568   9.500  1.2739  0.2937  1.7895
  183SLPC  C21221010   4.721   3.600   9.337  0.4553 -0.3136 -0.0485
  183SLPC  H12R21011   4.786   3.512   9.348  1.7630  0.5914 -0.3323
  183SLPC  C21321012   4.747   3.664   9.220  0.2774 -0.0066 -0.0025
  183SLPC  H13R21013   4.796   3.608   9.138  1.6169  0.6461  0.3259
  183SLPC  C21421014   4.707   3.795   9.163  0.1803 -0.0433  0.0388
  183SLPC  H14R21015   4.801   3.854   9.164  0.6444 -0.6597  2.6950
  183SLPC  H14S21016   4.634   3.863   9.213  0.8199  0.3357  0.4792
  183SLPC  C21521017   4.669   3.789   9.019 -0.2294 -0.0491  0.0424
  183SLPC  H15R21018   4.758   3.781   8.954 -0.4754 -2.0619 -0.0937
  183SLPC  H15S21019   4.619   3.885   8.992  2.4262  2.1611  2.2831
  183SLPC  C21621020   4.564   3.678   8.984  0.5403  0.3185 -0.3585
  183SLPC  H16R21021   4.604   3.576   8.999 -2.0143 -0.5151  1.5087
  183SLPC  H16S21022   4.534   3.694   8.878 -1.1423  0.3655  0.0853
  183SLPC  C21721023   4.436   3.700   9.065 -0.1855 -0.2716 -0.5284
  183SLPC  H17R21024   4.434   3.811   9.071  1.6778 -0.2582  1.0767
  183SLPC  H17S21025   4.450   3.674   9.173 -2.3449 -1.5203 -0.4770
  183SLPC  C21821026   4.313   3.643   9.006 -0.4765  0.0050 -0.2277
  183SLPC  H18R21027   4.344   3.540   8.977 -1.2832 -0.0998 -0.7271
  183SLPC  H18S21028   4.284   3.697   8.914 -3.2730  1.1797  1.2276
  183SLPC  H18T21029   4.229   3.641   9.079  2.4668 -0.6408  3.5027
  183SLPC   C3321030   4.626   3.160   9.922 -0.1974 -0.4396  0.4291
  183SLPC   H3X21031   4.547   3.238   9.934  1.4564  1.1234  1.9233
  183SLPC   H3Y21032   4.569   3.066   9.907 -0.9066  0.1893 -1.1021
  183SLPC   C3421033   4.705   3.168   9.791  0.0868 -0.5426 -0.1985
  183SLPC   H4X21034   4.763   3.073   9.782 -0.8786 -1.3843  1.8764
  183SLPC   H4Y21035   4.783   3.247   9.800  0.6923 -1.2326  0.8288
  183SLPC   C3521036   4.611   3.195   9.665  0.4837  0.3973 -0.2308
  183SLPC   H5X21037   4.554   3.290   9.674  0.8485  0.4774  1.9245
  183SLPC   H5Y21038   4.532   3.118   9.668 -1.1606  1.9434 -1.4594
  183SLPC   C3621039   4.696   3.192   9.531 -0.7565  0.6668 -0.9254
  183SLPC   H6X21040   4.739   3.089   9.526 -2.3066 -0.1420  1.1239
  183SLPC   H6Y21041   4.774   3.271   9.539  1.1943 -0.9662 -2.6212
  183SLPC   C3721042   4.611   3.235   9.403 -0.2167 -0.2020 -0.2141
  183SLPC   H7X21043   4.563   3.333   9.426  0.3978  0.8780 -3.1190
  183SLPC   H7Y21044   4.524   3.166   9.407  0.6565 -1.2755  1.6353
  183SLPC   C3821045   4.676   3.225   9.264 -0.4076  0.5439  1.0134
  183SLPC   H8X21046   4.710   3.119   9.255 -2.1224 -0.2359  2.8041
  183SLPC   H8Y21047   4.756   3.301   9.259 -0.3677  0.4734  0.5680
  183SLPC   C3921048   4.585   3.254   9.147  0.3273  0.0899  0.8612
  183SLPC   H9X21049   4.560   3.362   9.161  2.6511  0.9480 -0.8721
  183SLPC   H9Y21050   4.495   3.191   9.160  0.2056  0.4151  1.7017
  183SLPC  C31021051   4.653   3.236   9.010 -0.3517  0.3730  0.0615
  183SLPC  H10X21052   4.671   3.126   9.004 -2.1835  0.0062  0.6163
  183SLPC  H10Y21053   4.740   3.304   9.010 -0.0805  0.0416 -0.7559
  183SLPC  C31121054   4.556   3.271   8.897 -0.2760 -0.5589 -0.3084
  183SLPC  H11X21055   4.487   3.348   8.936  0.3541 -0.5051  0.7336
  183SLPC  H11Y21056   4.492   3.183   8.874  0.1531 -1.2769  1.1368
  183SLPC  C31221057   4.619   3.322   8.767 -0.4597 -0.6227  0.0080
  183SLPC  H12X21058   4.687   3.248   8.720  3.1017  2.5899 -0.3745
  183SLPC  H12Y21059   4.700   3.396   8.784  0.8288 -1.9891  0.0270
  183SLPC  C31321060   4.523   3.363   8.661 -0.5690 -0.1664 -0.7048
  183SLPC  H13X21061   4.565   3.453   8.610  1.7772  0.0984  1.5235
  183SLPC  H13Y21062   4.439   3.409   8.716  1.1389  1.2955  0.8047
  183SLPC  C31421063   4.487   3.257   8.559 -0.2559 -0.1222 -0.0335
  183SLPC  H14X21064   4.433   3.173   8.607  2.1064 -1.7262 -0.0187
  183SLPC  H14Y21065   4.588   3.231   8.519  0.3800  0.3828  1.1941
  183SLPC  C31521066   4.406   3.324   8.438 -0.4605  0.8783  0.1236
  183SLPC  H15X21067   4.482   3.393   8.395 -0.4308 -0.1767 -1.6161
  183SLPC  H15Y21068   4.325   3.384   8.485 -1.3931  1.7673 -2.4456
  183SLPC  C31621069   4.356   3.234   8.326  0.0139 -0.5975  0.6485
  183SLPC  H16X21070   4.302   3.298   8.254  0.2211 -0.3469  0.7122
  183SLPC  H16Y21071   4.288   3.157   8.368 -1.0548  0.5292  1.0436
  183SLPC  C31721072   4.473   3.180   8.238  0.0362  0.2175 -0.1586
  183SLPC  H17X21073   4.562   3.244   8.258 -0.2856  1.1528 -1.6115
  183SLPC  H17Y21074   4.458   3.190   8.129  0.7344 -0.6893 -0.3505
  183SLPC  C31821075   4.504   3.039   8.267  0.1120 -0.6578  0.2192
  183SLPC  H18X21076   4.409   2.981   8.264  0.5289 -1.3526 -2.7911
  183SLPC  H18Y21077   4.542   3.031   8.372 -1.2979  1.6375  0.9836
  183SLPC  H18Z21078   4.570   2.986   8.195  0.4931  0.0630  0.0344
  184SLPC     N21079   5.012   6.660  10.998  0.3481 -0.3661 -0.1988
  184SLPC   C1321080   4.871   6.610  10.978 -1.3298 -0.4986  0.7748
  184SLPC  H13A21081   4.823   6.561  11.062 -1.0388 -1.2874  0.4968
  184SLPC  H13B21082   4.806   6.682  10.931 -0.9308  0.5294  1.7614
  184SLPC  H13C21083   4.870   6.527  10.909 -0.5759 -0.8706  1.2005
  184SLPC   C1421084   5.094   6.533  11.036  0.6775 -0.3897 -0.2062
  184SLPC  H14A21085   5.091   6.449  10.968 -1.6457 -0.8857  0.4012
  184SLPC  H14B21086   5.199   6.550  11.054  0.6583  0.9350 -1.1840
  184SLPC  H14C21087   5.056   6.493  11.129 -1.0136 -0.3949 -0.8584
  184SLPC   C1521088   5.012   6.756  11.114  0.0620 -0.1607 -0.1563
  184SLPC  H15A21089   4.973   6.707  11.203  0.3714  1.0257  0.6639
  184SLPC  H15B21090   5.111   6.793  11.136  0.1950  0.8673 -2.2631
  184SLPC  H15C21091   4.951   6.843  11.095 -1.2238 -1.2298 -1.1201
  184SLPC   C1221092   5.073   6.717  10.876  0.5694 -0.0588  0.1766
  184SLPC  H12A21093   5.005   6.772  10.813  0.9619 -0.3238 -0.4831
  184SLPC  H12B21094   5.100   6.635  10.811 -1.2034  0.1770 -0.9311
  184SLPC   C1121095   5.199   6.810  10.882  0.4201 -0.0876 -0.1256
  184SLPC  H11A21096   5.173   6.899  10.943  0.7588  0.1694 -0.3466
  184SLPC  H11B21097   5.221   6.838  10.777  1.6934 -1.5118 -0.2705
  184SLPC     P21098   5.414   6.659  10.879  0.1449 -0.5972 -0.3743
  184SLPC   O1321099   5.544   6.684  10.941 -0.4589 -0.2189  0.6067
  184SLPC   O1421100   5.373   6.518  10.878 -0.4389 -0.3188  0.2370
  184SLPC   O1221101   5.312   6.748  10.946 -0.2618 -0.5784  0.0116
  184SLPC   O1121102   5.422   6.692  10.725  0.2931 -0.0569  0.5263
  184SLPC    C121103   5.517   6.783  10.679 -0.4695  0.1611  0.9348
  184SLPC    HA21104   5.470   6.882  10.661  2.1392  1.6801  1.8756
  184SLPC    HB21105   5.607   6.796  10.743  1.1402  1.3237 -1.4108
  184SLPC    C221106   5.589   6.740  10.553  0.3350  0.5223  0.5176
  184SLPC    HS21107   5.652   6.830  10.534 -0.9728  1.4689  0.5108
  184SLPC   O2121108   5.491   6.715  10.449 -0.6552  0.2365 -0.0747
  184SLPC   C2121109   5.469   6.817  10.369 -0.7629 -0.5538  0.4116
  184SLPC   O2221110   5.515   6.930  10.383 -0.5770 -0.5857  0.4194
  184SLPC   C2221111   5.376   6.774  10.257  0.3681 -0.1149 -0.1903
  184SLPC   H2R21112   5.381   6.664  10.246  2.0490 -0.0494 -0.3866
  184SLPC   H2S21113   5.275   6.794  10.297  0.8725  0.8013  0.6682
  184SLPC    C321114   5.679   6.623  10.576 -0.8494 -0.0282 -0.0948
  184SLPC    HX21115   5.609   6.557  10.632  0.0484 -4.5250 -3.6239
  184SLPC    HY21116   5.765   6.639  10.643  0.6564 -2.2295 -1.3722
  184SLPC   O3121117   5.728   6.567  10.451 -0.1474  0.1838  0.6718
  184SLPC   C3121118   5.731   6.429  10.448  0.3010 -0.1363  0.3231
  184SLPC   O3221119   5.689   6.352  10.531  0.1307 -0.0631 -0.1740
  184SLPC   C3221120   5.775   6.386  10.308  0.4820  0.9602  0.4111
  184SLPC   H2X21121   5.737   6.283  10.289  0.9101  1.0194 -0.8929
  184SLPC   H2Y21122   5.883   6.399  10.286  0.0649  0.8989 -2.0231
  184SLPC   C2321123   5.395   6.849  10.122 -0.0031 -0.3571 -0.5326
  184SLPC   H3R21124   5.408   6.959  10.133 -1.9497 -0.1708  0.2196
  184SLPC   H3S21125   5.305   6.828  10.062 -0.8449 -1.5442  1.0570
  184SLPC   C2421126   5.514   6.796  10.044 -0.0773  0.4843  0.3395
  184SLPC   H4R21127   5.510   6.686  10.027  1.4576  0.5775 -0.8047
  184SLPC   H4S21128   5.609   6.823  10.095 -0.7560  0.9877  1.3655
  184SLPC   C2521129   5.520   6.861   9.905 -0.5218 -0.2996 -0.3053
  184SLPC   H5R21130   5.527   6.972   9.911  1.8594 -0.1499 -3.3920
  184SLPC   H5S21131   5.430   6.835   9.844 -1.4717  1.2692  0.3546
  184SLPC   C2621132   5.646   6.813   9.833 -0.4451  0.1796  0.7041
  184SLPC   H6R21133   5.639   6.702   9.843  1.6690 -0.1644 -0.8962
  184SLPC   H6S21134   5.737   6.851   9.885 -0.1044 -1.4386  1.3534
  184SLPC   C2721135   5.643   6.841   9.681 -0.5768 -0.7428 -0.2258
  184SLPC   H7R21136   5.621   6.949   9.667  2.2114  0.0735  1.1003
  184SLPC   H7S21137   5.546   6.796   9.651 -1.6049  1.3519 -0.2194
  184SLPC   C2821138   5.740   6.784   9.587 -0.2450 -0.0314  0.6758
  184SLPC   H8R21139   5.723   6.811   9.481 -0.7329 -0.3247  0.6806
  184SLPC   H8S21140   5.725   6.675   9.592  2.1566 -0.4645 -0.0219
  184SLPC   C2921141   5.873   6.844   9.616  0.4779  0.0737  0.1138
  184SLPC   H9R21142   5.886   6.952   9.597  1.1126 -0.1502 -0.7762
  184SLPC  C21021143   5.981   6.779   9.650  0.5300  0.3217  0.2606
  184SLPC  H10R21144   6.072   6.839   9.666  0.7758  0.0522 -0.1176
  184SLPC  C21121145   5.998   6.628   9.673 -0.5573 -0.2397 -0.2313
  184SLPC  H11R21146   6.028   6.582   9.576 -0.2163  1.1562 -0.8101
  184SLPC  H11S21147   5.897   6.584   9.689 -1.6830  1.3069 -2.5057
  184SLPC  C21221148   6.100   6.602   9.789  1.1060  0.0058 -0.3311
  184SLPC  H12R21149   6.078   6.648   9.886  2.4292  0.1910 -0.1074
  184SLPC  C21321150   6.202   6.522   9.776 -0.0040 -0.6557 -1.1819
  184SLPC  H13R21151   6.265   6.495   9.862  0.6910 -2.4668 -2.2153
  184SLPC  C21421152   6.248   6.454   9.652 -0.3267  0.5129 -0.5863
  184SLPC  H14R21153   6.349   6.479   9.612  0.1617  0.4894  0.5916
  184SLPC  H14S21154   6.191   6.478   9.560 -0.3782  0.6585 -0.5151
  184SLPC  C21521155   6.234   6.301   9.664  0.1542  0.0793  0.1275
  184SLPC  H15R21156   6.137   6.290   9.716  0.0497  1.1968  0.1985
  184SLPC  H15S21157   6.322   6.269   9.725  1.4278  1.7513 -0.7537
  184SLPC  C21621158   6.229   6.258   9.525  0.0529  0.5906  0.3027
  184SLPC  H16R21159   6.321   6.282   9.468 -0.5711  0.9793 -0.5713
  184SLPC  H16S21160   6.146   6.315   9.478 -0.5173 -0.4399  0.0241
  184SLPC  C21721161   6.193   6.109   9.510 -0.0441 -0.3221  0.6284
  184SLPC  H17R21162   6.150   6.095   9.408  1.4230  0.1154 -0.0700
  184SLPC  H17S21163   6.117   6.083   9.587  0.8899  0.9151  2.0282
  184SLPC  C21821164   6.321   6.014   9.525  0.5336  0.3076 -0.1621
  184SLPC  H18R21165   6.270   5.915   9.520  2.5025 -0.9747  2.6037
  184SLPC  H18S21166   6.371   6.016   9.623 -2.0944  0.6349  1.2651
  184SLPC  H18T21167   6.398   6.032   9.447 -2.0099  1.5625 -2.5795
  184SLPC   C3321168   5.716   6.472  10.188 -0.1792 -0.2551 -0.5407
  184SLPC   H3X21169   5.744   6.579  10.197  0.1379 -0.0175 -3.4430
  184SLPC   H3Y21170   5.605   6.468  10.189 -0.2451  0.0682  2.2096
  184SLPC   C3421171   5.767   6.430  10.051 -0.9492  0.6596 -0.0580
  184SLPC   H4X21172   5.875   6.413  10.068 -1.1691 -0.2962  0.4725
  184SLPC   H4Y21173   5.761   6.509   9.973  3.8521 -0.1835 -1.6244
  184SLPC   C3521174   5.710   6.302   9.992 -0.3238 -0.3244 -0.7858
  184SLPC   H5X21175   5.602   6.315   9.971 -0.5276  1.2705  1.0097
  184SLPC   H5Y21176   5.720   6.214  10.059  0.2422 -0.8092 -1.4897
  184SLPC   C3621177   5.782   6.258   9.859  0.1678 -0.5578 -0.3619
  184SLPC   H6X21178   5.772   6.147   9.859  0.3937 -0.5786 -0.1788
  184SLPC   H6Y21179   5.890   6.281   9.865  0.4368 -1.0991 -2.3806
  184SLPC   C3721180   5.723   6.304   9.719 -0.5471  0.5079  0.1961
  184SLPC   H7X21181   5.710   6.414   9.733 -1.1731  0.5705 -0.7695
  184SLPC   H7Y21182   5.621   6.263   9.700  0.9840 -3.4839 -0.3666
  184SLPC   C3821183   5.818   6.267   9.601 -0.2025 -0.4087 -0.1600
  184SLPC   H8X21184   5.833   6.157   9.588 -1.7990 -0.6258 -0.3363
  184SLPC   H8Y21185   5.918   6.310   9.622 -1.7644  1.9872  3.2270
  184SLPC   C3921186   5.766   6.307   9.463  0.0505 -0.1546  0.3818
  184SLPC   H9X21187   5.749   6.416   9.475  0.2726 -0.0562 -0.1900
  184SLPC   H9Y21188   5.665   6.267   9.436 -0.5659  1.8247 -0.3782
  184SLPC  C31021189   5.857   6.277   9.344  0.1757 -0.3904 -0.4169
  184SLPC  H10X21190   5.854   6.166   9.334  1.0618 -0.4409 -0.2504
  184SLPC  H10Y21191   5.965   6.297   9.365 -0.0451 -0.4174  0.7884
  184SLPC  C31121192   5.824   6.345   9.211  0.3689  0.2992  0.4499
  184SLPC  H11X21193   5.838   6.455   9.225  2.4099  0.2032 -0.5425
  184SLPC  H11Y21194   5.723   6.318   9.173  1.5335 -0.8412 -2.0480
  184SLPC  C31221195   5.921   6.301   9.101 -0.4395  0.8112  0.1022
  184SLPC  H12X21196   6.029   6.302   9.124 -0.4735  1.4188  0.2751
  184SLPC  H12Y21197   5.913   6.369   9.013 -0.4629  0.7040  0.0213
  184SLPC  C31321198   5.888   6.158   9.051  0.4959  0.5524 -0.1578
  184SLPC  H13X21199   5.778   6.153   9.040  0.3660  1.1492  0.8185
  184SLPC  H13Y21200   5.902   6.095   9.141 -2.1086  2.7892  1.9775
  184SLPC  C31421201   5.969   6.110   8.932 -0.8576  0.0756  0.1823
  184SLPC  H14X21202   5.945   6.001   8.939  1.9635 -0.7854 -1.7398
  184SLPC  H14Y21203   6.075   6.120   8.962 -0.5644  1.5526 -1.2450
  184SLPC  C31521204   5.940   6.171   8.795  0.2610 -0.7825  0.3402
  184SLPC  H15X21205   5.947   6.282   8.796  2.0587 -0.8216 -1.4586
  184SLPC  H15Y21206   5.830   6.157   8.783 -0.0576 -1.3912  3.2662
  184SLPC  C31621207   6.022   6.110   8.675 -0.1287 -0.6599 -0.3795
  184SLPC  H16X21208   6.129   6.127   8.701 -0.5609 -0.2487  1.2005
  184SLPC  H16Y21209   5.985   6.152   8.579  2.0635  1.6639 -0.3397
  184SLPC  C31721210   5.996   5.954   8.645  0.1298 -0.5137  0.9282
  184SLPC  H17X21211   5.887   5.936   8.631 -0.4416  2.1862  1.4594
  184SLPC  H17Y21212   6.034   5.897   8.733  0.6107  0.5555  1.4321
  184SLPC  C31821213   6.058   5.895   8.511  0.2575  0.1161  0.2847
  184SLPC  H18X21214   6.007   5.950   8.429 -1.4746 -1.8041 -0.0091
  184SLPC  H18Y21215   6.054   5.785   8.504  0.8991  0.1749 -3.7746
  184SLPC  H18Z21216   6.163   5.928   8.494 -0.2254  1.4182 -0.3488
  185SLPC     N21217   4.386   3.865   6.201  0.1686 -0.0819  0.1046
  185SLPC   C1321218   4.319   3.786   6.091  0.1390 -0.5069 -0.5890
  185SLPC  H13A21219   4.219   3.770   6.127 -0.0552  2.5877  0.5874
  185SLPC  H13B21220   4.310   3.840   5.998 -1.7246  2.2678  1.0556
  185SLPC  H13C21221   4.368   3.689   6.088  0.5210 -0.5921  3.1967
  185SLPC   C1421222   4.516   3.910   6.132 -0.0236  0.8972 -0.8390
  185SLPC  H14A21223   4.585   3.831   6.107  1.4929  1.7636  0.4478
  185SLPC  H14B21224   4.494   3.963   6.040 -0.0579 -0.4353 -1.6247
  185SLPC  H14C21225   4.572   3.976   6.196  1.4134  1.5232 -2.6417
  185SLPC   C1521226   4.440   3.784   6.312  0.1732 -0.3242  0.1381
  185SLPC  H15A21227   4.506   3.849   6.368 -2.4722  0.9888  1.9767
  185SLPC  H15B21228   4.363   3.734   6.369  2.5082 -1.7577  2.1988
  185SLPC  H15C21229   4.495   3.700   6.274 -3.4952 -1.8352 -2.4448
  185SLPC   C1221230   4.309   3.989   6.242  0.4205  0.3096 -0.1459
  185SLPC  H12A21231   4.287   4.045   6.152 -0.2795  2.0361  1.0381
  185SLPC  H12B21232   4.369   4.058   6.299 -0.4960  0.7732  0.2809
  185SLPC   C1121233   4.177   3.967   6.315  0.1623 -0.4450 -0.0181
  185SLPC  H11A21234   4.128   4.067   6.320  0.2306 -0.2498 -2.2751
  185SLPC  H11B21235   4.188   3.920   6.415 -1.9757 -1.5262 -0.2269
  185SLPC     P21236   3.996   3.782   6.283  0.1387  0.0774  0.0381
  185SLPC   O1321237   3.876   3.771   6.196  0.2241  0.3017 -0.3097
  185SLPC   O1421238   4.083   3.664   6.290  0.0070  0.3852  0.1152
  185SLPC   O1221239   4.076   3.902   6.232  0.0162 -0.3702 -0.2660
  185SLPC   O1121240   3.943   3.819   6.425 -0.2508 -0.3062  0.0425
  185SLPC    C121241   3.980   3.763   6.548 -0.5845 -0.1988  0.9279
  185SLPC    HA21242   3.904   3.688   6.579 -1.1905 -0.6636 -1.5251
  185SLPC    HB21243   4.073   3.703   6.546 -1.2269 -1.2808 -2.5855
  185SLPC    C221244   3.979   3.863   6.668  0.3162 -0.2437  0.3679
  185SLPC    HS21245   3.874   3.872   6.703  0.5216  0.8757  0.7297
  185SLPC   O2121246   4.045   3.982   6.625 -0.7921  0.2370 -0.4327
  185SLPC   C2121247   3.992   4.087   6.685 -0.1619 -0.6752 -0.2924
  185SLPC   O2221248   3.916   4.080   6.779 -0.2400 -0.3712  0.4831
  185SLPC   C2221249   4.062   4.218   6.646 -0.4236  0.5225  0.0787
  185SLPC   H2R21250   4.168   4.223   6.678  0.2140 -0.3336 -1.7610
  185SLPC   H2S21251   4.059   4.236   6.536 -0.1133  1.3855  0.2004
  185SLPC    C321252   4.073   3.807   6.776  0.1019  0.4255  0.2935
  185SLPC    HX21253   4.177   3.805   6.737  0.3263  0.5996  0.8681
  185SLPC    HY21254   4.057   3.700   6.801 -1.0366  0.9294  1.9035
  185SLPC   O3121255   4.058   3.884   6.895 -0.5020  0.7158  0.3304
  185SLPC   C3121256   3.953   3.859   6.977  0.3174  0.6362  0.4190
  185SLPC   O3221257   3.875   3.764   6.969 -0.0746  0.0878 -0.0712
  185SLPC   C3221258   3.946   3.974   7.075 -0.1977  0.3908  0.2159
  185SLPC   H2X21259   3.950   4.071   7.021  3.2334  1.8435  2.7265
  185SLPC   H2Y21260   4.033   3.974   7.144  0.1295 -0.8525 -0.1748
  185SLPC   C2321261   3.985   4.351   6.698 -0.4196  0.3586 -0.4494
  185SLPC   H3R21262   3.878   4.324   6.713 -0.3882  1.2891  1.9170
  185SLPC   H3S21263   3.985   4.442   6.636 -1.9217  0.6095 -0.1408
  185SLPC   C2421264   4.046   4.388   6.839 -0.0914  1.1511 -0.3793
  185SLPC   H4R21265   4.157   4.391   6.831  0.1236 -0.3925  1.4730
  185SLPC   H4S21266   4.017   4.306   6.908 -0.1530  1.1623 -0.3926
  185SLPC   C2521267   4.010   4.524   6.891 -0.2725  0.4916 -0.0502
  185SLPC   H5R21268   3.902   4.550   6.876 -0.0546  2.3583  1.2081
  185SLPC   H5S21269   4.080   4.593   6.840 -0.5913  1.1626  0.4023
  185SLPC   C2621270   4.036   4.523   7.045  0.2312  0.3963  0.5975
  185SLPC   H6R21271   4.063   4.624   7.084  0.0151  0.4644  0.5739
  185SLPC   H6S21272   4.128   4.462   7.059  0.4468  0.5716 -0.0492
  185SLPC   C2721273   3.922   4.457   7.126  0.1915  0.2934  0.2850
  185SLPC   H7R21274   3.898   4.357   7.085 -1.1029  0.9944 -0.7299
  185SLPC   H7S21275   3.834   4.518   7.100  1.3245  1.6662 -0.4727
  185SLPC   C2821276   3.943   4.453   7.278  0.0725 -0.1620  0.3568
  185SLPC   H8R21277   4.040   4.401   7.297 -0.2471 -0.1529  2.2677
  185SLPC   H8S21278   3.867   4.385   7.321 -0.4946  0.5687  0.5282
  185SLPC   C2921279   3.930   4.586   7.340 -0.1681 -0.1821  0.6524
  185SLPC   H9R21280   3.836   4.641   7.322 -0.2006  0.3507  2.3008
  185SLPC  C21021281   4.010   4.644   7.432 -0.1814  0.1329 -0.0419
  185SLPC  H10R21282   3.996   4.748   7.466  2.4158  0.2430  0.8688
  185SLPC  C21121283   4.136   4.587   7.473 -0.2383  0.1131 -0.2330
  185SLPC  H11R21284   4.127   4.482   7.510  0.9516 -1.1693 -3.2990
  185SLPC  H11S21285   4.155   4.642   7.568 -1.9920 -0.2584  0.3740
  185SLPC  C21221286   4.261   4.608   7.399 -0.0750 -0.1893  0.1165
  185SLPC  H12R21287   4.249   4.610   7.290  0.7249  0.1690  0.0333
  185SLPC  C21321288   4.379   4.645   7.443 -0.3419 -0.2431 -0.4388
  185SLPC  H13R21289   4.462   4.652   7.371  0.2778  1.4334  0.3814
  185SLPC  C21421290   4.420   4.652   7.591  0.0780  0.0362 -0.0007
  185SLPC  H14R21291   4.367   4.734   7.644 -0.5392 -0.6921  0.5358
  185SLPC  H14S21292   4.528   4.676   7.599 -0.1385  0.8280  0.7171
  185SLPC  C21521293   4.408   4.530   7.682 -0.1408 -0.1095 -0.3190
  185SLPC  H15R21294   4.508   4.485   7.697  0.5720  0.9695 -1.5865
  185SLPC  H15S21295   4.340   4.449   7.650 -0.3215  0.1573 -0.6227
  185SLPC  C21621296   4.360   4.563   7.830 -0.1352 -0.0088 -0.1970
  185SLPC  H16R21297   4.253   4.593   7.833 -0.6804 -1.6893 -1.5725
  185SLPC  H16S21298   4.424   4.646   7.868  0.4863 -0.3722 -0.4310
  185SLPC  C21721299   4.389   4.441   7.922 -0.3255  0.1727  0.3246
  185SLPC  H17R21300   4.489   4.399   7.896 -0.5171  0.1328 -0.3788
  185SLPC  H17S21301   4.312   4.362   7.908  1.5141 -1.4584 -1.3211
  185SLPC  C21821302   4.402   4.471   8.066 -0.1908 -0.2417 -0.8771
  185SLPC  H18R21303   4.506   4.500   8.091 -0.5690  2.0535 -1.6894
  185SLPC  H18S21304   4.389   4.373   8.116 -1.9361 -0.5705 -1.8648
  185SLPC  H18T21305   4.330   4.545   8.107 -0.6949 -0.6980 -0.9224
  185SLPC   C3321306   3.814   3.980   7.167 -0.5430  0.9166 -0.3075
  185SLPC   H3X21307   3.783   3.884   7.212 -2.6544  1.3591 -0.6970
  185SLPC   H3Y21308   3.721   4.005   7.111 -2.5933 -3.0430  0.9630
  185SLPC   C3421309   3.824   4.073   7.281  0.5007 -0.1765  0.3778
  185SLPC   H4X21310   3.721   4.072   7.324  0.4682  0.1691  0.3121
  185SLPC   H4Y21311   3.850   4.171   7.236  0.8770 -0.1189  0.7169
  185SLPC   C3521312   3.922   4.037   7.388 -1.0049  0.7264  0.5727
  185SLPC   H5X21313   4.015   3.991   7.351 -1.2189 -1.2012  2.2465
  185SLPC   H5Y21314   3.867   3.966   7.454 -1.3317 -1.7050 -2.1181
  185SLPC   C3621315   3.970   4.153   7.484  0.8814 -0.1824 -0.0933
  185SLPC   H6X21316   3.999   4.241   7.422  1.6355  1.8948  3.0125
  185SLPC   H6Y21317   4.056   4.132   7.551  0.9555  1.2540  0.2887
  185SLPC   C3721318   3.855   4.192   7.571 -0.3730 -0.3612  0.0499
  185SLPC   H7X21319   3.855   4.106   7.641  0.7514 -1.0327 -0.7474
  185SLPC   H7Y21320   3.760   4.185   7.514 -1.1721 -3.1580  1.5135
  185SLPC   C3821321   3.891   4.318   7.650  0.5527 -0.1180  0.3129
  185SLPC   H8X21322   3.904   4.409   7.589  0.6051  0.3490  1.0116
  185SLPC   H8Y21323   3.986   4.320   7.708  0.2615  3.1383  0.8409
  185SLPC   C3921324   3.780   4.356   7.755  0.7059 -0.0661  0.3210
  185SLPC   H9X21325   3.781   4.279   7.835 -3.2577 -1.1112 -0.4092
  185SLPC   H9Y21326   3.674   4.351   7.720  1.0352 -0.7826 -0.5995
  185SLPC  C31021327   3.781   4.500   7.819  0.1706 -0.2114 -0.4029
  185SLPC  H10X21328   3.778   4.574   7.737  2.1023  0.3475 -0.0166
  185SLPC  H10Y21329   3.883   4.513   7.862 -0.2110  2.8537 -0.2299
  185SLPC  C31121330   3.684   4.533   7.929  0.1781 -0.4937 -0.4936
  185SLPC  H11X21331   3.581   4.526   7.889  0.8262 -0.3630 -2.2814
  185SLPC  H11Y21332   3.697   4.641   7.953  2.2210 -0.8340  0.1183
  185SLPC  C31221333   3.690   4.453   8.054 -0.4120  0.2601 -0.4844
  185SLPC  H12X21334   3.781   4.462   8.118 -1.0828  0.4701  0.4600
  185SLPC  H12Y21335   3.677   4.343   8.042 -1.1157  0.1251  1.2063
  185SLPC  C31321336   3.575   4.509   8.149  0.2980  0.5762 -0.0354
  185SLPC  H13X21337   3.475   4.508   8.100  0.2911  1.5044 -0.0459
  185SLPC  H13Y21338   3.588   4.616   8.174 -2.4158  0.9353  0.1569
  185SLPC  C31421339   3.556   4.432   8.280 -0.9062  0.1159  0.2252
  185SLPC  H14X21340   3.653   4.436   8.333 -1.5664 -0.1707  1.4873
  185SLPC  H14Y21341   3.529   4.328   8.251  0.8814  0.0662 -1.4542
  185SLPC  C31521342   3.455   4.499   8.376  0.0106 -0.1940  0.1085
  185SLPC  H15X21343   3.359   4.506   8.322 -0.3551 -1.2145  0.5956
  185SLPC  H15Y21344   3.477   4.601   8.415 -0.6165 -0.7013  1.8862
  185SLPC  C31621345   3.419   4.400   8.489  0.6725 -0.6071  0.3806
  185SLPC  H16X21346   3.523   4.372   8.515  1.3449  0.0979 -1.4033
  185SLPC  H16Y21347   3.363   4.314   8.445 -3.5294  1.6119  0.9397
  185SLPC  C31721348   3.324   4.457   8.596 -0.2569  0.3601  0.6038
  185SLPC  H17X21349   3.240   4.507   8.544  0.3176 -0.4907 -1.2090
  185SLPC  H17Y21350   3.370   4.528   8.668  0.8567  0.3145 -0.0410
  185SLPC  C31821351   3.250   4.348   8.683 -0.0053 -0.0209  0.7925
  185SLPC  H18X21352   3.326   4.299   8.747 -0.1323  1.1978  1.9138
  185SLPC  H18Y21353   3.193   4.273   8.624 -1.4947  0.7898  1.1518
  185SLPC  H18Z21354   3.174   4.391   8.752 -1.4003 -1.4479  0.2349
  186SLPC     N21355   4.094   4.419   5.429  0.4481  0.6698  0.4615
  186SLPC   C1321356   4.093   4.520   5.322 -0.4162  0.5703 -0.2834
  186SLPC  H13A21357   4.144   4.610   5.356 -0.1266  0.6945 -1.0263
  186SLPC  H13B21358   4.157   4.492   5.240  2.2514 -1.6355  2.3222
  186SLPC  H13C21359   3.998   4.541   5.275  0.2158 -1.7574 -2.8864
  186SLPC   C1421360   4.238   4.388   5.474  0.1478 -0.8526 -0.4517
  186SLPC  H14A21361   4.238   4.312   5.551  1.2610 -0.0704  0.3642
  186SLPC  H14B21362   4.304   4.346   5.401  0.5228 -0.9979 -0.0348
  186SLPC  H14C21363   4.272   4.480   5.520 -1.1723  0.1393 -1.3631
  186SLPC   C1521364   4.027   4.291   5.371 -0.4490  0.1403 -0.5861
  186SLPC  H15A21365   3.932   4.313   5.325 -0.5718 -0.5236 -0.6543
  186SLPC  H15B21366   4.094   4.248   5.299  0.1226  0.7436 -0.4277
  186SLPC  H15C21367   4.014   4.216   5.448 -0.3281  1.7524  1.0910
  186SLPC   C1221368   4.017   4.467   5.546  0.3241  0.1917 -0.5672
  186SLPC  H12A21369   3.916   4.492   5.517 -1.3850 -3.0092  1.9935
  186SLPC  H12B21370   4.056   4.554   5.598 -0.9445 -0.5592  1.7609
  186SLPC   C1121371   3.987   4.359   5.658 -0.5191  0.3748 -0.3100
  186SLPC  H11A21372   3.936   4.266   5.623 -2.3179  0.3039  2.1687
  186SLPC  H11B21373   3.907   4.393   5.728 -1.1924 -0.0264 -0.8646
  186SLPC     P21374   4.175   4.412   5.841  0.1885  0.3721 -0.0299
  186SLPC   O1321375   4.295   4.344   5.891 -0.2266  0.4743  0.0504
  186SLPC   O1421376   4.190   4.555   5.805  0.0127  0.1909  0.5795
  186SLPC   O1221377   4.103   4.321   5.733 -0.7206 -0.0294 -0.1124
  186SLPC   O1121378   4.074   4.400   5.956  0.3204 -0.9584  0.1720
  186SLPC    C121379   3.964   4.482   5.979 -0.1160 -0.3722  0.6224
  186SLPC    HA21380   3.907   4.516   5.889 -2.7262 -4.3626  0.5234
  186SLPC    HB21381   3.884   4.435   6.039 -1.0106  0.1837 -0.0947
  186SLPC    C221382   4.012   4.605   6.071 -0.3148  0.0190  0.1489
  186SLPC    HS21383   4.099   4.660   6.029  0.4442 -1.3888 -0.1950
  186SLPC   O2121384   4.046   4.562   6.208  0.0883 -0.3834 -0.7999
  186SLPC   C2121385   4.178   4.552   6.237 -0.4295 -0.3069 -0.2655
  186SLPC   O2221386   4.266   4.550   6.152 -0.2732  0.8835  0.4244
  186SLPC   C2221387   4.194   4.534   6.384 -0.2012  0.2580 -0.3870
  186SLPC   H2R21388   4.118   4.598   6.433  0.0853  1.4231 -1.4215
  186SLPC   H2S21389   4.176   4.428   6.415  1.6277  0.1502  0.4204
  186SLPC    C321390   3.896   4.706   6.068  0.5409 -0.3535  0.7545
  186SLPC    HX21391   3.820   4.658   6.134 -0.8370 -0.2736 -0.7289
  186SLPC    HY21392   3.852   4.732   5.970  0.0879  0.6324  1.2130
  186SLPC   O3121393   3.934   4.827   6.140  0.0566  0.0212 -0.3074
  186SLPC   C3121394   4.004   4.911   6.067 -0.5254 -0.6290 -0.4861
  186SLPC   O3221395   4.030   4.892   5.950  0.2634 -0.7621 -0.4263
  186SLPC   C3221396   4.047   5.035   6.150 -0.3003  1.3578 -0.1702
  186SLPC   H2X21397   3.967   5.095   6.197  1.6614  2.7347  1.5982
  186SLPC   H2Y21398   4.111   5.095   6.082 -1.6734  1.4340 -1.4451
  186SLPC   C2321399   4.331   4.594   6.439  0.1985  0.0240 -0.0799
  186SLPC   H3R21400   4.335   4.704   6.425 -0.9229  0.1160  0.2534
  186SLPC   H3S21401   4.418   4.543   6.393 -0.0536 -0.7743  0.3131
  186SLPC   C2421402   4.347   4.570   6.590  0.8382 -0.0884  0.0614
  186SLPC   H4R21403   4.353   4.459   6.594 -1.6110 -0.3697 -1.4423
  186SLPC   H4S21404   4.263   4.599   6.656  0.2595 -1.8308  0.1340
  186SLPC   C2521405   4.474   4.639   6.636  0.1026 -0.8303 -0.3411
  186SLPC   H5R21406   4.457   4.749   6.629  0.2639 -0.8523 -1.1240
  186SLPC   H5S21407   4.558   4.619   6.567  0.5598 -1.7514  0.4672
  186SLPC   C2621408   4.517   4.601   6.777 -0.1915  0.6084  0.2630
  186SLPC   H6R21409   4.616   4.649   6.792  1.2687 -2.6731  2.1992
  186SLPC   H6S21410   4.534   4.492   6.766 -2.4226  0.1714  0.8351
  186SLPC   C2721411   4.417   4.641   6.879 -0.3938  0.4484 -0.8553
  186SLPC   H7R21412   4.323   4.583   6.870 -1.8551  1.8547  3.1055
  186SLPC   H7S21413   4.389   4.747   6.858  0.3253  0.8686  0.1969
  186SLPC   C2821414   4.459   4.624   7.027  0.4294  0.3319 -0.5866
  186SLPC   H8R21415   4.469   4.514   7.042  1.2045  0.3584 -0.8498
  186SLPC   H8S21416   4.375   4.657   7.091  0.7305 -2.0466  1.1947
  186SLPC   C2921417   4.582   4.701   7.055  1.1459  0.3690 -0.0998
  186SLPC   H9R21418   4.567   4.810   7.058  2.9164  0.8280 -3.6257
  186SLPC  C21021419   4.694   4.651   7.099 -0.8420  0.2197 -0.5415
  186SLPC  H10R21420   4.782   4.717   7.106 -0.7538 -0.1069  4.4941
  186SLPC  C21121421   4.729   4.500   7.101  0.5255  0.4962  0.6007
  186SLPC  H11R21422   4.832   4.481   7.063 -0.1973 -2.5916 -0.1054
  186SLPC  H11S21423   4.657   4.445   7.037  1.5053 -1.5581  1.1689
  186SLPC  C21221424   4.711   4.464   7.247  0.4887  0.3802  0.5398
  186SLPC  H12R21425   4.616   4.411   7.261 -0.4322  1.9479  0.5190
  186SLPC  C21321426   4.796   4.468   7.349  0.0437  0.4326  0.4767
  186SLPC  H13R21427   4.761   4.437   7.448  2.1207 -0.8452  0.8702
  186SLPC  C21421428   4.935   4.528   7.336 -0.4674  0.2439 -0.6167
  186SLPC  H14R21429   4.930   4.639   7.337 -0.0027  0.2654 -0.2552
  186SLPC  H14S21430   4.984   4.499   7.241 -1.8303 -0.3001 -1.1755
  186SLPC  C21521431   5.022   4.472   7.450 -0.2550  0.0137  0.6039
  186SLPC  H15R21432   4.975   4.480   7.551 -1.7052  0.3063 -0.0745
  186SLPC  H15S21433   5.114   4.534   7.443  0.9622 -1.8853 -1.8683
  186SLPC  C21621434   5.066   4.327   7.426  0.0814 -0.1786 -0.2425
  186SLPC  H16R21435   5.121   4.328   7.329 -1.9166 -0.1572 -1.4302
  186SLPC  H16S21436   4.973   4.268   7.413 -0.1877 -0.2365  1.6794
  186SLPC  C21721437   5.156   4.260   7.537 -0.0784 -0.8730  0.3304
  186SLPC  H17R21438   5.229   4.338   7.567 -0.2933  1.0713 -3.5443
  186SLPC  H17S21439   5.205   4.181   7.478 -0.8406  0.1222 -1.7461
  186SLPC  C21821440   5.073   4.214   7.660 -0.3043 -0.5637  0.1299
  186SLPC  H18R21441   5.146   4.180   7.737  2.0028 -2.1848 -2.5571
  186SLPC  H18S21442   4.999   4.132   7.644  0.7071 -1.2222 -1.3970
  186SLPC  H18T21443   5.029   4.303   7.710  0.8683  1.4164 -2.2123
  186SLPC   C3321444   4.147   4.980   6.261  0.1051  0.3159  0.1844
  186SLPC   H3X21445   4.195   5.078   6.280 -0.4362  0.6909 -0.3687
  186SLPC   H3Y21446   4.211   4.899   6.218 -0.2718  0.0789  0.0658
  186SLPC   C3421447   4.076   4.925   6.379  0.6822  0.4085  0.4633
  186SLPC   H4X21448   4.046   4.819   6.367  0.3160  0.2604  2.3473
  186SLPC   H4Y21449   3.979   4.976   6.396 -0.0866 -1.4475  2.1859
  186SLPC   C3521450   4.142   4.934   6.512 -1.0924 -0.3631 -0.5043
  186SLPC   H5X21451   4.162   5.040   6.537  1.0767 -0.5248 -1.3418
  186SLPC   H5Y21452   4.243   4.889   6.502 -1.8099 -2.9808  2.2658
  186SLPC   C3621453   4.069   4.860   6.621  0.3426  0.4045  0.1104
  186SLPC   H6X21454   4.077   4.753   6.594 -0.4848 -0.0137  1.4229
  186SLPC   H6Y21455   3.962   4.889   6.617  0.6331  1.3638 -1.5487
  186SLPC   C3721456   4.133   4.878   6.761 -0.2966  0.3517  0.6667
  186SLPC   H7X21457   4.243   4.889   6.748 -0.2353 -0.6272  0.2459
  186SLPC   H7Y21458   4.116   4.776   6.802  0.5655 -1.0919 -2.2720
  186SLPC   C3821459   4.064   4.976   6.846  0.1244 -0.3436 -0.7746
  186SLPC   H8X21460   3.956   4.951   6.847  0.0179  0.1112 -0.8661
  186SLPC   H8Y21461   4.098   5.077   6.815 -1.7692  0.3109 -0.8412
  186SLPC   C3921462   4.109   4.954   6.990 -0.5241 -0.1781 -0.3117
  186SLPC   H9X21463   4.089   4.848   7.015  1.8179 -0.4091  0.8638
  186SLPC   H9Y21464   4.044   5.015   7.056 -0.6140 -0.9415  0.3173
  186SLPC  C31021465   4.255   4.983   7.028 -0.2961 -0.3959  0.0657
  186SLPC  H10X21466   4.280   5.090   7.010 -0.9721 -0.2436  0.0029
  186SLPC  H10Y21467   4.322   4.919   6.967  0.9059  0.4200  0.5031
  186SLPC  C31121468   4.279   4.939   7.173  0.3569 -0.0394 -0.6900
  186SLPC  H11X21469   4.389   4.935   7.193  0.1519  0.2185  0.6182
  186SLPC  H11Y21470   4.237   4.837   7.190  1.8894 -0.5876  0.0309
  186SLPC  C31221471   4.209   5.027   7.280  0.6654  0.3959 -0.3599
  186SLPC  H12X21472   4.099   5.015   7.273  0.5302  1.0388  0.4687
  186SLPC  H12Y21473   4.234   5.134   7.263 -0.0453  0.8658  1.3453
  186SLPC  C31321474   4.247   4.993   7.429 -0.3519  0.3872 -0.2642
  186SLPC  H13X21475   4.354   5.019   7.439  0.0084 -0.8642 -0.6716
  186SLPC  H13Y21476   4.247   4.885   7.457  3.1215  0.7482  1.6115
  186SLPC  C31421477   4.171   5.063   7.529 -0.5746 -0.1401 -0.2450
  186SLPC  H14X21478   4.064   5.037   7.513 -0.1105 -1.8559 -0.8615
  186SLPC  H14Y21479   4.192   5.171   7.516 -1.2884  0.0817  0.4268
  186SLPC  C31521480   4.202   5.014   7.673  0.2705 -0.4249  0.1696
  186SLPC  H15X21481   4.172   4.907   7.673  0.4511 -0.4811 -0.6343
  186SLPC  H15Y21482   4.130   5.071   7.735  2.8349  3.7769 -0.3141
  186SLPC  C31621483   4.346   5.043   7.726 -0.3145 -0.3939  0.4827
  186SLPC  H16X21484   4.362   5.153   7.722 -2.9745  0.0051 -1.8750
  186SLPC  H16Y21485   4.418   4.992   7.658  0.5208  0.5664  0.6133
  186SLPC  C31721486   4.353   4.983   7.864 -0.3192 -0.7109  0.0263
  186SLPC  H17X21487   4.311   4.880   7.867 -0.9766 -0.4288  2.1816
  186SLPC  H17Y21488   4.285   5.036   7.934 -0.4890 -2.6734  1.4462
  186SLPC  C31821489   4.501   4.982   7.914 -0.7130  0.0214 -0.1508
  186SLPC  H18X21490   4.571   4.929   7.845  4.1910  1.4257  3.1891
  186SLPC  H18Y21491   4.515   4.936   8.014 -1.4055 -1.1066 -0.5513
  186SLPC  H18Z21492   4.539   5.085   7.927  1.3376 -0.9577  2.4919
  187SLPC     N21493   4.394   5.391   5.517 -0.3488 -0.2274 -0.2729
  187SLPC   C1321494   4.469   5.299   5.431 -0.4341 -0.3438  1.0254
  187SLPC  H13A21495   4.466   5.198   5.469 -0.4790 -0.2969  1.1498
  187SLPC  H13B21496   4.431   5.297   5.330  1.7261  1.5691  0.0855
  187SLPC  H13C21497   4.571   5.334   5.435 -1.2735  2.3135  1.1519
  187SLPC   C1421498   4.381   5.516   5.429 -0.4910 -0.4710  0.3201
  187SLPC  H14A21499   4.357   5.606   5.484  0.0684 -0.6121  0.8066
  187SLPC  H14B21500   4.477   5.530   5.381  0.2943  1.8597  2.3164
  187SLPC  H14C21501   4.307   5.480   5.359 -0.4872 -0.0043  0.0674
  187SLPC   C1521502   4.475   5.436   5.647 -0.2386  0.2315 -0.4844
  187SLPC  H15A21503   4.497   5.356   5.715  0.6752  0.5218 -0.4237
  187SLPC  H15B21504   4.578   5.464   5.630  1.0123 -1.8927  2.6396
  187SLPC  H15C21505   4.425   5.511   5.705  0.3643  0.2966 -0.0418
  187SLPC   C1221506   4.256   5.344   5.566 -0.1637  0.1515 -0.4978
  187SLPC  H12A21507   4.277   5.246   5.605 -2.3213 -0.1120  0.1207
  187SLPC  H12B21508   4.194   5.323   5.480  0.2761 -0.0970 -0.7609
  187SLPC   C1121509   4.172   5.429   5.662  0.1584 -0.4512 -0.2160
  187SLPC  H11A21510   4.074   5.379   5.674 -0.9230  0.7275 -3.0862
  187SLPC  H11B21511   4.157   5.531   5.619 -0.7808 -0.7604 -0.6553
  187SLPC     P21512   4.216   5.344   5.902 -0.0222  0.0431 -0.4364
  187SLPC   O1321513   4.287   5.217   5.866 -0.0448 -0.6888  0.7016
  187SLPC   O1421514   4.262   5.408   6.033  0.3077 -0.0920  1.0237
  187SLPC   O1221515   4.232   5.453   5.787  0.6382  0.8391 -0.5088
  187SLPC   O1121516   4.058   5.315   5.911 -0.4159 -0.1561  0.3664
  187SLPC    C121517   3.975   5.430   5.947 -0.2548 -0.1208  0.3486
  187SLPC    HA21518   4.026   5.510   6.004  1.7922 -0.4554 -0.8841
  187SLPC    HB21519   3.925   5.471   5.856  2.7550 -0.4750 -1.5812
  187SLPC    C221520   3.843   5.387   6.030 -0.4646 -0.4960  0.1538
  187SLPC    HS21521   3.781   5.478   6.045  0.3089 -0.2704  2.3083
  187SLPC   O2121522   3.888   5.341   6.165  0.7271  0.1062 -0.2248
  187SLPC   C2121523   3.930   5.444   6.246 -0.3366  0.7893 -0.1407
  187SLPC   O2221524   3.928   5.560   6.222  0.4582 -0.2508 -0.4971
  187SLPC   C2221525   3.992   5.383   6.374 -0.4187 -0.1680  0.2938
  187SLPC   H2R21526   3.932   5.426   6.457 -1.6443 -0.8982 -0.1928
  187SLPC   H2S21527   3.977   5.273   6.385 -1.5121  0.0109  0.6644
  187SLPC    C321528   3.765   5.273   5.963 -0.9478 -0.0972 -0.0363
  187SLPC    HX21529   3.831   5.183   5.966 -0.8861 -0.0369  0.6000
  187SLPC    HY21530   3.754   5.300   5.856 -1.4567 -1.2313 -0.2799
  187SLPC   O3121531   3.636   5.252   6.019 -0.4928 -0.3616  0.1548
  187SLPC   C3121532   3.629   5.144   6.098 -0.6652  0.2820  0.2070
  187SLPC   O3221533   3.705   5.047   6.093  0.0635 -0.0552 -0.1268
  187SLPC   C3221534   3.497   5.155   6.180 -0.0444  0.1972  0.3204
  187SLPC   H2X21535   3.434   5.073   6.139 -1.3947 -0.1820  2.9295
  187SLPC   H2Y21536   3.434   5.243   6.156 -1.4537 -0.7124  0.4817
  187SLPC   C2321537   4.135   5.428   6.379 -0.7018  0.4578 -0.1712
  187SLPC   H3R21538   4.149   5.537   6.363  1.9612  0.3355  0.7468
  187SLPC   H3S21539   4.189   5.365   6.305  0.1983  0.8493  0.1372
  187SLPC   C2421540   4.205   5.394   6.512 -0.1316  0.5308  0.4801
  187SLPC   H4R21541   4.302   5.448   6.505 -1.0626  2.0343 -3.4466
  187SLPC   H4S21542   4.215   5.284   6.525  0.7867  0.3491 -1.4088
  187SLPC   C2521543   4.144   5.459   6.636  0.2389  1.0284  0.2418
  187SLPC   H5R21544   4.040   5.425   6.653 -0.4074  2.4242 -0.7378
  187SLPC   H5S21545   4.140   5.566   6.608 -1.8013  0.6693 -1.0869
  187SLPC   C2621546   4.229   5.439   6.762  0.5990  0.0140  1.4179
  187SLPC   H6R21547   4.332   5.480   6.759  0.7024 -0.2600  1.2040
  187SLPC   H6S21548   4.243   5.330   6.771 -1.6577 -0.1912  3.3040
  187SLPC   C2721549   4.163   5.492   6.886  0.2178  0.1218  0.0002
  187SLPC   H7R21550   4.062   5.446   6.896  0.4805 -0.7043 -0.8777
  187SLPC   H7S21551   4.147   5.601   6.877 -0.8559 -0.1815 -3.1666
  187SLPC   C2821552   4.235   5.452   7.023 -0.1532 -0.0756 -0.7895
  187SLPC   H8R21553   4.327   5.513   7.026 -0.3058  0.5125 -3.9401
  187SLPC   H8S21554   4.265   5.345   7.014  2.0591  0.3509  0.9053
  187SLPC   C2921555   4.138   5.471   7.147  0.2877 -0.2324 -0.0421
  187SLPC   H9R21556   4.040   5.428   7.119  0.2136 -0.2108  0.1755
  187SLPC  C21021557   4.182   5.508   7.277 -0.1686 -0.3034 -0.2576
  187SLPC  H10R21558   4.116   5.513   7.365  0.7274 -2.3835  0.6014
  187SLPC  C21121559   4.327   5.547   7.317  0.6681  0.7835 -0.5563
  187SLPC  H11R21560   4.313   5.643   7.370  1.0286  1.3661 -1.4869
  187SLPC  H11S21561   4.401   5.565   7.236  0.3822 -3.3950 -2.0039
  187SLPC  C21221562   4.378   5.435   7.406  0.1629 -0.0107 -0.0435
  187SLPC  H12R21563   4.419   5.355   7.343  1.6102  0.3634  0.3728
  187SLPC  C21321564   4.380   5.429   7.538  0.2665  0.5972  0.1189
  187SLPC  H13R21565   4.411   5.334   7.584  2.0087  1.0212 -0.1080
  187SLPC  C21421566   4.323   5.527   7.629 -0.4051 -0.2512 -0.5302
  187SLPC  H14R21567   4.231   5.576   7.591 -0.3785  1.6863  1.6825
  187SLPC  H14S21568   4.388   5.616   7.642 -1.2717  0.4656 -1.0143
  187SLPC  C21521569   4.287   5.472   7.772 -0.5028 -0.3338  0.3717
  187SLPC  H15R21570   4.289   5.555   7.845 -1.8334 -1.5896  1.9073
  187SLPC  H15S21571   4.366   5.403   7.806 -0.3933 -0.9871 -1.1075
  187SLPC  C21621572   4.145   5.411   7.781  0.2299  0.0985  0.0232
  187SLPC  H16R21573   4.117   5.367   7.683 -2.8975 -0.4686  1.0492
  187SLPC  H16S21574   4.069   5.492   7.779 -0.4919 -0.5590  0.2074
  187SLPC  C21721575   4.124   5.330   7.906  0.0680 -0.3686 -0.8625
  187SLPC  H17R21576   4.201   5.251   7.919  2.3619  1.9628  0.8358
  187SLPC  H17S21577   4.021   5.290   7.903 -0.3907  0.4321  1.6952
  187SLPC  C21821578   4.123   5.402   8.047 -0.0119  0.6947  1.0993
  187SLPC  H18R21579   4.081   5.322   8.112 -1.5691 -1.3529 -2.1879
  187SLPC  H18S21580   4.054   5.489   8.050  0.3637  1.0036  0.8574
  187SLPC  H18T21581   4.231   5.426   8.054  0.7081 -0.7084 -2.7507
  187SLPC   C3321582   3.515   5.139   6.335 -0.1730  0.5340 -0.2242
  187SLPC   H3X21583   3.568   5.043   6.355  0.7909  1.2935  1.0364
  187SLPC   H3Y21584   3.422   5.121   6.392  1.4377 -0.7181  2.1797
  187SLPC   C3421585   3.589   5.241   6.413 -0.0657 -0.7020  0.4325
  187SLPC   H4X21586   3.549   5.343   6.392 -2.6243 -2.0683 -1.9935
  187SLPC   H4Y21587   3.696   5.240   6.384 -0.5580 -2.8865 -1.5885
  187SLPC   C3521588   3.579   5.216   6.566 -0.3473 -0.4984  0.1484
  187SLPC   H5X21589   3.587   5.108   6.590  0.4983 -0.1428  1.6084
  187SLPC   H5Y21590   3.483   5.257   6.603  0.6264  1.6260  0.4927
  187SLPC   C3621591   3.690   5.292   6.642 -0.0349 -0.1136 -0.5253
  187SLPC   H6X21592   3.669   5.401   6.633  2.7930  0.4960 -0.8643
  187SLPC   H6Y21593   3.787   5.273   6.590 -0.2027  1.6531 -1.5649
  187SLPC   C3721594   3.673   5.268   6.797  0.3380 -0.4463 -0.2622
  187SLPC   H7X21595   3.582   5.310   6.845  1.2204  1.4201 -0.1448
  187SLPC   H7Y21596   3.677   5.159   6.821  0.8228 -0.3289  0.2187
  187SLPC   C3821597   3.770   5.349   6.884 -0.0427 -0.2850 -0.8051
  187SLPC   H8X21598   3.764   5.456   6.856 -0.9840  0.0230  0.5091
  187SLPC   H8Y21599   3.875   5.330   6.851  0.5799 -0.7288  1.2788
  187SLPC   C3921600   3.749   5.336   7.037 -0.9085  1.0021 -0.9896
  187SLPC   H9X21601   3.648   5.371   7.066 -0.6265  2.0457 -1.2155
  187SLPC   H9Y21602   3.815   5.411   7.085 -0.0361  0.0146 -0.6087
  187SLPC  C31021603   3.780   5.200   7.097  0.3630  0.3233 -0.3769
  187SLPC  H10X21604   3.884   5.172   7.068  1.3260  1.8142  1.3405
  187SLPC  H10Y21605   3.707   5.124   7.061 -1.0427  0.7575  1.4004
  187SLPC  C31121606   3.771   5.208   7.249 -0.2602  1.0143 -0.3464
  187SLPC  H11X21607   3.771   5.103   7.286 -1.8370  0.9210 -0.5358
  187SLPC  H11Y21608   3.670   5.243   7.278 -1.0900 -0.9661 -0.6958
  187SLPC  C31221609   3.885   5.288   7.315  0.2136  0.0593 -0.9781
  187SLPC  H12X21610   3.873   5.389   7.271  1.0691 -0.2315 -1.9097
  187SLPC  H12Y21611   3.982   5.243   7.285  0.6260 -0.5476  1.0654
  187SLPC  C31321612   3.893   5.300   7.467 -0.0014 -0.1058 -0.4502
  187SLPC  H13X21613   3.964   5.382   7.490 -2.3075  2.0952 -0.8017
  187SLPC  H13Y21614   3.913   5.206   7.522  2.3719 -0.0578 -1.1247
  187SLPC  C31421615   3.760   5.355   7.532 -0.5142 -0.4408  0.0123
  187SLPC  H14X21616   3.692   5.267   7.535  0.3588 -1.2353 -1.7872
  187SLPC  H14Y21617   3.707   5.436   7.478 -4.1784 -2.8489 -0.4467
  187SLPC  C31521618   3.775   5.411   7.676 -0.3575 -0.1560 -0.1002
  187SLPC  H15X21619   3.752   5.520   7.674  0.2537 -0.0360 -1.1928
  187SLPC  H15Y21620   3.877   5.393   7.715 -1.3146 -0.0694  2.6817
  187SLPC  C31621621   3.687   5.341   7.777 -0.8399 -0.2219 -1.0338
  187SLPC  H16X21622   3.708   5.232   7.768  0.4746  0.1617 -3.6031
  187SLPC  H16Y21623   3.581   5.349   7.743 -1.5134  3.7911  1.3661
  187SLPC  C31721624   3.709   5.400   7.913 -0.2191 -0.1764  0.4468
  187SLPC  H17X21625   3.700   5.510   7.908  2.1113  0.0415 -0.1335
  187SLPC  H17Y21626   3.813   5.378   7.942  0.2445  0.3916 -0.7113
  187SLPC  C31821627   3.611   5.355   8.024  0.4002 -0.3433 -0.1462
  187SLPC  H18X21628   3.510   5.334   7.982  0.7429 -1.9074 -0.2501
  187SLPC  H18Y21629   3.596   5.439   8.096  0.5551  0.6968 -1.3002
  187SLPC  H18Z21630   3.636   5.257   8.071  0.8200  0.2671  0.9428
  188SLPC     N21631   5.813   3.492   6.045 -0.2957  0.1945 -0.0004
  188SLPC   C1321632   5.698   3.413   6.003 -0.2699  0.1175  0.0402
  188SLPC  H13A21633   5.644   3.476   5.933 -1.0733  0.1633  0.6834
  188SLPC  H13B21634   5.731   3.320   5.959 -1.0348  0.8331 -2.1974
  188SLPC  H13C21635   5.635   3.377   6.083  2.2497 -0.5880  1.8067
  188SLPC   C1421636   5.883   3.530   5.923  0.0697  0.2627  0.1295
  188SLPC  H14A21637   5.833   3.606   5.864  2.2657  3.0169  1.5412
  188SLPC  H14B21638   5.978   3.577   5.945 -1.3241  3.1729  0.4331
  188SLPC  H14C21639   5.893   3.453   5.849 -0.3592  0.0490  0.2887
  188SLPC   C1521640   5.903   3.410   6.130 -0.5292  0.1362  0.4461
  188SLPC  H15A21641   5.961   3.349   6.063 -1.1100  0.2898 -0.2126
  188SLPC  H15B21642   5.973   3.472   6.184 -1.2261  1.8045 -0.4886
  188SLPC  H15C21643   5.850   3.349   6.201 -1.2117 -0.7774 -0.7953
  188SLPC   C1221644   5.760   3.613   6.116 -0.1112  0.5690 -0.6417
  188SLPC  H12A21645   5.853   3.652   6.156 -0.2207  1.4087 -1.1665
  188SLPC  H12B21646   5.694   3.588   6.198  1.6484  0.0133  0.6746
  188SLPC   C1121647   5.681   3.720   6.038 -0.3868 -0.3470  0.2906
  188SLPC  H11A21648   5.753   3.758   5.963 -0.0170 -0.5062  0.5662
  188SLPC  H11B21649   5.660   3.801   6.110 -1.4776  0.1800 -0.5709
  188SLPC     P21650   5.425   3.648   6.038 -0.3035 -0.0374  0.0356
  188SLPC   O1321651   5.373   3.786   6.062  0.0023  0.4228 -0.4286
  188SLPC   O1421652   5.339   3.550   5.965 -0.1432  0.8875 -0.1168
  188SLPC   O1221653   5.565   3.671   5.959 -0.0839  0.2276 -0.0118
  188SLPC   O1121654   5.469   3.587   6.178  0.3393 -0.2392  0.1467
  188SLPC    C121655   5.425   3.639   6.295  0.2047  0.4925 -0.4344
  188SLPC    HA21656   5.435   3.750   6.288  1.3264  0.3111 -3.0590
  188SLPC    HB21657   5.321   3.608   6.317  0.6601  0.2550  1.5916
  188SLPC    C221658   5.513   3.572   6.409  0.2227 -0.0447 -0.4870
  188SLPC    HS21659   5.452   3.562   6.501  1.9641  0.8509  0.8307
  188SLPC   O2121660   5.624   3.653   6.436  0.2715 -0.3568  0.2568
  188SLPC   C2121661   5.612   3.773   6.482 -0.5736 -0.2815  0.1429
  188SLPC   O2221662   5.505   3.834   6.490  0.3660  0.2117  0.4890
  188SLPC   C2221663   5.748   3.837   6.509 -0.2109  0.6539  0.7019
  188SLPC   H2R21664   5.814   3.762   6.557 -1.4503 -0.1878  1.1511
  188SLPC   H2S21665   5.796   3.860   6.411  0.5724 -0.2709  0.8555
  188SLPC    C321666   5.569   3.432   6.370 -0.5244 -0.0415 -0.0182
  188SLPC    HX21667   5.652   3.438   6.297  0.1666  0.7893  0.8071
  188SLPC    HY21668   5.491   3.366   6.327 -0.9819  1.1769 -1.1230
  188SLPC   O3121669   5.615   3.361   6.490 -0.4748 -0.2998  0.7290
  188SLPC   C3121670   5.740   3.378   6.519 -0.4274 -0.1290 -0.4302
  188SLPC   O3221671   5.829   3.433   6.449  0.1397 -0.2722 -0.4623
  188SLPC   C3221672   5.772   3.314   6.654 -0.1865 -0.5322  0.5621
  188SLPC   H2X21673   5.850   3.236   6.636  1.3964  1.0654  0.1598
  188SLPC   H2Y21674   5.675   3.279   6.694 -1.2520  2.9012  1.2873
  188SLPC   C2321675   5.730   3.978   6.582 -0.7211 -0.0542  0.3838
  188SLPC   H3R21676   5.658   4.047   6.533  0.8414  1.5142  0.1662
  188SLPC   H3S21677   5.827   4.032   6.572 -0.6121 -0.5247 -1.4559
  188SLPC   C2421678   5.703   3.977   6.732 -0.0763 -0.3260 -0.4818
  188SLPC   H4R21679   5.597   3.955   6.760  0.5279  0.1778  2.5729
  188SLPC   H4S21680   5.735   4.077   6.768  1.6632 -1.2217  0.5794
  188SLPC   C2521681   5.787   3.873   6.814  0.1704  0.4155 -0.0431
  188SLPC   H5R21682   5.896   3.887   6.793  0.3486 -1.1174 -0.2020
  188SLPC   H5S21683   5.757   3.776   6.772  1.1766 -1.0130  2.3064
  188SLPC   C2621684   5.763   3.880   6.967  0.5868 -0.2861 -0.3325
  188SLPC   H6R21685   5.654   3.889   6.985  0.6992 -2.4935  2.2941
  188SLPC   H6S21686   5.811   3.970   7.011 -1.4319  0.7208 -0.0946
  188SLPC   C2721687   5.805   3.753   7.052  0.6681 -0.7530  0.2310
  188SLPC   H7R21688   5.765   3.661   7.005 -0.8013 -0.8253  1.5524
  188SLPC   H7S21689   5.765   3.760   7.156 -1.4106  0.0090 -0.5795
  188SLPC   C2821690   5.956   3.746   7.074  0.1251 -0.2504 -0.9704
  188SLPC   H8R21691   5.985   3.844   7.117  1.8923 -1.4488  0.7116
  188SLPC   H8S21692   5.994   3.746   6.970  0.6010  0.5410 -0.8058
  188SLPC   C2921693   6.003   3.627   7.154 -0.3433 -0.3108  0.4429
  188SLPC   H9R21694   6.042   3.540   7.098  2.2261  1.4297 -0.6704
  188SLPC  C21021695   6.002   3.611   7.289 -0.6333 -0.2267  0.1944
  188SLPC  H10R21696   6.021   3.513   7.335  0.9176 -0.7878 -1.5234
  188SLPC  C21121697   5.949   3.727   7.384 -0.6527  0.2636  0.0276
  188SLPC  H11R21698   5.838   3.723   7.389 -0.6017 -0.5037  0.7662
  188SLPC  H11S21699   5.989   3.823   7.345  2.1136 -0.3286  1.1591
  188SLPC  C21221700   5.992   3.713   7.528  0.6828  0.2130  0.0327
  188SLPC  H12R21701   6.095   3.682   7.548  0.7323 -1.2029 -2.1563
  188SLPC  C21321702   5.920   3.733   7.640 -0.4689 -0.5266 -0.2886
  188SLPC  H13R21703   5.968   3.713   7.737 -0.7379  1.9268  0.4225
  188SLPC  C21421704   5.773   3.774   7.658  0.9236  0.5066 -0.0576
  188SLPC  H14R21705   5.728   3.781   7.557 -0.4068 -1.8584  0.2837
  188SLPC  H14S21706   5.763   3.875   7.702 -0.2839  0.0826  0.7038
  188SLPC  C21521707   5.698   3.678   7.746  0.2747 -0.2289  0.1575
  188SLPC  H15R21708   5.705   3.580   7.694  3.1173  0.8041 -1.6976
  188SLPC  H15S21709   5.591   3.708   7.744  0.5256  0.9317  1.8034
  188SLPC  C21621710   5.736   3.681   7.894  0.1709  0.3441 -0.1008
  188SLPC  H16R21711   5.738   3.775   7.952 -2.5204 -0.1467  0.9253
  188SLPC  H16S21712   5.833   3.627   7.896  0.9425  1.6925  0.0845
  188SLPC  C21721713   5.631   3.600   7.968 -0.0348 -0.3600 -1.3021
  188SLPC  H17R21714   5.600   3.515   7.904 -2.4845 -0.6090  0.0994
  188SLPC  H17S21715   5.537   3.660   7.976  0.1531 -0.2707  1.1117
  188SLPC  C21821716   5.662   3.560   8.112 -0.3788 -0.1468  0.1547
  188SLPC  H18R21717   5.756   3.502   8.114 -0.7326 -0.7698 -0.6300
  188SLPC  H18S21718   5.583   3.494   8.154  0.2144 -0.4930  0.7328
  188SLPC  H18T21719   5.684   3.649   8.174 -1.7349  0.0547  0.3839
  188SLPC   C3321720   5.810   3.415   6.761 -0.1159  0.4765  0.1823
  188SLPC   H3X21721   5.742   3.503   6.764  1.0844  1.4232  0.1733
  188SLPC   H3Y21722   5.908   3.464   6.743  0.1501  0.3410  1.2293
  188SLPC   C3421723   5.823   3.337   6.896  0.1077 -0.4602  0.1866
  188SLPC   H4X21724   5.726   3.283   6.904  0.4716 -1.2620 -0.6323
  188SLPC   H4Y21725   5.830   3.411   6.978 -1.6494 -0.1681  0.1096
  188SLPC   C3521726   5.935   3.234   6.903  0.2165 -0.3885 -0.3049
  188SLPC   H5X21727   6.032   3.288   6.898  1.3056 -2.1528  0.6629
  188SLPC   H5Y21728   5.929   3.165   6.817  0.3011 -0.7566 -0.0175
  188SLPC   C3621729   5.923   3.139   7.029 -0.6937  0.5192  0.6959
  188SLPC   H6X21730   6.006   3.066   7.036  1.2733  2.7120  1.3662
  188SLPC   H6Y21731   5.828   3.080   7.030  1.0664 -2.5484  1.7372
  188SLPC   C3721732   5.930   3.204   7.165  0.0179  0.0244 -0.3212
  188SLPC   H7X21733   5.846   3.276   7.169 -0.6286 -0.5220 -2.6066
  188SLPC   H7Y21734   6.025   3.260   7.179 -0.0223 -0.3160  1.6046
  188SLPC   C3821735   5.914   3.105   7.278  0.0448  0.5108 -0.0658
  188SLPC   H8X21736   5.990   3.027   7.257  2.4478  2.9744 -1.0461
  188SLPC   H8Y21737   5.814   3.056   7.270  0.1565  0.4221 -1.0175
  188SLPC   C3921738   5.935   3.140   7.424  1.1205 -1.2979  0.4549
  188SLPC   H9X21739   6.042   3.169   7.432  0.5317  1.0193  0.6010
  188SLPC   H9Y21740   5.928   3.045   7.481  0.6384 -2.0206 -0.7493
  188SLPC  C31021741   5.840   3.255   7.473 -0.1640  0.2812 -0.2505
  188SLPC  H10X21742   5.743   3.207   7.496 -0.4242  0.2868 -1.2517
  188SLPC  H10Y21743   5.829   3.339   7.401 -2.7296  0.9481  0.8317
  188SLPC  C31121744   5.889   3.325   7.609 -0.0632  0.8876 -0.9790
  188SLPC  H11X21745   5.821   3.410   7.632 -0.1233  0.6309 -0.1682
  188SLPC  H11Y21746   5.990   3.367   7.589  0.3432 -0.3954 -1.7816
  188SLPC  C31221747   5.869   3.230   7.731 -0.3515  0.6955 -0.4324
  188SLPC  H12X21748   5.914   3.132   7.706 -0.5736  0.2219  0.9521
  188SLPC  H12Y21749   5.760   3.207   7.742 -0.2906  0.2050 -0.8533
  188SLPC  C31321750   5.914   3.285   7.872 -0.5830  0.1586 -0.2720
  188SLPC  H13X21751   5.860   3.221   7.945 -0.2887  1.9448  1.5981
  188SLPC  H13Y21752   5.874   3.389   7.874 -1.4614 -0.1762  0.0291
  188SLPC  C31421753   6.067   3.281   7.898 -0.6398 -0.0921  0.8310
  188SLPC  H14X21754   6.121   3.302   7.803  0.5948  0.7253  1.6805
  188SLPC  H14Y21755   6.103   3.180   7.927  0.8474 -0.5404 -2.1863
  188SLPC  C31521756   6.114   3.383   8.004  0.0940  0.0538 -0.0818
  188SLPC  H15X21757   6.196   3.340   8.065  1.4580  1.2395 -1.0251
  188SLPC  H15Y21758   6.031   3.398   8.077 -0.0140 -0.6577 -0.0564
  188SLPC  C31621759   6.151   3.523   7.952 -0.9059  0.1929 -0.6409
  188SLPC  H16X21760   6.143   3.595   8.037 -2.6734 -1.1258  0.3734
  188SLPC  H16Y21761   6.075   3.565   7.883 -0.1467  2.1587 -0.3679
  188SLPC  C31721762   6.287   3.550   7.882  0.0098  0.0209 -0.6024
  188SLPC  H17X21763   6.291   3.486   7.792  2.2952 -2.7930  1.3157
  188SLPC  H17Y21764   6.372   3.511   7.943 -0.1272 -1.9294 -1.6044
  188SLPC  C31821765   6.319   3.694   7.838  0.0509 -0.3221 -0.4162
  188SLPC  H18X21766   6.376   3.697   7.742 -0.9884  1.1877 -1.0169
  188SLPC  H18Y21767   6.359   3.756   7.921 -0.6816 -0.1371 -0.2004
  188SLPC  H18Z21768   6.225   3.751   7.823  0.3383 -0.4660 -3.5766
  189SLPC     N21769   6.179   1.228   6.429 -0.4036 -0.1879  0.4705
  189SLPC   C1321770   6.208   1.276   6.284  0.0004  0.0967 -0.8218
  189SLPC  H13A21771   6.315   1.278   6.265  0.6010 -1.4431  1.8691
  189SLPC  H13B21772   6.164   1.202   6.218 -0.1017 -1.2188  0.6620
  189SLPC  H13C21773   6.156   1.365   6.252 -1.3645 -0.5765 -0.5450
  189SLPC   C1421774   6.255   1.315   6.517 -0.2262  0.4263 -0.0156
  189SLPC  H14A21775   6.222   1.416   6.499 -0.2916  0.6542  1.3398
  189SLPC  H14B21776   6.238   1.299   6.622 -1.0244  0.9417 -0.0591
  189SLPC  H14C21777   6.363   1.308   6.514 -0.0110  2.3436  1.3604
  189SLPC   C1521778   6.219   1.077   6.422  0.0961 -1.0404 -0.7858
  189SLPC  H15A21779   6.185   1.031   6.513  0.1374 -2.9228 -1.6762
  189SLPC  H15B21780   6.170   1.022   6.342 -1.8968 -2.4874  1.3053
  189SLPC  H15C21781   6.325   1.062   6.413  0.4509 -0.0405  1.1971
  189SLPC   C1221782   6.027   1.242   6.455 -0.0762 -0.2237  0.1444
  189SLPC  H12A21783   5.982   1.204   6.364 -0.4552 -0.4690  0.4322
  189SLPC  H12B21784   6.011   1.348   6.466 -1.9250 -0.4731  0.0695
  189SLPC   C1121785   5.958   1.179   6.578  0.1362  0.1073 -0.2002
  189SLPC  H11A21786   5.854   1.210   6.603  0.4487  1.3994 -0.4253
  189SLPC  H11B21787   6.027   1.225   6.652  0.1039  1.1938 -0.8217
  189SLPC     P21788   5.975   0.932   6.700  0.3374 -0.4850 -0.1910
  189SLPC   O1321789   5.871   0.836   6.666  0.0117 -0.3224 -1.2292
  189SLPC   O1421790   6.112   0.880   6.723 -0.0058 -0.1585  0.1541
  189SLPC   O1221791   5.977   1.037   6.575 -0.2165 -0.0078  0.3061
  189SLPC   O1121792   5.935   1.015   6.826 -0.5685  0.0216 -0.5161
  189SLPC    C121793   5.809   1.084   6.836 -0.4851 -0.1005  0.0295
  189SLPC    HA21794   5.832   1.191   6.820  2.0920 -0.6481 -0.3819
  189SLPC    HB21795   5.736   1.050   6.759 -0.9967 -3.0609  1.6800
  189SLPC    C221796   5.743   1.064   6.971  0.0837 -0.0135 -0.4819
  189SLPC    HS21797   5.653   1.129   6.973  1.1850  1.5524  0.1458
  189SLPC   O2121798   5.845   1.105   7.068 -0.0651  0.6419 -0.1340
  189SLPC   C2121799   5.825   1.208   7.141 -0.2972  0.7809  0.8498
  189SLPC   O2221800   5.740   1.292   7.124 -0.1787  1.0926  0.4296
  189SLPC   C2221801   5.907   1.182   7.264  0.5313  0.3911 -0.1185
  189SLPC   H2R21802   5.874   1.081   7.296 -0.4706 -0.3532 -3.1498
  189SLPC   H2S21803   6.013   1.156   7.244  0.6320 -0.1086  0.9833
  189SLPC    C321804   5.704   0.916   7.005  0.0238 -0.3505 -0.3211
  189SLPC    HX21805   5.794   0.855   6.980 -0.6578 -1.5703  0.1354
  189SLPC    HY21806   5.624   0.886   6.934 -3.0273 -0.0445  2.7363
  189SLPC   O3121807   5.649   0.895   7.139  0.5684 -0.1811 -0.0989
  189SLPC   C3121808   5.725   0.848   7.237  0.8087 -0.4523 -0.5342
  189SLPC   O3221809   5.846   0.831   7.234  0.4513 -0.1353  0.4116
  189SLPC   C3221810   5.623   0.829   7.358  0.0731 -0.8586  0.9402
  189SLPC   H2X21811   5.583   0.728   7.334 -0.0663 -0.5482 -0.2213
  189SLPC   H2Y21812   5.547   0.909   7.346 -0.7919 -1.6059  1.2904
  189SLPC   C2321813   5.895   1.288   7.374 -0.1341 -0.3433  0.1085
  189SLPC   H3R21814   5.842   1.246   7.462  0.5436  1.2363  1.3242
  189SLPC   H3S21815   5.855   1.387   7.342  2.2551  1.5269  2.3347
  189SLPC   C2421816   6.038   1.328   7.429  0.0027  0.4752 -1.0656
  189SLPC   H4R21817   6.012   1.411   7.499 -1.5482  1.2506 -2.4909
  189SLPC   H4S21818   6.087   1.387   7.349  0.6401  2.3725  0.6372
  189SLPC   C2521819   6.122   1.218   7.500  0.3721  0.1311  0.4525
  189SLPC   H5R21820   6.142   1.126   7.441 -0.4594  1.1797 -1.5412
  189SLPC   H5S21821   6.080   1.187   7.598 -0.3734  1.0037  0.4171
  189SLPC   C2621822   6.264   1.276   7.546 -0.0921 -0.1370  1.6617
  189SLPC   H6R21823   6.311   1.343   7.471  1.8011 -2.7793  0.3441
  189SLPC   H6S21824   6.334   1.190   7.545  2.2916  1.7318 -0.1406
  189SLPC   C2721825   6.274   1.341   7.687 -0.6936  0.1231  0.8214
  189SLPC   H7R21826   6.385   1.352   7.695 -0.5768  1.0692 -1.3098
  189SLPC   H7S21827   6.242   1.270   7.766 -1.6513 -1.5027 -0.9698
  189SLPC   C2821828   6.218   1.483   7.709  0.6319  0.3709 -0.9104
  189SLPC   H8R21829   6.108   1.471   7.721  0.9433 -2.3480 -0.1228
  189SLPC   H8S21830   6.240   1.556   7.629  1.6651  1.9440  0.7260
  189SLPC   C2921831   6.283   1.541   7.836  0.2389  0.0936  0.6735
  189SLPC   H9R21832   6.378   1.492   7.862 -1.0032 -2.8306  0.1216
  189SLPC  C21021833   6.230   1.620   7.928 -0.0605 -0.7601  0.5446
  189SLPC  H10R21834   6.292   1.663   8.008 -1.0588  0.2223  0.8127
  189SLPC  C21121835   6.087   1.683   7.911  0.4590  0.4918  0.3294
  189SLPC  H11R21836   6.026   1.634   7.990  1.9936 -3.3906 -0.6362
  189SLPC  H11S21837   6.042   1.664   7.811 -0.5301 -1.2955  1.0693
  189SLPC  C21221838   6.092   1.836   7.918  0.4201  0.1986  0.3795
  189SLPC  H12R21839   6.093   1.895   7.825 -1.3469  2.5550  1.7453
  189SLPC  C21321840   6.098   1.905   8.030  0.7093 -0.4096 -0.2770
  189SLPC  H13R21841   6.096   2.014   8.020 -1.8082 -0.4755 -1.1510
  189SLPC  C21421842   6.096   1.846   8.166  0.5058  0.6929 -0.6952
  189SLPC  H14R21843   6.185   1.883   8.221  0.5169 -1.6939  1.0501
  189SLPC  H14S21844   6.112   1.736   8.175 -0.0371  0.7354  1.4041
  189SLPC  C21521845   5.978   1.882   8.250  0.1939  0.0651 -0.6437
  189SLPC  H15R21846   5.891   1.814   8.231 -1.0368  1.2561  0.5203
  189SLPC  H15S21847   5.948   1.985   8.220  1.1811  0.3028 -0.8353
  189SLPC  C21621848   6.001   1.889   8.396 -0.6864 -0.5285 -0.0397
  189SLPC  H16R21849   6.094   1.948   8.408 -1.4820  0.7625 -0.1079
  189SLPC  H16S21850   6.013   1.781   8.423 -1.5609 -0.4635  0.6870
  189SLPC  C21721851   5.892   1.948   8.489 -0.1899 -0.5188 -0.7511
  189SLPC  H17R21852   5.881   2.056   8.466 -3.6746 -0.9771 -1.7756
  189SLPC  H17S21853   5.931   1.943   8.593  0.6740  2.9928 -0.7702
  189SLPC  C21821854   5.764   1.877   8.475  0.9750 -0.0973 -0.5293
  189SLPC  H18R21855   5.728   1.887   8.371  0.3572  0.1073 -0.2997
  189SLPC  H18S21856   5.689   1.913   8.549  1.2780  2.0046 -1.1697
  189SLPC  H18T21857   5.776   1.768   8.492 -0.0247 -0.3215 -1.1886
  189SLPC   C3321858   5.678   0.814   7.500  0.7750 -0.5732 -0.6773
  189SLPC   H3X21859   5.761   0.741   7.499 -0.4029 -1.9772  0.0312
  189SLPC   H3Y21860   5.598   0.774   7.567  1.7439  1.6085  1.9536
  189SLPC   C3421861   5.713   0.944   7.579 -0.3406  0.1665 -0.2629
  189SLPC   H4X21862   5.618   0.991   7.611  1.2141  2.0615  1.8630
  189SLPC   H4Y21863   5.782   1.011   7.524 -1.1056  0.6043 -0.7160
  189SLPC   C3521864   5.791   0.918   7.711  0.9783 -0.2469  0.2552
  189SLPC   H5X21865   5.892   0.874   7.696  0.9878 -0.2477  0.3227
  189SLPC   H5Y21866   5.732   0.859   7.784 -0.6224  1.7974  0.7041
  189SLPC   C3621867   5.818   1.055   7.778  0.2384 -0.6087  0.4102
  189SLPC   H6X21868   5.723   1.111   7.773 -0.8299 -2.3769  0.0925
  189SLPC   H6Y21869   5.891   1.109   7.713 -1.1015  0.0789 -0.5575
  189SLPC   C3721870   5.862   1.034   7.923  0.5483  0.1802  0.4279
  189SLPC   H7X21871   5.920   0.941   7.940  1.1766  0.4273 -0.3026
  189SLPC   H7Y21872   5.775   1.033   7.992  0.1700  0.3573 -0.0371
  189SLPC   C3821873   5.969   1.143   7.964 -0.5773 -0.4758 -0.3471
  189SLPC   H8X21874   5.923   1.244   7.955 -1.9945 -0.8802  1.6391
  189SLPC   H8Y21875   6.061   1.140   7.903 -0.5986  0.0714 -0.4054
  189SLPC   C3921876   5.997   1.135   8.110 -0.6261 -0.4031 -0.2436
  189SLPC   H9X21877   6.067   1.055   8.142  0.0391  0.4984  0.6009
  189SLPC   H9Y21878   5.898   1.116   8.157 -0.6585 -1.3887 -0.6784
  189SLPC  C31021879   6.054   1.267   8.177 -0.1321  0.0666 -0.2521
  189SLPC  H10X21880   6.031   1.259   8.285  0.2962 -0.8686 -0.2150
  189SLPC  H10Y21881   6.015   1.362   8.134 -2.0566 -1.1491 -1.3276
  189SLPC  C31121882   6.209   1.262   8.161 -0.3447 -0.7292  0.5721
  189SLPC  H11X21883   6.222   1.290   8.054 -2.0550  0.9125  0.7372
  189SLPC  H11Y21884   6.246   1.161   8.189 -2.0307 -1.1735  1.3388
  189SLPC  C31221885   6.269   1.372   8.244 -0.0587  0.4982 -0.4661
  189SLPC  H12X21886   6.261   1.350   8.353  1.4958 -0.6510 -0.5510
  189SLPC  H12Y21887   6.210   1.464   8.225  1.2618  1.5069  0.1668
  189SLPC  C31321888   6.411   1.400   8.201 -0.6124 -0.0083  0.4351
  189SLPC  H13X21889   6.427   1.427   8.095  1.5397  1.8841  1.1609
  189SLPC  H13Y21890   6.470   1.307   8.220  0.9820  0.6755 -0.9070
  189SLPC  C31421891   6.469   1.519   8.275  0.7014 -0.1514 -0.8903
  189SLPC  H14X21892   6.469   1.489   8.382 -3.3648 -1.6009 -1.0958
  189SLPC  H14Y21893   6.399   1.605   8.270  0.3316 -0.5348 -2.9031
  189SLPC  C31521894   6.606   1.559   8.222  0.2988 -0.3674 -0.4135
  189SLPC  H15X21895   6.581   1.625   8.136  0.2128 -0.4315 -0.4386
  189SLPC  H15Y21896   6.658   1.466   8.190 -1.3439 -0.7730 -2.1642
  189SLPC  C31621897   6.698   1.632   8.320 -0.4359  0.0132 -0.0524
  189SLPC  H16X21898   6.713   1.590   8.422 -0.3732  1.2712  0.4639
  189SLPC  H16Y21899   6.646   1.727   8.342 -1.3361 -0.8651  1.8860
  189SLPC  C31721900   6.836   1.657   8.262  0.2066  0.5240 -0.8074
  189SLPC  H17X21901   6.833   1.704   8.161 -0.0843 -1.1816 -1.6303
  189SLPC  H17Y21902   6.893   1.566   8.233  0.6301  0.4590  0.2007
  189SLPC  C31821903   6.925   1.741   8.362 -0.2311 -0.2212  0.1949
  189SLPC  H18X21904   6.929   1.694   8.462  0.3940 -1.7875 -0.5367
  189SLPC  H18Y21905   6.873   1.839   8.374 -0.1112  0.4314 -3.4149
  189SLPC  H18Z21906   7.029   1.746   8.325  0.1770  0.9665  1.4382
  190SLPC     N21907   1.791   5.449   5.967 -0.0005  0.3291  0.1751
  190SLPC   C1321908   1.754   5.326   5.892 -0.5203 -0.0179  0.2441
  190SLPC  H13A21909   1.829   5.253   5.918 -1.8845 -1.5489  0.0207
  190SLPC  H13B21910   1.655   5.292   5.914 -0.2542 -0.5072  0.7058
  190SLPC  H13C21911   1.770   5.338   5.786 -0.8322 -0.6983  0.1187
  190SLPC   C1421912   1.753   5.575   5.889 -0.5673  0.3927 -0.3538
  190SLPC  H14A21913   1.808   5.570   5.796 -0.7445  0.4305 -0.4615
  190SLPC  H14B21914   1.646   5.582   5.875 -0.8025 -1.3620  0.2386
  190SLPC  H14C21915   1.782   5.663   5.943 -0.1633  0.4959 -0.7249
  190SLPC   C1521916   1.939   5.440   5.970  0.6070  0.0930 -0.2200
  190SLPC  H15A21917   1.980   5.534   6.003  0.8817  1.6310 -4.3246
  190SLPC  H15B21918   1.981   5.357   6.024  2.4699  1.1511  0.0575
  190SLPC  H15C21919   1.978   5.430   5.870 -1.9495  1.0629 -1.3965
  190SLPC   C1221920   1.731   5.452   6.108  0.7801  0.3542  0.2112
  190SLPC  H12A21921   1.801   5.508   6.169  0.1668  0.2540  1.0354
  190SLPC  H12B21922   1.745   5.355   6.153 -0.8327  0.2075  0.4481
  190SLPC   C1121923   1.589   5.495   6.139 -0.4140 -0.7759 -0.4657
  190SLPC  H11A21924   1.568   5.468   6.245  1.4899  1.3584  0.5396
  190SLPC  H11B21925   1.525   5.438   6.069 -0.0540 -1.4600 -0.2520
  190SLPC     P21926   1.455   5.691   6.053 -0.1275  0.2753  0.0162
  190SLPC   O1321927   1.454   5.834   6.082  0.1922 -0.6905 -0.4641
  190SLPC   O1421928   1.460   5.654   5.909 -0.8576 -0.5227 -0.6345
  190SLPC   O1221929   1.576   5.633   6.132 -0.0660 -0.7503  0.8042
  190SLPC   O1121930   1.324   5.623   6.113  0.1293 -0.6055  0.1863
  190SLPC    C121931   1.306   5.608   6.255  0.5482 -0.4699  0.4868
  190SLPC    HA21932   1.256   5.510   6.269  1.5120 -1.5368 -2.6821
  190SLPC    HB21933   1.397   5.613   6.318  0.9019  1.9330 -0.1249
  190SLPC    C221934   1.203   5.714   6.313 -0.1273  0.1816 -0.6584
  190SLPC    HS21935   1.219   5.808   6.255 -3.4122 -1.2079 -4.2115
  190SLPC   O2121936   1.213   5.727   6.457  0.2089 -0.3138  0.1428
  190SLPC   C2121937   1.231   5.848   6.506 -0.3135  0.7798  0.1208
  190SLPC   O2221938   1.241   5.948   6.440  0.5379 -0.0533 -0.4979
  190SLPC   C2221939   1.238   5.837   6.656  0.0235  1.1529  0.3519
  190SLPC   H2R21940   1.166   5.757   6.683  1.4108  0.0904  0.9986
  190SLPC   H2S21941   1.342   5.800   6.667 -0.0513 -1.0417 -4.0219
  190SLPC    C321942   1.052   5.679   6.267 -0.5174 -0.1553  0.0159
  190SLPC    HX21943   1.064   5.663   6.157  1.8049 -1.4522  0.4094
  190SLPC    HY21944   0.995   5.774   6.279 -0.3049 -0.2703  2.1867
  190SLPC   O3121945   0.993   5.553   6.313 -0.0168 -0.2238  0.5595
  190SLPC   C3121946   0.939   5.560   6.429  0.2778  0.5147  0.1380
  190SLPC   O3221947   0.922   5.658   6.501 -0.2100 -0.1018 -0.0765
  190SLPC   C3221948   0.886   5.420   6.462 -0.7129  0.0211 -0.1301
  190SLPC   H2X21949   0.971   5.349   6.462  0.7687  1.7082 -1.4522
  190SLPC   H2Y21950   0.813   5.388   6.385  1.4172 -1.9336 -1.4571
  190SLPC   C2321951   1.217   5.967   6.729 -0.5081  0.1140  0.2608
  190SLPC   H3R21952   1.113   6.004   6.720 -0.4178  0.5512  0.9476
  190SLPC   H3S21953   1.271   6.053   6.683 -0.9997  0.1396 -0.2727
  190SLPC   C2421954   1.255   5.943   6.876 -0.5821  0.0057 -0.2675
  190SLPC   H4R21955   1.361   5.912   6.877  0.2150  2.4932  0.7835
  190SLPC   H4S21956   1.194   5.859   6.918 -0.2358  0.1011  0.4410
  190SLPC   C2521957   1.239   6.073   6.961 -0.4782 -0.0567 -0.2234
  190SLPC   H5R21958   1.290   6.153   6.902  1.7160 -1.8404 -0.8725
  190SLPC   H5S21959   1.299   6.080   7.054  3.8355  1.0129 -2.8019
  190SLPC   C2621960   1.094   6.107   6.973  0.0607  0.7290  0.4794
  190SLPC   H6R21961   1.044   6.029   7.033  0.8552 -0.0388  0.1634
  190SLPC   H6S21962   1.048   6.113   6.872  1.0770  0.0046 -0.0471
  190SLPC   C2721963   1.080   6.252   7.038  0.1611  0.1357  0.1022
  190SLPC   H7R21964   1.141   6.324   6.980  2.0982 -0.7383  0.9521
  190SLPC   H7S21965   1.124   6.246   7.140 -0.7000  0.7390  0.5266
  190SLPC   C2821966   0.931   6.294   7.055  0.0868 -0.0365 -0.3353
  190SLPC   H8R21967   0.873   6.207   7.092 -0.4163  0.6512  0.5095
  190SLPC   H8S21968   0.889   6.313   6.954  1.9339  1.7996 -0.8414
  190SLPC   C2921969   0.892   6.412   7.145  0.1507 -0.4317  0.5344
  190SLPC   H9R21970   0.866   6.505   7.092 -0.5752 -2.1513 -2.3605
  190SLPC  C21021971   0.876   6.419   7.277 -0.2603  0.1824 -0.7873
  190SLPC  H10R21972   0.861   6.517   7.325  2.7043 -0.5559  1.9481
  190SLPC  C21121973   0.901   6.308   7.377  0.1281 -0.1472  0.3574
  190SLPC  H11R21974   0.960   6.349   7.461 -0.4057  0.4202  0.4646
  190SLPC  H11S21975   0.966   6.225   7.343  1.7475  0.9574  0.6407
  190SLPC  C21221976   0.770   6.251   7.428 -0.7483 -0.5345  0.2072
  190SLPC  H12R21977   0.715   6.171   7.375 -1.6488  0.6723 -0.7202
  190SLPC  C21321978   0.706   6.296   7.536  0.1575 -0.4037  0.0744
  190SLPC  H13R21979   0.606   6.253   7.545 -0.6660  1.2923 -0.5920
  190SLPC  C21421980   0.745   6.402   7.630  0.1449 -0.2998  0.5585
  190SLPC  H14R21981   0.650   6.453   7.661 -0.0044 -0.6361  0.6584
  190SLPC  H14S21982   0.822   6.470   7.588  1.8586 -1.2369  2.0226
  190SLPC  C21521983   0.793   6.360   7.767 -0.5586  0.4744 -0.3473
  190SLPC  H15R21984   0.874   6.285   7.753 -1.1684 -0.4625  0.9370
  190SLPC  H15S21985   0.707   6.309   7.816 -1.8791  1.7387 -1.2685
  190SLPC  C21621986   0.857   6.474   7.853  0.5465  0.2146 -0.0974
  190SLPC  H16R21987   0.772   6.534   7.892 -1.1554 -2.6845  0.9674
  190SLPC  H16S21988   0.924   6.540   7.793  0.7450  1.1010  1.0505
  190SLPC  C21721989   0.932   6.421   7.975 -0.1343  0.0124  0.6232
  190SLPC  H17R21990   1.008   6.347   7.943  1.0995  0.5582  2.1764
  190SLPC  H17S21991   0.866   6.366   8.046 -1.8043  0.0236 -0.8599
  190SLPC  C21821992   1.004   6.530   8.063  0.1206  0.4287  0.1159
  190SLPC  H18R21993   0.932   6.608   8.096  0.5733  1.9505 -2.2097
  190SLPC  H18S21994   1.074   6.578   7.992  0.7067  1.0599  1.1045
  190SLPC  H18T21995   1.058   6.486   8.149 -2.7035  1.7030  2.7774
  190SLPC   C3321996   0.826   5.407   6.609  0.2362 -0.2344  0.5010
  190SLPC   H3X21997   0.742   5.478   6.623 -1.2417 -1.5984 -0.9416
  190SLPC   H3Y21998   0.907   5.436   6.679  2.1660 -3.0753 -0.3793
  190SLPC   C3421999   0.776   5.263   6.648 -0.0916  0.7061  0.4150
  190SLPC   H4X22000   0.858   5.189   6.656 -0.7468 -0.2043 -0.9525
  190SLPC   H4Y22001   0.718   5.217   6.565 -0.4818  1.2654  0.3703
  190SLPC   C3522002   0.695   5.262   6.777  0.4376  0.2587  0.8997
  190SLPC   H5X22003   0.617   5.183   6.787  2.8621 -2.6795 -1.2723
  190SLPC   H5Y22004   0.633   5.354   6.782 -2.2207 -1.2460 -1.2919
  190SLPC   C3622005   0.794   5.266   6.896 -0.7580  0.3557 -0.1718
  190SLPC   H6X22006   0.867   5.349   6.894 -1.3913  0.9135 -2.0150
  190SLPC   H6Y22007   0.866   5.181   6.897 -0.6121  0.4208  2.6089
  190SLPC   C3722008   0.713   5.252   7.028  0.4839  0.0787 -0.1581
  190SLPC   H7X22009   0.632   5.180   7.004 -0.2385  1.3577 -1.7423
  190SLPC   H7Y22010   0.640   5.333   7.054 -1.1361 -1.0540 -1.0088
  190SLPC   C3822011   0.798   5.196   7.146  0.4116 -0.5457 -0.3012
  190SLPC   H8X22012   0.852   5.104   7.118  0.9840 -0.0367 -0.9188
  190SLPC   H8Y22013   0.733   5.173   7.233 -1.5505  3.8791 -0.3010
  190SLPC   C3922014   0.908   5.299   7.200  0.3082 -0.1327  0.5815
  190SLPC   H9X22015   0.851   5.386   7.239 -1.8912 -1.4613  0.4707
  190SLPC   H9Y22016   0.980   5.333   7.122 -1.3323  2.5860  0.1105
  190SLPC  C31022017   0.989   5.252   7.324  0.5866  0.6271  0.0226
  190SLPC  H10X22018   1.070   5.326   7.339  1.3590 -0.5980  2.3981
  190SLPC  H10Y22019   1.029   5.151   7.299 -0.2678  0.3309 -0.1881
  190SLPC  C31122020   0.918   5.253   7.454 -0.1212  0.5813 -0.1832
  190SLPC  H11X22021   0.820   5.199   7.453  0.2044 -0.0353  0.3208
  190SLPC  H11Y22022   0.874   5.355   7.465 -1.8645 -0.0920 -0.4886
  190SLPC  C31222023   1.010   5.234   7.579  1.0135 -0.4766  0.3359
  190SLPC  H12X22024   1.101   5.288   7.546  1.9998 -1.5724  1.2081
  190SLPC  H12Y22025   1.039   5.129   7.598  0.4411 -1.0051 -1.4843
  190SLPC  C31322026   0.967   5.293   7.707  0.0411 -0.2873 -0.6301
  190SLPC  H13X22027   0.863   5.264   7.735  1.1406 -1.3837  2.8213
  190SLPC  H13Y22028   0.970   5.402   7.688 -1.5727 -0.2262 -0.6972
  190SLPC  C31422029   1.046   5.262   7.828  0.7227  0.6402  0.2820
  190SLPC  H14X22030   1.020   5.157   7.857 -1.2552  0.4420 -1.8974
  190SLPC  H14Y22031   1.022   5.326   7.915  1.9576  0.5875  0.6755
  190SLPC  C31522032   1.201   5.280   7.808 -0.5233 -0.3066  1.0794
  190SLPC  H15X22033   1.217   5.385   7.776  2.4438 -0.8756  0.4460
  190SLPC  H15Y22034   1.244   5.214   7.730 -0.2576 -0.6469  1.5052
  190SLPC  C31622035   1.279   5.245   7.928 -0.2369 -0.5776 -0.3781
  190SLPC  H16X22036   1.249   5.145   7.965  0.4660 -0.2795  1.0642
  190SLPC  H16Y22037   1.250   5.320   8.005  0.6026  0.0443 -0.6542
  190SLPC  C31722038   1.429   5.253   7.889  0.0067  0.3928 -0.2969
  190SLPC  H17X22039   1.485   5.284   7.980 -0.3816 -0.3229  0.1974
  190SLPC  H17Y22040   1.443   5.336   7.816 -1.7533  0.7679 -0.2731
  190SLPC  C31822041   1.479   5.119   7.830 -0.4519  0.4775 -0.0043
  190SLPC  H18X22042   1.589   5.116   7.815 -0.3199  0.1856  1.0020
  190SLPC  H18Y22043   1.432   5.090   7.733  0.5446 -1.9227  0.1649
  190SLPC  H18Z22044   1.454   5.030   7.891 -0.0072 -0.1176 -0.6724
  191SLPC     N22045   0.236   6.813   6.536  0.2361 -0.4797  0.6795
  191SLPC   C1322046   0.260   6.865   6.401  0.3739  0.5085  0.2351
  191SLPC  H13A22047   0.306   6.791   6.337  1.3282  0.0395  1.4339
  191SLPC  H13B22048   0.166   6.902   6.364  0.2468  0.9486  0.9861
  191SLPC  H13C22049   0.322   6.953   6.413  1.1478 -0.0024  0.0996
  191SLPC   C1422050   0.327   6.697   6.564  0.9984 -0.1052 -0.3334
  191SLPC  H14A22051   0.313   6.627   6.483 -0.4709  0.8184 -0.9235
  191SLPC  H14B22052   0.431   6.726   6.564  1.3105 -1.1440  1.2976
  191SLPC  H14C22053   0.298   6.649   6.656  1.8853  0.7664  0.4254
  191SLPC   C1522054   0.090   6.765   6.534 -0.3055  0.4267  0.0837
  191SLPC  H15A22055   0.070   6.683   6.466 -1.3513  0.2335  0.6117
  191SLPC  H15B22056   0.058   6.745   6.634 -3.4749 -1.3099 -1.1529
  191SLPC  H15C22057   0.027   6.849   6.507  1.3232  0.9561 -2.4774
  191SLPC   C1222058   0.250   6.923   6.644  0.0464 -0.1805  0.8142
  191SLPC  H12A22059   0.217   6.870   6.732  2.0858 -0.8334  1.2386
  191SLPC  H12B22060   0.179   7.004   6.631  0.8250  0.6246  1.3930
  191SLPC   C1122061   0.387   6.997   6.651 -0.2141 -0.3126 -0.0518
  191SLPC  H11A22062   0.476   6.931   6.645 -0.4293 -0.4933 -2.5060
  191SLPC  H11B22063   0.406   7.059   6.741 -0.3720  0.3955 -0.4918
  191SLPC     P22064   0.297   7.221   6.548  0.2858  0.2659 -0.3306
  191SLPC   O1322065   0.338   7.316   6.439 -0.1880  0.2658 -0.1016
  191SLPC   O1422066   0.149   7.182   6.547 -0.0458  0.0653 -0.0029
  191SLPC   O1222067   0.392   7.084   6.536  0.3576 -0.0241  0.4720
  191SLPC   O1122068   0.327   7.274   6.692 -0.1939 -0.3691 -0.3949
  191SLPC    C122069   0.426   7.373   6.702 -0.4867 -0.6987 -1.1330
  191SLPC    HA22070   0.426   7.450   6.622 -0.2019  0.4105 -0.1025
  191SLPC    HB22071   0.415   7.421   6.802  0.4780 -2.6046 -0.0560
  191SLPC    C222072   0.580   7.328   6.690  0.9973  0.9816 -0.2790
  191SLPC    HS22073   0.576   7.266   6.598 -2.9084  2.3800 -1.2215
  191SLPC   O2122074   0.605   7.236   6.807  0.0832 -0.0037  0.1517
  191SLPC   C2122075   0.725   7.186   6.803 -0.1314  0.1076  0.0667
  191SLPC   O2222076   0.805   7.182   6.710  0.5177  0.0569  0.4758
  191SLPC   C2222077   0.766   7.125   6.937  0.2053  0.3973 -0.2190
  191SLPC   H2R22078   0.678   7.073   6.978 -0.2098  1.6929  0.5889
  191SLPC   H2S22079   0.850   7.054   6.922  0.9354  0.8660  1.4140
  191SLPC    C322080   0.680   7.449   6.670 -0.7285 -0.0805  0.0961
  191SLPC    HX22081   0.645   7.515   6.587 -2.8830 -0.0652  0.9592
  191SLPC    HY22082   0.780   7.412   6.639 -0.3264  0.6444  0.4973
  191SLPC   O3122083   0.686   7.526   6.789  0.2027  0.5960 -0.7208
  191SLPC   C3122084   0.801   7.533   6.858 -0.1646 -0.0861  0.4343
  191SLPC   O3222085   0.912   7.491   6.814 -0.1087  0.1430 -0.2765
  191SLPC   C3222086   0.776   7.604   6.987 -0.2495 -0.3684 -0.4671
  191SLPC   H2X22087   0.696   7.549   7.040 -0.2554  1.3997  1.5174
  191SLPC   H2Y22088   0.738   7.708   6.982 -0.0706 -0.3367 -1.5100
  191SLPC   C2322089   0.812   7.222   7.048 -0.4241  0.7761 -0.2407
  191SLPC   H3R22090   0.737   7.303   7.051 -2.5746 -1.1226  1.3442
  191SLPC   H3S22091   0.912   7.264   7.025 -1.1527  2.4285 -0.5084
  191SLPC   C2422092   0.808   7.169   7.190  0.2731 -0.3930  0.4463
  191SLPC   H4R22093   0.874   7.080   7.184  1.0777  0.2849 -1.4438
  191SLPC   H4S22094   0.705   7.145   7.225  0.5456 -0.9166  0.9019
  191SLPC   C2522095   0.852   7.271   7.289  0.0444 -0.1443  0.4156
  191SLPC   H5R22096   0.769   7.339   7.317 -0.5783 -0.6486 -0.1818
  191SLPC   H5S22097   0.938   7.326   7.246  0.3880 -0.0180  1.2328
  191SLPC   C2622098   0.898   7.217   7.425  0.1512 -0.0186 -0.5088
  191SLPC   H6R22099   0.974   7.137   7.408  0.2005  0.2395 -1.6160
  191SLPC   H6S22100   0.817   7.162   7.477  1.9039 -0.8053  1.5527
  191SLPC   C2722101   0.969   7.311   7.522  0.3030 -0.8086  0.3441
  191SLPC   H7R22102   1.031   7.385   7.467  0.1815 -0.9133  0.0648
  191SLPC   H7S22103   1.043   7.244   7.571  1.0901 -1.2726 -1.4187
  191SLPC   C2822104   0.886   7.372   7.635  0.2642 -0.2233  0.1340
  191SLPC   H8R22105   0.800   7.409   7.576  1.4443 -2.7340 -3.5251
  191SLPC   H8S22106   0.941   7.458   7.677 -0.9763  1.0619 -0.8004
  191SLPC   C2922107   0.841   7.266   7.737  0.0142  0.2329 -0.5104
  191SLPC   H9R22108   0.763   7.194   7.712 -0.3967 -0.9531  3.5213
  191SLPC  C21022109   0.892   7.247   7.863 -0.5241  0.1462 -0.3468
  191SLPC  H10R22110   0.836   7.178   7.928 -0.5115 -0.5445 -1.0638
  191SLPC  C21122111   1.003   7.329   7.934 -0.8184 -0.1021 -0.0452
  191SLPC  H11R22112   1.005   7.426   7.880 -1.8519  0.9343  1.6848
  191SLPC  H11S22113   1.105   7.286   7.922 -1.0406 -0.7318  0.3093
  191SLPC  C21222114   0.964   7.375   8.070 -0.0798  0.2504 -0.0975
  191SLPC  H12R22115   0.881   7.447   8.068 -0.0474  0.5364  3.2132
  191SLPC  C21322116   1.030   7.341   8.186  0.0932  0.3275  0.3253
  191SLPC  H13R22117   0.995   7.382   8.282  0.1872  0.8522  0.1414
  191SLPC  C21422118   1.138   7.234   8.196  0.3867 -0.4556  0.0072
  191SLPC  H14R22119   1.239   7.269   8.169  0.3409  0.4470  0.9519
  191SLPC  H14S22120   1.126   7.156   8.118  1.2605 -0.5840 -0.0070
  191SLPC  C21522121   1.170   7.163   8.333  0.3340  0.4499  0.2294
  191SLPC  H15R22122   1.173   7.234   8.418 -2.9239 -1.3382  2.0188
  191SLPC  H15S22123   1.274   7.123   8.326 -0.3073 -1.1211 -1.0363
  191SLPC  C21622124   1.085   7.051   8.371 -0.1821  0.3763  0.2663
  191SLPC  H16R22125   1.074   6.971   8.294  0.5573  0.7007 -0.1853
  191SLPC  H16S22126   0.980   7.078   8.393  0.6152  3.5480  0.7204
  191SLPC  C21722127   1.142   6.975   8.499 -0.2474 -0.1029 -0.0317
  191SLPC  H17R22128   1.188   7.036   8.580  0.7459  0.7752 -1.2346
  191SLPC  H17S22129   1.232   6.922   8.461  2.1679  2.1185  2.1788
  191SLPC  C21822130   1.059   6.862   8.561  0.6761 -0.1196  0.1912
  191SLPC  H18R22131   1.064   6.770   8.498 -0.4050  0.1405 -0.2963
  191SLPC  H18S22132   0.950   6.882   8.561  0.5594 -0.7376  0.6961
  191SLPC  H18T22133   1.088   6.842   8.666 -0.6562  0.8517  0.7670
  191SLPC   C3322134   0.908   7.597   7.079  0.5238 -0.3752  0.2745
  191SLPC   H3X22135   0.993   7.650   7.031  0.1926 -1.0519 -1.1246
  191SLPC   H3Y22136   0.948   7.496   7.103 -1.0818 -1.0128  0.4038
  191SLPC   C3422137   0.880   7.663   7.217 -0.4771 -0.2587 -0.0595
  191SLPC   H4X22138   0.794   7.609   7.263 -0.9661 -0.3039 -1.0026
  191SLPC   H4Y22139   0.845   7.767   7.203 -2.6046 -0.6999  1.3595
  191SLPC   C3522140   1.005   7.654   7.311  0.3043  0.3172  0.6751
  191SLPC   H5X22141   1.089   7.700   7.255 -0.8156  0.7203 -0.7353
  191SLPC   H5Y22142   1.039   7.553   7.343  2.2952  1.1117  1.1937
  191SLPC   C3622143   0.978   7.730   7.443 -0.0678 -0.5884 -0.1533
  191SLPC   H6X22144   0.881   7.688   7.477 -0.8696  0.2385 -1.3441
  191SLPC   H6Y22145   0.968   7.840   7.428  0.2889 -0.7609 -1.7927
  191SLPC   C3722146   1.084   7.713   7.554 -0.0667  0.3262 -0.7126
  191SLPC   H7X22147   1.176   7.746   7.502  0.1537  1.6075  0.4590
  191SLPC   H7Y22148   1.090   7.605   7.580 -1.8054  0.2067 -0.6388
  191SLPC   C3822149   1.073   7.803   7.673 -0.4978  0.1484  0.1341
  191SLPC   H8X22150   1.066   7.909   7.642 -0.9364 -0.4901 -2.1370
  191SLPC   H8Y22151   1.170   7.792   7.727  0.3977  0.7653 -1.2761
  191SLPC   C3922152   0.948   7.775   7.761  0.4297 -0.2023  0.1062
  191SLPC   H9X22153   0.928   7.666   7.759  0.9471 -0.2869 -1.5429
  191SLPC   H9Y22154   0.859   7.832   7.725  0.1819 -0.0608  0.9090
  191SLPC  C31022155   0.981   7.809   7.906 -0.1270 -0.5752  0.2640
  191SLPC  H10X22156   1.007   7.917   7.901 -0.4147 -0.3078  3.0253
  191SLPC  H10Y22157   1.074   7.756   7.937  1.1270  1.7326  0.6802
  191SLPC  C31122158   0.863   7.785   8.000 -0.6265  1.0980 -0.2155
  191SLPC  H11X22159   0.827   7.682   7.979 -2.0022  1.9456 -2.5211
  191SLPC  H11Y22160   0.773   7.850   7.995 -0.4492  1.5080  1.3335
  191SLPC  C31222161   0.907   7.791   8.145  0.4437  0.5616  0.4962
  191SLPC  H12X22162   0.945   7.894   8.159  0.3987  0.7359 -0.5825
  191SLPC  H12Y22163   0.989   7.717   8.156  0.3544  0.0005 -2.0180
  191SLPC  C31322164   0.794   7.759   8.244  0.1481 -0.7312 -0.3108
  191SLPC  H13X22165   0.752   7.656   8.233 -1.7495 -0.5573  3.7397
  191SLPC  H13Y22166   0.712   7.830   8.223  0.6677 -0.1550 -0.4135
  191SLPC  C31422167   0.837   7.763   8.390 -0.3902 -0.1481 -0.8283
  191SLPC  H14X22168   0.930   7.706   8.408 -1.5988 -2.3883 -1.3445
  191SLPC  H14Y22169   0.751   7.728   8.451  0.4278 -0.8893 -0.0740
  191SLPC  C31522170   0.867   7.908   8.436 -0.1315 -0.0396 -0.4595
  191SLPC  H15X22171   0.782   7.974   8.408  0.1789  1.3614  1.7101
  191SLPC  H15Y22172   0.958   7.941   8.382 -0.4822 -1.7012 -2.1973
  191SLPC  C31622173   0.896   7.919   8.584  0.0469  0.1579  0.0825
  191SLPC  H16X22174   0.967   7.838   8.612 -2.0131 -2.3832 -1.5242
  191SLPC  H16Y22175   0.805   7.879   8.634  0.6842 -3.2137 -1.1839
  191SLPC  C31722176   0.940   8.054   8.645  0.3280 -0.7116  0.2509
  191SLPC  H17X22177   1.022   8.092   8.581  1.5713 -1.7916  1.1513
  191SLPC  H17Y22178   0.978   8.047   8.749 -0.7210  1.8769  0.9101
  191SLPC  C31822179   0.832   8.160   8.647 -0.4074  0.0388  0.0634
  191SLPC  H18X22180   0.766   8.161   8.558  0.8770 -3.5072 -1.1320
  191SLPC  H18Y22181   0.880   8.260   8.645 -1.7918  0.7163 -1.0699
  191SLPC  H18Z22182   0.761   8.149   8.731  0.8151  2.3472  1.5003
  192SLPC     N22183   0.946   1.612   6.206 -0.2228  0.3620 -0.2862
  192SLPC   C1322184   1.055   1.699   6.266  0.4655  0.3962 -0.5683
  192SLPC  H13A22185   1.134   1.638   6.306  0.9236  1.1383 -0.3422
  192SLPC  H13B22186   1.089   1.774   6.197 -1.1132 -0.8359 -2.8292
  192SLPC  H13C22187   1.021   1.751   6.354 -1.9203 -1.2976 -0.3671
  192SLPC   C1422188   0.902   1.516   6.306 -0.6234  0.6499 -0.5658
  192SLPC  H14A22189   0.828   1.448   6.266  1.4799 -0.7699 -2.2896
  192SLPC  H14B22190   0.976   1.445   6.339 -0.7966  0.5494 -0.3885
  192SLPC  H14C22191   0.867   1.571   6.392  0.2586 -1.5926  1.3185
  192SLPC   C1522192   1.001   1.525   6.093  1.1027  0.0957 -0.0890
  192SLPC  H15A22193   1.073   1.450   6.122  2.7621  1.1640 -1.2480
  192SLPC  H15B22194   0.920   1.474   6.044  2.1288 -2.3800  0.6632
  192SLPC  H15C22195   1.059   1.588   6.027  0.9576 -0.8525 -1.1323
  192SLPC   C1222196   0.831   1.704   6.159  0.1318 -0.3783 -0.2905
  192SLPC  H12A22197   0.783   1.749   6.245 -0.1153 -1.2066  0.0177
  192SLPC  H12B22198   0.762   1.632   6.117 -0.0194 -0.4234  0.0284
  192SLPC   C1122199   0.859   1.814   6.048  0.2948  0.9071  0.0883
  192SLPC  H11A22200   0.764   1.853   6.007 -1.1702 -2.4294  0.0314
  192SLPC  H11B22201   0.905   1.763   5.961  0.2523  2.3193 -0.7982
  192SLPC     P22202   0.905   2.056   6.114  0.2383 -0.4664 -0.0576
  192SLPC   O1322203   1.016   2.154   6.115 -0.0116 -0.3798 -0.3237
  192SLPC   O1422204   0.799   2.085   6.010 -0.0398  0.1349 -0.2049
  192SLPC   O1222205   0.960   1.916   6.087  0.0132  0.3587  0.4210
  192SLPC   O1122206   0.838   2.039   6.250 -0.5516  0.1149  0.1072
  192SLPC    C122207   0.905   1.996   6.369 -0.1077 -0.2204 -0.3379
  192SLPC    HA22208   0.877   1.893   6.400  1.0953  0.1568  2.2081
  192SLPC    HB22209   1.015   2.001   6.357 -0.1785 -0.3312 -1.0925
  192SLPC    C222210   0.865   2.094   6.488 -0.0062  0.6436  0.2504
  192SLPC    HS22211   0.760   2.064   6.509  0.1516  1.0252  1.7278
  192SLPC   O2122212   0.880   2.231   6.459 -0.4523 -0.2508  0.1669
  192SLPC   C2122213   0.802   2.307   6.532  0.2087 -0.6163  0.0063
  192SLPC   O2222214   0.704   2.268   6.597 -0.1011 -0.3297  0.9260
  192SLPC   C2222215   0.854   2.454   6.542  0.8649 -0.0836  0.4487
  192SLPC   H2R22216   0.892   2.483   6.441 -1.7409 -0.7094 -0.7915
  192SLPC   H2S22217   0.774   2.525   6.572 -0.1130 -1.5347  1.4152
  192SLPC    C322218   0.955   2.057   6.613 -0.1646  0.0005 -0.4202
  192SLPC    HX22219   1.052   2.105   6.588  0.1380 -0.3511  0.0729
  192SLPC    HY22220   0.965   1.947   6.606 -1.1310 -0.2753  1.5883
  192SLPC   O3122221   0.913   2.104   6.745  0.3268 -0.2545 -0.0935
  192SLPC   C3122222   0.819   2.025   6.802  0.3684  0.1831  0.4657
  192SLPC   O3222223   0.781   1.918   6.758  0.3790 -0.2003 -0.3977
  192SLPC   C3222224   0.774   2.086   6.933 -0.0163 -0.1781  0.5631
  192SLPC   H2X22225   0.754   2.190   6.899  1.2823 -0.8628 -2.6497
  192SLPC   H2Y22226   0.859   2.080   7.005 -1.2760  0.3206  2.1401
  192SLPC   C2322227   0.981   2.477   6.639  0.4641  0.9727 -0.9337
  192SLPC   H3R22228   1.042   2.567   6.613  2.8750 -0.2890  0.0405
  192SLPC   H3S22229   1.050   2.390   6.639 -1.4390 -0.6861  1.9948
  192SLPC   C2422230   0.931   2.492   6.786 -0.8079 -0.0192  0.1565
  192SLPC   H4R22231   0.867   2.403   6.803  1.1722 -1.3397  1.0606
  192SLPC   H4S22232   0.869   2.581   6.808  0.1468  0.5163  0.7737
  192SLPC   C2522233   1.043   2.492   6.888 -0.6407  0.1928 -0.0005
  192SLPC   H5R22234   1.136   2.542   6.853  0.5898  0.1541  2.9488
  192SLPC   H5S22235   1.075   2.386   6.896  1.5555  0.7222 -1.1192
  192SLPC   C2622236   1.008   2.553   7.029  0.0706 -0.4679  0.0085
  192SLPC   H6R22237   0.981   2.661   7.024 -1.0001 -0.7284 -0.0675
  192SLPC   H6S22238   1.098   2.556   7.093 -1.1810  0.1966  1.8241
  192SLPC   C2722239   0.892   2.475   7.089 -0.5066 -0.1258 -0.6925
  192SLPC   H7R22240   0.937   2.376   7.111 -0.7517 -0.5071 -1.8490
  192SLPC   H7S22241   0.817   2.446   7.013  0.3665  0.1462 -1.6810
  192SLPC   C2822242   0.836   2.534   7.217 -0.2522 -0.1948 -0.0177
  192SLPC   H8R22243   0.817   2.643   7.209  0.6944 -0.0054  0.2942
  192SLPC   H8S22244   0.903   2.522   7.305 -0.3754  1.8025  0.3791
  192SLPC   C2922245   0.703   2.461   7.230  0.1443 -0.2877 -0.4991
  192SLPC   H9R22246   0.697   2.391   7.314 -0.8863  0.1687 -0.1745
  192SLPC  C21022247   0.591   2.488   7.160  0.3155 -0.0088 -0.2024
  192SLPC  H10R22248   0.500   2.428   7.175 -0.4188  1.5106  2.0708
  192SLPC  C21122249   0.568   2.597   7.056 -0.2198 -0.3604  0.6120
  192SLPC  H11R22250   0.639   2.681   7.072 -0.9723  0.2129  0.9462
  192SLPC  H11S22251   0.473   2.646   7.083  1.4153  2.6199  1.4256
  192SLPC  C21222252   0.578   2.557   6.912  0.2194  0.2467  0.0383
  192SLPC  H12R22253   0.552   2.452   6.892  1.2534  0.3477 -2.1189
  192SLPC  C21322254   0.608   2.642   6.807 -0.5099  0.9295 -0.3897
  192SLPC  H13R22255   0.600   2.602   6.705 -1.3587 -0.2999  0.1261
  192SLPC  C21422256   0.625   2.789   6.815 -0.3037  0.8101  0.1600
  192SLPC  H14R22257   0.595   2.840   6.909  1.0332  3.1492 -0.5861
  192SLPC  H14S22258   0.554   2.837   6.743 -1.0411 -1.2267 -0.5383
  192SLPC  C21522259   0.766   2.836   6.785  0.5617 -0.0754 -0.0478
  192SLPC  H15R22260   0.802   2.776   6.698 -0.5973 -1.0248  0.0986
  192SLPC  H15S22261   0.827   2.804   6.872  1.7356 -1.7261 -1.4134
  192SLPC  C21622262   0.773   2.989   6.768 -0.0789 -0.1546  0.3133
  192SLPC  H16R22263   0.698   3.015   6.690  0.9149  1.9336 -0.0044
  192SLPC  H16S22264   0.873   3.017   6.730 -0.3032 -1.0937 -1.0339
  192SLPC  C21722265   0.744   3.071   6.894  0.0838 -0.0427 -0.1625
  192SLPC  H17R22266   0.772   3.174   6.865 -2.2809  0.5003 -0.7152
  192SLPC  H17S22267   0.634   3.070   6.910  0.2866 -0.0444  1.4362
  192SLPC  C21822268   0.807   3.028   7.028  0.3527 -0.2491 -0.5146
  192SLPC  H18R22269   0.918   3.020   7.019  0.5139  1.2066 -0.0107
  192SLPC  H18S22270   0.756   2.933   7.055  0.0712  0.0186 -0.0971
  192SLPC  H18T22271   0.781   3.099   7.110 -1.6276  0.4604 -1.6993
  192SLPC   C3322272   0.654   2.019   6.987 -0.6436 -0.4303  0.0700
  192SLPC   H3X22273   0.675   1.915   7.020  0.5695  0.0012  0.7307
  192SLPC   H3Y22274   0.571   2.011   6.914 -1.5515  0.8115  0.9103
  192SLPC   C3422275   0.612   2.089   7.119  0.0110  0.3936  0.5642
  192SLPC   H4X22276   0.677   2.177   7.140 -0.3084  0.8106 -0.1486
  192SLPC   H4Y22277   0.619   2.022   7.207 -0.7640  1.0239  1.1219
  192SLPC   C3522278   0.460   2.133   7.112 -1.0753 -0.4705 -0.2991
  192SLPC   H5X22279   0.399   2.048   7.075  0.2510 -0.8779 -1.6612
  192SLPC   H5Y22280   0.445   2.212   7.035  0.4488  2.7555  2.4619
  192SLPC   C3622281   0.421   2.194   7.239  0.4464 -0.3421 -0.8111
  192SLPC   H6X22282   0.353   2.280   7.222  0.3116 -0.2437  0.1717
  192SLPC   H6Y22283   0.511   2.235   7.290  0.2798 -1.0861  0.1253
  192SLPC   C3722284   0.364   2.102   7.357 -0.3846  0.4717  0.7920
  192SLPC   H7X22285   0.430   2.017   7.384  0.0231  1.3073  2.5927
  192SLPC   H7Y22286   0.267   2.054   7.332  0.6477 -1.1276 -0.3221
  192SLPC   C3822287   0.362   2.172   7.490 -0.3638  0.4653  0.2749
  192SLPC   H8X22288   0.287   2.119   7.553 -1.9346  1.1119 -0.9619
  192SLPC   H8Y22289   0.317   2.273   7.476 -0.8595  0.1466 -0.4989
  192SLPC   C3922290   0.505   2.182   7.552 -0.2851  0.1915 -0.1362
  192SLPC   H9X22291   0.570   2.252   7.496  0.7498  0.0723  0.8807
  192SLPC   H9Y22292   0.561   2.088   7.569  1.3137  1.0108 -0.7566
  192SLPC  C31022293   0.493   2.239   7.701 -0.2597 -0.6415  0.1745
  192SLPC  H10X22294   0.440   2.167   7.767 -0.1347  0.5964  1.6792
  192SLPC  H10Y22295   0.429   2.330   7.701  0.2095 -0.3052  0.5501
  192SLPC  C31122296   0.629   2.273   7.758  0.6335  0.9328  0.0621
  192SLPC  H11X22297   0.688   2.349   7.701  1.0417 -0.3294 -1.2340
  192SLPC  H11Y22298   0.694   2.184   7.742  3.1157  2.8910 -1.5525
  192SLPC  C31222299   0.631   2.316   7.907  0.1726  0.0799  0.3577
  192SLPC  H12X22300   0.737   2.295   7.934 -0.5520 -1.0419  2.5148
  192SLPC  H12Y22301   0.576   2.238   7.965  2.2345 -1.3624  0.4826
  192SLPC  C31322302   0.602   2.464   7.940 -0.3992 -0.2144 -0.0688
  192SLPC  H13X22303   0.496   2.488   7.917  0.1201  2.0685 -0.3349
  192SLPC  H13Y22304   0.674   2.525   7.881 -1.4084  1.8720  0.7422
  192SLPC  C31422305   0.638   2.506   8.090  0.2646  0.2733  0.7873
  192SLPC  H14X22306   0.739   2.477   8.128 -0.0707 -2.1070  0.0325
  192SLPC  H14Y22307   0.577   2.444   8.159  2.3346 -0.4764  2.0463
  192SLPC  C31522308   0.600   2.653   8.115  0.4699  0.5612  0.0250
  192SLPC  H15X22309   0.654   2.683   8.207  0.3782  0.1550  0.2154
  192SLPC  H15Y22310   0.493   2.670   8.141  0.7358 -0.9082  2.4506
  192SLPC  C31622311   0.648   2.767   8.023  0.6467  0.0638 -0.0796
  192SLPC  H16X22312   0.595   2.775   7.925 -0.9279  0.5393  0.7826
  192SLPC  H16Y22313   0.751   2.732   7.999  0.3109 -0.7972 -0.3051
  192SLPC  C31722314   0.643   2.906   8.090  1.2478 -0.4888 -0.0784
  192SLPC  H17X22315   0.693   2.910   8.189  1.3709 -0.4427 -0.1420
  192SLPC  H17Y22316   0.538   2.933   8.110  1.2407  0.4622 -1.2503
  192SLPC  C31822317   0.674   3.023   7.995  0.1939 -0.3533  0.0790
  192SLPC  H18X22318   0.587   3.041   7.929 -0.3148 -0.2455  0.7727
  192SLPC  H18Y22319   0.769   2.996   7.943  0.1073  1.0114 -0.8307
  192SLPC  H18Z22320   0.696   3.117   8.049 -1.1679 -0.4789  0.8918
  193SOD    SOD22321   2.972   1.097  11.264 -0.2155  0.1227 -0.2089
  194SOD    SOD22322   3.596   6.526   4.736 -0.2386 -0.1404  0.2570
  195SOD    SOD22323   3.906   6.260  10.882 -0.0739  0.3090  0.0217
  196SOD    SOD22324   6.172   3.485   4.594 -0.3174 -0.2276  0.3018
  197SOD    SOD22325   2.400   4.920  14.326 -0.0976 -0.2345 -0.6794
  198SOD    SOD22326   4.798   2.297  11.880 -0.0659 -0.2284  0.5469
  199SOD    SOD22327   4.333   6.168  13.055  0.1106  0.2075 -0.3639
  200SOD    SOD22328   2.228   6.442  12.241  0.0870 -0.4961  0.2024
  201SOD    SOD22329   1.572   4.000   2.959 -0.3020  0.1562  0.0445
  202SOD    SOD22330   3.962   5.335  15.099  0.0932 -0.4376 -0.3421
  203SOD    SOD22331   5.650   5.593  10.372  0.3936  0.0589  0.8962
  204SOD    SOD22332   1.386   0.977  10.602 -0.1978  0.3389  0.2889
  205SOD    SOD22333   2.492   2.899  12.057 -0.1240 -0.0984  0.5681
  206SOD    SOD22334   1.377   6.054   4.644  0.3358  0.0295  0.1988
  207SOD    SOD22335   6.623   6.816   3.114  0.2270  0.1943 -0.6043
  208SOD    SOD22336   5.761   0.590   6.372  0.2721 -0.1752 -0.0672
  209SOD    SOD22337   5.696   4.296  14.541 -0.7768 -0.0001  0.0420
  210SOD    SOD22338   3.713   2.148   2.155 -0.2959 -0.1104 -0.0613
  211SOD    SOD22339   4.567   5.418  13.455  0.6975  0.3447  0.5404
  212SOD    SOD22340   5.296   1.815  15.570 -0.0624  0.3808  0.0710
  213SOD    SOD22341   5.124   3.042   2.861 -0.1568  0.4269 -0.4915
  214SOD    SOD22342   0.107   3.278   0.779 -0.2145  0.2030  0.6405
  215SOD    SOD22343   2.686   5.358   5.456  0.1129 -0.2272  0.2088
  216SOD    SOD22344   0.428   1.856  13.252 -0.3487  0.6015 -0.4123
  217SOD    SOD22345   0.915   4.693   1.396  0.3453 -0.4020  0.1059
  218SOD    SOD22346   1.014   2.523  15.390  0.3275 -0.4249  0.2174
  219SOD    SOD22347   3.611   0.962  11.311 -0.4232 -0.1086  0.0262
  220SOD    SOD22348   1.604   5.082  16.912 -0.4104  0.5450  0.1842
  221SOD    SOD22349   1.896   2.161  13.407  0.4568 -0.6727  0.4780
  222SOD    SOD22350   0.594   5.765  12.235  0.0261  0.0091 -0.0979
  223SOD    SOD22351   0.255   1.475   0.658  0.1066 -0.1054 -0.1796
  224SOD    SOD22352   1.486   3.317   4.980  0.2442  0.7537  0.1481
  225SOD    SOD22353   0.477   0.560   3.107 -0.3473 -0.0735 -0.1478
  226SOD    SOD22354   0.989   0.932  14.435  0.5460 -0.4251 -0.3696
  227SOD    SOD22355   1.038   1.101  11.538  0.0221  0.5013  0.0637
  228SOD    SOD22356   1.892   4.214   6.096  0.7473 -0.1577  0.0255
  229SOD    SOD22357   0.458   3.206  11.270  0.4260  0.3819 -0.1422
  230SOD    SOD22358   5.733   5.709  14.187  0.3410  0.2920  0.8149
  231SOD    SOD22359   5.207   0.131  12.506 -0.2325 -0.1521 -0.3446
  232SOD    SOD22360   0.166   2.405   4.485 -0.3904 -0.1553 -0.1150
  233SOD    SOD22361   1.413   2.976  11.636 -0.0071 -0.5178  0.3167
  234SOD    SOD22362   6.391   2.217  15.170  0.0846 -0.1927  0.1336
  235SOD    SOD22363   3.615   4.048   0.755 -0.4811  0.7630  0.1014
  236SOD    SOD22364   4.603   4.045   1.227 -0.4569 -0.3464  0.5121
  237SOD    SOD22365   3.242   3.830  15.638  0.1537 -0.2699 -0.1537
  238SOD    SOD22366   2.423   0.035   5.951 -0.4128 -0.0254  0.0529
  239SOD    SOD22367   0.811   5.787  14.118 -0.4220 -0.3562 -0.3898
  240SOD    SOD22368   2.193   3.570   0.367  0.1830 -0.3651  0.2131
  241SOD    SOD22369   4.453   0.243  14.001  0.4518 -0.5908 -0.7121
  242SOD    SOD22370   3.349   6.730   2.649  0.2216  0.7406  0.3180
  243SOD    SOD22371   6.247   2.136  16.052 -0.3054  0.0527  0.1114
  244SOD    SOD22372   6.532   0.292   5.378  0.1891 -0.0948  0.2550
  245SOD    SOD22373   6.108   1.928  12.176  0.4315 -0.1543 -0.0754
  246SOD    SOD22374   6.327   5.061   0.138 -0.2347 -0.5598  0.4325
  247SOD    SOD22375   4.706   6.794  14.903  0.2419  0.1890 -0.1871
  248SOD    SOD22376   5.985   3.723  11.398  0.2801  0.0302  0.0812
  249SOD    SOD22377   4.229   2.838   5.332  0.2807 -0.0159  0.0082
  250SOD    SOD22378   3.771   1.418  16.624  0.0684 -0.1302  0.1283
  251SOD    SOD22379   1.823   6.740   0.698 -0.3442 -0.0756  0.0798
  252SOD    SOD22380   5.156   0.728  10.878  0.3154 -0.0694 -0.6439
  253SOD    SOD22381   0.211   5.662   1.564 -0.1559  0.1548 -0.0084
  254SOD    SOD22382   1.459   5.750   5.482 -0.2720 -0.0493 -0.3923
  255SOD    SOD22383   0.587   4.573  11.492 -0.5664 -0.2939  0.3130
  256SOD    SOD22384   4.743   6.343  11.783  0.1435  0.3827 -0.2217
  257SOD    SOD22385   4.739   2.691   5.956 -0.0629  0.2712  0.2036
  258SOD    SOD22386   5.517   0.270  11.841  0.1327 -0.3300 -0.1874
  259SOD    SOD22387   4.539   5.954   6.295 -0.3314 -0.3066 -0.1071
  260SOD    SOD22388   0.403   2.625  11.369  0.1444  0.6239  0.1537
  261SOD    SOD22389   5.250   3.581   3.685  0.5489 -0.2060 -0.1464
  262SOD    SOD22390   5.772   6.642  11.296 -0.1627 -0.0011  0.0891
  263SOD    SOD22391   4.321   1.665  11.380  0.2909  0.0329  0.0142
  264SOD    SOD22392   6.083   5.939   5.490 -0.2269 -0.0215  0.1919
  265SOD    SOD22393   5.242   1.304   6.045  0.3768 -0.1409  0.8333
  266CLA    CLA22394   2.433   6.041  12.415 -0.1104 -0.5232  0.1011
  267CLA    CLA22395   4.492   2.670   2.021  0.0749  0.3132 -0.0898
  268CLA    CLA22396   2.505   1.522  16.238 -0.1318  0.3183 -0.0226
  269CLA    CLA22397   5.842   6.162   3.565  0.3038  0.0674  0.1317
  270CLA    CLA22398   4.588   4.026  14.677 -0.0036  0.0144  0.0290
  271CLA    CLA22399   4.958   6.430  11.381  0.2546 -0.2503 -0.1434
  272CLA    CLA22400   4.637   5.807  13.747  0.4219 -0.0263 -0.1075
  273CLA    CLA22401   6.266   3.414  16.908 -0.2221 -0.2666  0.1673
  274CLA    CLA22402   0.194   3.771  13.490 -0.1278  0.0849 -0.0980
  275CLA    CLA22403   4.562   2.568  12.609  0.0835 -0.4102 -0.1224
  276CLA    CLA22404   1.305   0.658  11.702  0.1999  0.0020 -0.3365
  277CLA    CLA22405   3.039   1.952  14.827 -0.1456 -0.2283 -0.1953
  278CLA    CLA22406   2.701   3.982  13.391  0.2258 -0.2141  0.2709
  279CLA    CLA22407   2.822   2.026   4.670  0.6037  0.1155 -0.0566
  280CLA    CLA22408   3.031   2.565   0.263 -0.3863 -0.3947  0.4090
  281CLA    CLA22409   6.082   1.091   2.081 -0.0188  0.3073 -0.1615
  282CLA    CLA22410   0.277   0.064  12.355 -0.0321  0.1285 -0.0209
  283CLA    CLA22411   6.499   5.903  13.928 -0.6794 -0.1244  0.0206
  284CLA    CLA22412   0.631   3.793   4.874  0.2054 -0.0112 -0.0080
  285CLA    CLA22413   3.397   3.205  16.883  0.3640  0.0356  0.3609
  286CLA    CLA22414   1.323   3.269  15.946 -0.3109 -0.4450  0.1686
  287CLA    CLA22415   3.743   6.533  11.322  0.0246 -0.1416  0.2568
  288CLA    CLA22416   0.812   4.988   4.461  0.4223 -0.1486  0.2390
  289CLA    CLA22417   6.601   5.826  16.428 -0.5086 -0.1550 -0.2514
  290CLA    CLA22418   0.418   2.423   0.271 -0.2370 -0.0580  0.1589
  291CLA    CLA22419   4.509   6.733  12.623  0.2470  0.0944  0.3931
  292CLA    CLA22420   1.438   3.044   4.503  0.5700 -0.1569 -0.0395
  293CLA    CLA22421   6.348   3.144   3.150 -0.2405 -0.3396  0.5682
  294CLA    CLA22422   6.001   4.095   1.060  0.3089 -0.0445 -0.5985
  295CLA    CLA22423   2.640   4.294  15.694 -0.2170 -0.0203  0.0495
  296CLA    CLA22424   5.880   1.813   2.008 -0.0122 -0.1272  0.2140
  297CLA    CLA22425   0.210   5.879  12.775 -0.0839  0.2445 -0.0155
  298CLA    CLA22426   1.156   5.451  16.105 -0.0036 -0.1339 -0.3785
  299CLA    CLA22427   1.765   2.487  12.733 -0.1197  0.0320  0.0753
  300CLA    CLA22428   5.790   6.245   2.351 -0.3541  0.0839  0.7211
  301CLA    CLA22429   4.748   4.237   4.564  0.3215 -0.0760 -0.6252
  302CLA    CLA22430   0.213   2.844  11.031  0.4961  0.3235 -0.3410
  303CLA    CLA22431   3.494   2.592  14.031  0.0447 -0.0501  0.4668
  304CLA    CLA22432   1.161   3.771   0.966  0.0431 -0.2646  0.0704
  305CLA    CLA22433   2.652   3.813   2.356 -0.2014 -0.1178 -0.1020
  306CLA    CLA22434   6.020   1.388  12.303 -0.0462 -0.1019 -0.3724
  307CLA    CLA22435   5.435   1.015  11.510  0.4558  0.5524 -0.5647
  308CLA    CLA22436   1.132   0.356   2.404 -0.1130  0.0387 -0.0311
  309CLA    CLA22437   1.978   6.483  14.605  0.5050 -0.1262  0.0525
  310CLA    CLA22438   6.033   0.516   4.156 -0.4539  0.3207 -0.2136
  311CLA    CLA22439   5.754   5.146  12.031 -0.3842 -0.4452 -0.1312
  312CLA    CLA22440   0.604   1.115  14.744 -0.0633  0.2393  0.4639
  313CLA    CLA22441   4.603   3.331   3.254  0.3321 -0.1927  0.0326
  314CLA    CLA22442   1.309   1.375   2.685  0.2825 -0.1309  0.1000
  315CLA    CLA22443   5.178   2.572  13.715 -0.2806  0.3449  0.2510
  316CLA    CLA22444   4.662   5.704   4.454 -0.0273 -0.2390 -0.2173
  317CLA    CLA22445   1.112   4.982  15.947 -0.3031 -0.4939 -0.2003
  318CLA    CLA22446   6.308   1.733  11.732 -0.3014  0.0047 -0.1094
  319TIP3   OH222447   6.722   0.800  15.531 -0.5223  0.6613  0.3983
  319TIP3    H122448   6.760   0.737  15.592  0.7109 -0.2648 -1.2482
  319TIP3    H222449   6.796   0.852  15.499 -1.1944  1.4055 -0.0003
  320TIP3   OH222450   1.033   4.001  16.504  0.0625  0.0476 -0.5317
  320TIP3    H122451   0.984   4.083  16.492  0.5535  0.4493  0.1199
  320TIP3    H222452   0.967   3.937  16.530 -0.1258  0.6156  0.4628
  321TIP3   OH222453   1.755   4.032  12.126  0.2102 -0.4347  0.2033
  321TIP3    H122454   1.729   3.954  12.077  1.1550 -1.1954  0.8947
  321TIP3    H222455   1.836   4.061  12.084 -1.2843  1.5664 -1.5386
  322TIP3   OH222456   0.008   2.520  16.942 -0.4443 -0.3149  0.1097
  322TIP3    H122457  -0.082   2.537  16.914 -0.6947 -0.6874  0.6631
  322TIP3    H222458   0.053   2.603  16.929 -0.7425 -0.2689 -0.6505
  323TIP3   OH222459   2.341   1.025  14.701 -0.0421  0.1056 -0.5973
  323TIP3    H122460   2.402   1.071  14.643  1.5080 -1.4585 -0.2805
  323TIP3    H222461   2.256   1.067  14.684  0.9533  1.8198 -1.6303
  324TIP3   OH222462   4.957   4.947   3.606  0.2347  0.2394  0.3877
  324TIP3    H122463   4.993   5.009   3.542 -0.6699  0.1994 -0.1854
  324TIP3    H222464   4.914   5.002   3.672 -1.5830  0.2675 -0.7244
  325TIP3   OH222465   2.520   1.448  11.948  0.2042 -0.6923 -0.2200
  325TIP3    H122466   2.428   1.432  11.924 -0.1563  0.9464 -0.0235
  325TIP3    H222467   2.568   1.440  11.865 -0.2841 -0.3989 -0.5390
  326TIP3   OH222468   0.504   3.940  16.853 -0.0703  0.1966  0.2089
  326TIP3    H122469   0.436   3.887  16.893 -0.3946  1.1166  0.9004
  326TIP3    H222470   0.481   4.030  16.875  1.2336  0.5388  0.2379
  327TIP3   OH222471   0.620   5.800  15.055  0.1171  0.7913 -0.5294
  327TIP3    H122472   0.534   5.760  15.062 -0.1315  1.4857  0.6621
  327TIP3    H222473   0.681   5.732  15.084 -0.2294  0.9765  0.6908
  328TIP3   OH222474   3.298   2.377   0.286 -0.1689 -0.0764  0.4016
  328TIP3    H122475   3.246   2.443   0.239  0.3358  0.8700  1.1324
  328TIP3    H222476   3.235   2.333   0.342 -0.5014 -0.1669 -0.0372
  329TIP3   OH222477   4.146   6.181   2.764 -0.6789 -0.3980 -0.0151
  329TIP3    H122478   4.211   6.141   2.822 -0.1592 -0.0834 -0.3713
  329TIP3    H222479   4.175   6.159   2.676 -1.1872 -0.4480 -0.1737
  330TIP3   OH222480   0.287   1.242  15.743  0.0607  0.0732 -0.1664
  330TIP3    H122481   0.237   1.214  15.820 -0.3120 -0.9042 -0.7506
  330TIP3    H222482   0.309   1.160  15.698  1.0871  0.5773 -0.5978
  331TIP3   OH222483   5.383   1.897   0.537  0.3367 -0.0291 -0.4974
  331TIP3    H122484   5.453   1.960   0.525 -0.0622  0.3087 -1.1688
  331TIP3    H222485   5.321   1.940   0.595  0.7118 -0.3556  0.1528
  332TIP3   OH222486   3.862   1.394   6.159 -0.6852 -0.1891  0.1395
  332TIP3    H122487   3.804   1.438   6.097 -0.1318  0.5245  0.1162
  332TIP3    H222488   3.907   1.465   6.204  0.9364 -0.7328 -0.5627
  333TIP3   OH222489   4.659   3.805   3.565  0.0898 -0.2793 -0.1835
  333TIP3    H122490   4.647   3.847   3.479 -0.9195  0.1089  0.1380
  333TIP3    H222491   4.573   3.810   3.607  1.2203  2.4538  2.1690
  334TIP3   OH222492   5.225   2.048   0.693  0.2865  0.0608 -0.4169
  334TIP3    H122493   5.252   2.115   0.755 -2.4505  0.9587 -0.1022
  334TIP3    H222494   5.139   2.020   0.723  0.0118 -1.3648 -2.3357
  335TIP3   OH222495   6.171   1.640   3.509  0.7231  0.1832  0.0704
  335TIP3    H122496   6.254   1.624   3.465  0.3466 -1.0878 -0.2035
  335TIP3    H222497   6.186   1.614   3.600  0.6209 -0.0579  0.0183
  336TIP3   OH222498   6.748   5.897  16.733  0.1677  0.1220  0.3350
  336TIP3    H122499   6.672   5.873  16.680  0.6354 -1.3621  0.2867
  336TIP3    H222500   6.760   5.991  16.717  0.5693 -0.3349 -2.5975
  337TIP3   OH222501   6.271   3.839   5.346  0.0009  0.0213 -0.2572
  337TIP3    H122502   6.275   3.824   5.440  2.0013  0.4889 -0.2394
  337TIP3    H222503   6.355   3.877   5.323 -0.7324  0.6583 -2.1250
  338TIP3   OH222504   5.863   4.881   2.609 -0.2842 -0.1744  0.1227
  338TIP3    H122505   5.847   4.922   2.524 -0.2862 -0.2695  0.0767
  338TIP3    H222506   5.799   4.922   2.668 -0.6900 -0.5367 -0.0552
  339TIP3   OH222507   1.352   3.762   1.240 -0.3755  0.0743  0.1848
  339TIP3    H122508   1.300   3.746   1.161  0.1052 -0.7667  0.0287
  339TIP3    H222509   1.372   3.675   1.274 -0.0152  0.4138  0.8683
  340TIP3   OH222510   5.896   4.769  14.667  0.7448 -0.4368  0.2512
  340TIP3    H122511   5.934   4.770  14.580 -0.4063 -0.3801 -0.2749
  340TIP3    H222512   5.947   4.833  14.717 -0.5316  1.8997 -1.2628
  341TIP3   OH222513   5.658   3.531  11.791 -0.9343 -0.4535  0.6144
  341TIP3    H122514   5.732   3.490  11.746  0.3405  0.8025  1.4837
  341TIP3    H222515   5.583   3.478  11.766  0.1922 -1.5629 -0.5906
  342TIP3   OH222516   5.812   1.030   3.362 -0.0110  0.8273 -0.3332
  342TIP3    H122517   5.817   0.982   3.445  1.2251  1.8738  0.2292
  342TIP3    H222518   5.775   1.115   3.386 -2.2381  0.1826 -1.3297
  343TIP3   OH222519   6.570   2.152  14.965 -0.4600  0.2486  0.3818
  343TIP3    H122520   6.650   2.200  14.944 -0.4710  0.0907 -0.0372
  343TIP3    H222521   6.600   2.069  15.003 -0.3482 -0.7912 -1.8453
  344TIP3   OH222522   5.680   0.411   1.581 -0.3144  0.4308 -0.2238
  344TIP3    H122523   5.603   0.355   1.589 -0.2447 -0.1892 -2.9561
  344TIP3    H222524   5.739   0.379   1.649 -1.8574 -0.1054  0.9147
  345TIP3   OH222525   0.153   2.303  16.832  0.0679  0.1492 -0.4124
  345TIP3    H122526   0.099   2.375  16.865  0.8693 -0.0748  1.5218
  345TIP3    H222527   0.208   2.278  16.906  0.8562 -1.4932 -1.4829
  346TIP3   OH222528   0.714   2.496  13.529 -0.2611 -0.0819 -0.0621
  346TIP3    H122529   0.709   2.467  13.438  0.8238  1.0702 -0.5076
  346TIP3    H222530   0.805   2.479  13.554 -0.4293  0.0613  0.6515
  347TIP3   OH222531   0.927   0.978   6.570  0.2253 -0.3203  0.4537
  347TIP3    H122532   1.000   1.019   6.616  0.2990 -0.6814  0.6631
  347TIP3    H222533   0.933   1.012   6.481  0.9122 -0.6873  0.3545
  348TIP3   OH222534   1.548   4.519   2.327  0.2697  0.4842 -0.4699
  348TIP3    H122535   1.635   4.560   2.330  0.6399 -0.3408  0.7892
  348TIP3    H222536   1.501   4.557   2.401 -0.5353  1.0952 -1.2826
  349TIP3   OH222537   0.384   3.150  14.580 -0.1558  0.5200 -0.2665
  349TIP3    H122538   0.427   3.118  14.659  0.4425  0.9222 -0.4147
  349TIP3    H222539   0.430   3.106  14.508 -1.5317 -0.8215 -0.3689
  350TIP3   OH222540   2.215   2.812   0.583 -0.1671 -0.2692 -0.0616
  350TIP3    H122541   2.285   2.798   0.647 -0.6466  0.2649  0.5810
  350TIP3    H222542   2.139   2.768   0.621 -0.9172  1.5148  0.5814
  351TIP3   OH222543   6.520   4.270  13.118  0.0882  0.2369 -0.1895
  351TIP3    H122544   6.609   4.248  13.142 -0.0215 -2.8616 -2.0366
  351TIP3    H222545   6.466   4.206  13.164 -0.8883  0.1886 -1.3521
  352TIP3   OH222546   0.820   0.427  17.242  0.1344 -0.0041  0.3363
  352TIP3    H122547   0.760   0.397  17.311 -0.0185 -0.8416 -0.1524
  352TIP3    H222548   0.786   0.389  17.162  1.3295 -0.5240  0.0451
  353TIP3   OH222549   0.435   0.649   5.721  0.1217 -0.6463 -0.2231
  353TIP3    H122550   0.418   0.677   5.811  0.0224 -0.3770 -0.3241
  353TIP3    H222551   0.517   0.601   5.726 -0.4641 -1.6295  0.2081
  354TIP3   OH222552   3.350   2.992   1.811  0.4608  0.2722  0.9993
  354TIP3    H122553   3.290   3.066   1.809 -1.5132 -1.2661 -0.9655
  354TIP3    H222554   3.314   2.933   1.877 -0.1357 -0.5649 -0.0420
  355TIP3   OH222555   0.035   3.393   5.231 -0.0977 -0.7244  0.7063
  355TIP3    H122556   0.079   3.478   5.225  1.4682 -1.5899 -2.1803
  355TIP3    H222557   0.101   3.336   5.271 -0.4750 -0.9522  0.9984
  356TIP3   OH222558   3.280   6.458  14.153 -0.1592 -0.7857  0.6607
  356TIP3    H122559   3.275   6.501  14.238 -2.2176  1.9718 -0.6784
  356TIP3    H222560   3.196   6.413  14.144  0.1973 -1.3817  0.2309
  357TIP3   OH222561   2.361   1.685  13.894  0.0390 -0.0042 -0.1637
  357TIP3    H122562   2.434   1.715  13.948  1.1114 -0.9910 -1.0031
  357TIP3    H222563   2.395   1.608  13.849 -2.2032 -1.8283  1.0388
  358TIP3   OH222564   4.843   4.091  10.702 -0.4445 -0.1637  0.1078
  358TIP3    H122565   4.909   4.052  10.760  0.5869  1.2932 -0.0221
  358TIP3    H222566   4.803   4.016  10.658  1.9987 -1.0944 -0.7461
  359TIP3   OH222567   2.147   1.266  10.884 -0.5487  0.0417 -0.1552
  359TIP3    H122568   2.227   1.317  10.895  1.0925 -2.4730  0.1618
  359TIP3    H222569   2.175   1.175  10.884 -3.3107 -0.9304 -1.0334
  360TIP3   OH222570   6.021   6.625   4.300  0.8038  0.6262 -0.2179
  360TIP3    H122571   6.045   6.576   4.221  0.9762  0.4073 -0.0305
  360TIP3    H222572   5.956   6.570   4.343  1.2061  0.4246  0.1391
  361TIP3   OH222573   4.165   3.323   1.567 -0.0344  0.1634 -0.4430
  361TIP3    H122574   4.109   3.393   1.602  1.0665  2.1189 -2.2939
  361TIP3    H222575   4.126   3.303   1.482 -0.1508 -1.3361 -0.0663
  362TIP3   OH222576   4.199   4.277  14.394 -0.1440  0.2475  0.2146
  362TIP3    H122577   4.268   4.256  14.331  0.6632  0.9273  0.8347
  362TIP3    H222578   4.129   4.316  14.342 -0.6906 -1.7540 -0.6213
  363TIP3   OH222579   6.157   0.644  16.118  0.3309  0.2322 -0.0863
  363TIP3    H122580   6.223   0.673  16.181  0.7014 -0.5135 -0.1236
  363TIP3    H222581   6.203   0.582  16.062 -0.3756 -0.2168 -0.1832
  364TIP3   OH222582   6.817   0.336  12.492 -0.6808 -0.1222  1.1987
  364TIP3    H122583   6.896   0.330  12.546 -0.4375 -1.3920  0.7526
  364TIP3    H222584   6.749   0.365  12.552 -0.0793  0.0373  1.8163
  365TIP3   OH222585   0.278   2.679   2.685  0.1503 -0.9224 -0.1566
  365TIP3    H122586   0.235   2.754   2.645  0.2199 -0.4163  0.6996
  365TIP3    H222587   0.272   2.610   2.619 -0.3343 -0.3101 -0.7644
  366TIP3   OH222588   2.834   6.710  17.067 -0.0386  0.1343  0.2599
  366TIP3    H122589   2.867   6.699  16.977  1.8242  1.7102  0.6954
  366TIP3    H222590   2.846   6.624  17.107  0.6494 -0.1573 -0.5333
  367TIP3   OH222591   1.067   5.464  10.735 -0.2546 -0.1381 -0.4121
  367TIP3    H122592   1.155   5.492  10.708 -0.0449 -2.0366 -1.9759
  367TIP3    H222593   1.080   5.422  10.820  0.2627  0.0280 -0.4049
  368TIP3   OH222594   1.736   2.641  13.846 -0.3223 -0.4720  0.2926
  368TIP3    H122595   1.756   2.574  13.912  1.2864 -0.0118  0.3366
  368TIP3    H222596   1.766   2.723  13.886 -1.0999  0.0994 -0.2639
  369TIP3   OH222597   2.274   6.458  16.070  0.4262  0.3433 -0.1929
  369TIP3    H122598   2.309   6.537  16.029 -0.0397  0.0193 -1.2343
  369TIP3    H222599   2.348   6.424  16.121  0.5153  1.6500  0.6089
  370TIP3   OH222600   4.083   2.347   0.898 -0.0512  0.4566 -0.4369
  370TIP3    H122601   4.156   2.288   0.920  0.6775  2.2090  2.2915
  370TIP3    H222602   4.006   2.290   0.897  1.1912 -1.3815 -3.0490
  371TIP3   OH222603   6.462   2.377  12.246  0.4021  0.1836  0.5190
  371TIP3    H122604   6.443   2.455  12.194 -1.7993 -0.6924 -0.1144
  371TIP3    H222605   6.406   2.386  12.324 -0.2061 -0.9107  0.2347
  372TIP3   OH222606   2.409   1.720  17.142 -0.1600 -0.2293  0.1259
  372TIP3    H122607   2.343   1.656  17.116 -0.2922 -0.6926  1.5704
  372TIP3    H222608   2.392   1.796  17.085 -1.3376 -0.6793 -0.1416
  373TIP3   OH222609   4.157   0.748   2.116 -0.0512  0.2885  0.0872
  373TIP3    H122610   4.075   0.730   2.070 -0.4733 -0.2671  1.0125
  373TIP3    H222611   4.136   0.733   2.209  0.6331  1.8281  0.5257
  374TIP3   OH222612   1.068   5.191   5.686 -0.0647 -0.2209 -0.2083
  374TIP3    H122613   1.057   5.161   5.596 -0.9790  0.8263 -0.4754
  374TIP3    H222614   1.091   5.113   5.735 -1.0820 -1.1016 -1.0869
  375TIP3   OH222615   1.599   0.073  12.397  0.0968  0.1225  0.4030
  375TIP3    H122616   1.517   0.076  12.347 -0.6488  0.6338  1.6031
  375TIP3    H222617   1.667   0.081  12.331 -0.8820  2.3939 -0.4490
  376TIP3   OH222618   2.129   0.516  10.957 -0.1151  0.2223 -0.8311
  376TIP3    H122619   2.106   0.440  11.010  1.7114  0.0018 -0.2909
  376TIP3    H222620   2.129   0.485  10.867  1.3956 -0.6470 -0.5503
  377TIP3   OH222621   2.726   3.705  13.085  0.2617 -0.2846 -0.6830
  377TIP3    H122622   2.694   3.762  13.154  0.2873 -1.0075 -0.0611
  377TIP3    H222623   2.651   3.651  13.061  0.7069 -1.2819  0.0705
  378TIP3   OH222624   2.960   0.841  13.302  0.1452 -0.3120 -0.3961
  378TIP3    H122625   2.886   0.797  13.262  0.4962 -1.3434  0.0626
  378TIP3    H222626   2.993   0.780  13.367  0.7910  0.5376  0.1064
  379TIP3   OH222627   0.704   0.066   2.812 -0.4864  0.2097  0.0515
  379TIP3    H122628   0.655   0.001   2.863 -0.4269 -0.7760 -1.0937
  379TIP3    H222629   0.710   0.028   2.725  2.3904  0.2555  0.1316
  380TIP3   OH222630   1.632   6.187  16.724  0.4976  0.5351  0.4669
  380TIP3    H122631   1.640   6.269  16.773 -1.0076  0.9101  0.1406
  380TIP3    H222632   1.538   6.177  16.711  0.8201  0.4387 -2.3050
  381TIP3   OH222633   3.385   3.370  12.184  0.1550 -0.3633 -0.0334
  381TIP3    H122634   3.394   3.330  12.271 -2.0488  0.2395  0.5478
  381TIP3    H222635   3.375   3.296  12.125 -1.5969 -0.7753  0.7148
  382TIP3   OH222636   3.851   2.897   0.626  0.6097  0.7257  0.1581
  382TIP3    H122637   3.772   2.951   0.632  1.4104  1.8776  0.5250
  382TIP3    H222638   3.872   2.876   0.718 -0.4755 -1.4216 -0.0140
  383TIP3   OH222639   0.821   5.052  15.701  0.1693  0.4293 -0.1488
  383TIP3    H122640   0.848   4.960  15.708 -1.0286  0.1752  1.7547
  383TIP3    H222641   0.763   5.066  15.776 -0.4604  2.4856 -0.9551
  384TIP3   OH222642   4.226   0.780  14.955 -0.2872 -0.4246 -0.4295
  384TIP3    H122643   4.284   0.747  14.887 -1.8955  0.8138 -2.5290
  384TIP3    H222644   4.165   0.837  14.909 -1.4896  0.4716  2.0783
  385TIP3   OH222645   4.387   2.987  12.226 -0.2305 -0.3046 -0.0475
  385TIP3    H122646   4.365   2.967  12.317 -1.9573 -1.4161 -0.6418
  385TIP3    H222647   4.424   2.906  12.192 -1.7475 -0.6789 -0.9113
  386TIP3   OH222648   4.372   2.208  12.230  0.2030 -0.1382  0.2165
  386TIP3    H122649   4.437   2.139  12.221  1.0656  0.1549  3.0979
  386TIP3    H222650   4.418   2.280  12.274 -0.9947  1.8238 -1.5073
  387TIP3   OH222651   1.296   3.930   0.342 -0.3512 -0.2820  0.5054
  387TIP3    H122652   1.369   3.991   0.357  0.7197 -1.4159  0.0126
  387TIP3    H222653   1.318   3.853   0.395  0.4278 -1.9038 -2.0312
  388TIP3   OH222654   6.488   4.170   1.824 -0.0844 -0.1539 -0.4976
  388TIP3    H122655   6.566   4.139   1.870 -0.6832  0.6557  1.1012
  388TIP3    H222656   6.415   4.149   1.882 -1.0327 -0.4255 -1.7430
  389TIP3   OH222657   5.076   0.785   1.582 -0.3778  0.0040 -0.4930
  389TIP3    H122658   5.075   0.750   1.493  0.3932 -1.1821 -0.0609
  389TIP3    H222659   5.169   0.805   1.598 -0.1543 -1.8481  0.7876
  390TIP3   OH222660   4.680   0.359  12.768  0.1209 -0.1915 -1.2815
  390TIP3    H122661   4.684   0.341  12.675 -0.3838  2.1687 -1.8318
  390TIP3    H222662   4.747   0.426  12.783 -0.3210  0.0224 -0.1111
  391TIP3   OH222663   5.877   4.446   1.614  0.4915  0.0556  0.3189
  391TIP3    H122664   5.965   4.415   1.592 -0.2846 -2.0178 -0.0268
  391TIP3    H222665   5.835   4.460   1.529  0.6884  1.8589  0.4609
  392TIP3   OH222666   2.229   5.071  11.754  0.2348 -0.3145  0.0482
  392TIP3    H122667   2.173   5.148  11.753 -2.1826 -1.9018  2.0024
  392TIP3    H222668   2.290   5.086  11.827  0.3668  0.1045 -0.1453
  393TIP3   OH222669   0.857   1.668   3.267 -0.1684  0.3503  0.4251
  393TIP3    H122670   0.856   1.717   3.184  0.3892  0.1360  0.2925
  393TIP3    H222671   0.921   1.599   3.253 -2.7368 -2.0855 -0.3615
  394TIP3   OH222672   5.240   4.800   3.302  0.1841  0.1999 -0.1945
  394TIP3    H122673   5.208   4.880   3.260  1.4174  0.7852 -0.0716
  394TIP3    H222674   5.161   4.757   3.336 -0.6721  0.4969 -1.7321
  395TIP3   OH222675   1.171   2.284   5.630  0.1112  0.0691 -0.0344
  395TIP3    H122676   1.088   2.321   5.600 -0.4817 -1.8051 -0.8880
  395TIP3    H222677   1.205   2.348   5.692 -1.6337  1.2158 -0.1871
  396TIP3   OH222678   6.751   1.266   1.868 -0.1324  0.4970 -0.2868
  396TIP3    H122679   6.819   1.233   1.809 -0.8544 -0.7318 -0.4682
  396TIP3    H222680   6.789   1.344   1.907  1.6217 -0.4715  0.0689
  397TIP3   OH222681   5.936   2.098  17.257  0.0803 -0.3491  0.0127
  397TIP3    H122682   5.913   2.086  17.165 -1.9614  0.3930  0.3832
  397TIP3    H222683   5.857   2.132  17.298  1.1438 -0.0208  1.9317
  398TIP3   OH222684   1.875   2.230  16.262 -0.0097 -0.3638 -0.6620
  398TIP3    H122685   1.838   2.142  16.266  1.0911 -0.9582 -2.3658
  398TIP3    H222686   1.963   2.221  16.300 -0.7886  0.6258  1.5869
  399TIP3   OH222687   6.280   4.475  12.506 -0.4625  0.0314 -0.4175
  399TIP3    H122688   6.344   4.442  12.569 -1.3669  0.3986  0.7287
  399TIP3    H222689   6.218   4.404  12.495 -0.5510  0.1280 -0.5420
  400TIP3   OH222690   1.078   1.701  16.240  0.0568 -0.0197  0.0828
  400TIP3    H122691   1.117   1.724  16.156 -1.5665 -0.4943 -0.8406
  400TIP3    H222692   1.125   1.622  16.267 -0.3681 -0.7125 -1.1152
  401TIP3   OH222693   0.076   4.833  11.150 -0.5146  0.1193  0.8086
  401TIP3    H122694   0.019   4.757  11.134  0.6115 -0.4422 -0.8598
  401TIP3    H222695   0.089   4.871  11.063  0.2962  1.2244  1.3981
  402TIP3   OH222696   4.811   2.747  10.523  0.2224  0.4121  0.5600
  402TIP3    H122697   4.889   2.757  10.578  0.5429  0.5427  0.0834
  402TIP3    H222698   4.831   2.673  10.466 -0.7580 -0.7913  1.7123
  403TIP3   OH222699   6.331   4.415  14.427 -0.2107  0.4666  0.5064
  403TIP3    H122700   6.364   4.370  14.349 -2.0800 -0.7676  0.3478
  403TIP3    H222701   6.406   4.461  14.462  1.0279 -0.1335 -1.2164
  404TIP3   OH222702   5.109   3.168   3.783 -0.5141  0.0503  0.2024
  404TIP3    H122703   5.156   3.250   3.794 -0.6684  0.5156 -2.0475
  404TIP3    H222704   5.069   3.175   3.696 -1.6542 -1.8524  0.5132
  405TIP3   OH222705   3.776   0.657   2.727  0.2790 -0.0567  0.6248
  405TIP3    H122706   3.846   0.601   2.762  0.9678  0.8513  0.7265
  405TIP3    H222707   3.723   0.679   2.804  0.9739  0.7743  0.8874
  406TIP3   OH222708   0.769   5.933  17.212 -0.0907  0.3642  0.6289
  406TIP3    H122709   0.772   6.026  17.236 -2.1217  0.7995 -0.5813
  406TIP3    H222710   0.719   5.891  17.282  1.9809 -0.1425  1.8984
  407TIP3   OH222711   2.767   5.138   1.429  0.0404 -0.0426  0.7164
  407TIP3    H122712   2.695   5.199   1.441  1.0023  0.9934  1.2875
  407TIP3    H222713   2.795   5.115   1.517 -0.1410 -1.1322  0.5098
  408TIP3   OH222714   3.397   3.062  12.672 -0.0024  0.0734 -0.4688
  408TIP3    H122715   3.458   3.056  12.745  0.6479 -0.9727 -1.0673
  408TIP3    H222716   3.352   3.145  12.685  0.9932  0.4966  0.4210
  409TIP3   OH222717   1.996   5.778   2.217  0.3977 -0.3314  0.4321
  409TIP3    H122718   2.057   5.760   2.146  1.0719 -0.2872  0.9852
  409TIP3    H222719   2.052   5.794   2.293 -0.1843  2.0401  0.4664
  410TIP3   OH222720   3.810   0.817  11.260 -0.5056  0.0574 -0.3379
  410TIP3    H122721   3.805   0.763  11.181 -0.9630 -1.3146  0.5860
  410TIP3    H222722   3.898   0.803  11.293  0.1543  1.7054 -1.2995
  411TIP3   OH222723   0.294   2.259   4.045  0.9252  0.5146 -0.5476
  411TIP3    H122724   0.288   2.187   3.982 -1.0445 -0.0609  0.2360
  411TIP3    H222725   0.366   2.312   4.013  0.6255 -0.2924 -2.7246
  412TIP3   OH222726   5.109   2.649  12.957 -0.0560  0.3153  0.0332
  412TIP3    H122727   5.101   2.745  12.961 -0.4781  0.2721  0.2376
  412TIP3    H222728   5.176   2.634  12.891  0.0599  0.7567  0.0428
  413TIP3   OH222729   3.981   6.757  15.208  0.5560 -0.2896  0.4436
  413TIP3    H122730   3.914   6.695  15.178  0.8572  0.5150 -2.1072
  413TIP3    H222731   3.951   6.785  15.294 -1.1573 -1.6977  0.3618
  414TIP3   OH222732   6.181   4.102   3.048  0.5214 -0.1380 -0.2005
  414TIP3    H122733   6.247   4.130   2.985 -0.2579 -0.0886 -1.0172
  414TIP3    H222734   6.203   4.011   3.067 -0.5328 -0.9020 -2.3089
  415TIP3   OH222735   3.025   4.950   4.773  0.2941 -0.3820  0.5441
  415TIP3    H122736   3.079   4.909   4.705  1.4407  0.4542  0.9115
  415TIP3    H222737   2.935   4.929   4.748  0.7972 -2.5659  0.3985
  416TIP3   OH222738   5.689   1.217  14.706 -0.0405 -0.6086 -0.1125
  416TIP3    H122739   5.768   1.163  14.699  0.1845 -0.1394 -1.4373
  416TIP3    H222740   5.678   1.230  14.800  1.7281 -0.3081  0.0988
  417TIP3   OH222741   0.433   6.330  12.775  0.0796 -0.4895  0.0179
  417TIP3    H122742   0.384   6.395  12.725  0.2433 -0.7066 -0.4320
  417TIP3    H222743   0.374   6.303  12.845  0.0918  0.2975  0.3367
  418TIP3   OH222744   4.194   1.475  13.194  0.1659  0.2229  1.2473
  418TIP3    H122745   4.216   1.516  13.278  0.6053  2.6617  0.0505
  418TIP3    H222746   4.132   1.536  13.153  1.0339 -0.1513 -0.7670
  419TIP3   OH222747   1.312   0.562   2.236  0.2295 -0.1884 -0.1950
  419TIP3    H122748   1.260   0.500   2.287  0.4682  0.4105  0.8042
  419TIP3    H222749   1.265   0.569   2.153 -0.1914 -1.1496 -0.0548
  420TIP3   OH222750   3.402   6.735   5.047  0.5875  0.0201 -0.4376
  420TIP3    H122751   3.469   6.759   5.110 -0.3348 -1.1598  1.0489
  420TIP3    H222752   3.382   6.816   5.000  2.6976  0.4809 -0.6223
  421TIP3   OH222753   5.420   4.958   4.959 -0.3425 -0.5816  0.3556
  421TIP3    H122754   5.370   4.996   4.886  1.9708 -1.3206 -1.7653
  421TIP3    H222755   5.417   4.863   4.943  0.9117 -0.6939  0.7172
  422TIP3   OH222756   0.761   1.617  17.170 -0.5833  0.7139 -0.1342
  422TIP3    H122757   0.758   1.672  17.248 -2.8245  0.3785  0.0712
  422TIP3    H222758   0.850   1.629  17.136 -0.2000  2.4394  1.3228
  423TIP3   OH222759   2.866   5.292  11.474 -0.7456 -0.3534  0.0411
  423TIP3    H122760   2.824   5.270  11.558 -0.0344 -1.0935  0.2226
  423TIP3    H222761   2.814   5.246  11.408 -1.2238  0.1153  0.0902
  424TIP3   OH222762   4.980   6.528  10.655 -0.0936  0.0310 -0.1844
  424TIP3    H122763   4.968   6.436  10.628 -0.1614  0.0831 -0.3340
  424TIP3    H222764   5.073   6.544  10.643 -0.2871  0.3581 -1.3775
  425TIP3   OH222765   5.646   4.407  14.071 -0.0872  0.0372  0.9551
  425TIP3    H122766   5.595   4.396  14.152  1.1803 -0.0937  1.7727
  425TIP3    H222767   5.639   4.323  14.026 -0.9565  0.1713  0.8180
  426TIP3   OH222768   5.623   3.714  14.632  0.4188  0.5469 -0.1806
  426TIP3    H122769   5.703   3.727  14.682  0.9422 -0.2835 -0.7719
  426TIP3    H222770   5.570   3.655  14.685  0.0961  1.2768  0.3156
  427TIP3   OH222771   0.540   4.239  15.898  0.0396 -0.0988 -0.0504
  427TIP3    H122772   0.605   4.300  15.864  0.3761 -0.8460 -0.8011
  427TIP3    H222773   0.483   4.292  15.953 -1.3820  1.5030 -2.8501
  428TIP3   OH222774   1.015   2.772   0.891 -0.5421  0.2794  0.0526
  428TIP3    H122775   0.998   2.678   0.898  0.6500  0.0392  0.0819
  428TIP3    H222776   0.935   2.814   0.922 -0.2914 -0.7460  2.2912
  429TIP3   OH222777   3.808   5.761  14.318  0.3633  0.5572 -0.3614
  429TIP3    H122778   3.739   5.776  14.383 -0.2142  0.2138 -0.8847
  429TIP3    H222779   3.859   5.842  14.318 -1.9322  2.1503 -2.2219
  430TIP3   OH222780   6.018   1.607   4.942  0.3010 -0.1100  0.4923
  430TIP3    H122781   6.059   1.689   4.971  0.8489  0.2711 -1.2141
  430TIP3    H222782   6.090   1.559   4.900  0.3394 -2.1632  2.7405
  431TIP3   OH222783   2.107   3.775   3.913  0.7464  0.4009 -0.6575
  431TIP3    H122784   2.156   3.833   3.971  0.4949  0.6638 -0.7054
  431TIP3    H222785   2.166   3.759   3.840  1.9230 -1.6342  0.6256
  432TIP3   OH222786   3.013   2.370   5.048  0.1917 -0.4591 -0.6974
  432TIP3    H122787   3.105   2.371   5.020  0.6166  1.1354  0.6131
  432TIP3    H222788   2.989   2.277   5.047  2.5777 -1.2191  1.2619
  433TIP3   OH222789   5.131   0.983  17.255 -0.1528 -0.4617 -0.0969
  433TIP3    H122790   5.145   0.997  17.161  2.1813 -2.0631 -0.0660
  433TIP3    H222791   5.161   1.064  17.296 -0.0701 -0.1975 -0.6657
  434TIP3   OH222792   1.630   6.258  10.811 -0.2024  0.4982  0.5929
  434TIP3    H122793   1.592   6.331  10.762  0.2992  0.5198  0.2203
  434TIP3    H222794   1.712   6.238  10.764 -1.9499 -2.6188 -1.4919
  435TIP3   OH222795   0.960   3.486  15.667 -0.4988  0.1355 -0.3952
  435TIP3    H122796   0.876   3.483  15.621 -0.7839  1.6971 -0.0209
  435TIP3    H222797   0.949   3.424  15.739 -0.9010 -0.5405 -1.0151
  436TIP3   OH222798   5.864   6.042   2.606  0.0061 -0.1743  0.6753
  436TIP3    H122799   5.816   6.096   2.544  0.2572  0.6955  1.2273
  436TIP3    H222800   5.866   5.955   2.566  0.6233  0.4916 -0.7722
  437TIP3   OH222801   5.956   0.799   2.092 -0.3428  0.2873  0.0127
  437TIP3    H122802   6.000   0.780   2.174 -0.5635  0.3376  0.1447
  437TIP3    H222803   5.990   0.885   2.066  0.1665  0.0130 -0.2533
  438TIP3   OH222804   6.355   2.838  12.163  0.1616  0.3786  0.0873
  438TIP3    H122805   6.381   2.748  12.146  0.7010  0.9949 -2.8762
  438TIP3    H222806   6.437   2.883  12.185  0.3447  0.6453 -1.0734
  439TIP3   OH222807   5.392   4.210  14.934 -0.3118 -0.1536 -0.8638
  439TIP3    H122808   5.313   4.160  14.914  0.1018 -0.8959 -0.6568
  439TIP3    H222809   5.369   4.261  15.012 -0.7958  0.1285 -1.1874
  440TIP3   OH222810   0.829   4.673   1.604 -0.0268  0.4642  0.4147
  440TIP3    H122811   0.751   4.619   1.593 -0.0727  0.5793  0.1685
  440TIP3    H222812   0.804   4.737   1.671 -0.9597  1.9766 -1.2882
  441TIP3   OH222813   1.329   2.320  16.636  0.1134  0.5245 -0.7691
  441TIP3    H122814   1.363   2.344  16.722 -1.8750  0.5189  0.0566
  441TIP3    H222815   1.384   2.247  16.608 -0.2152 -0.5588  1.2300
  442TIP3   OH222816   1.490   5.632   3.048 -0.6590 -0.0154 -0.4128
  442TIP3    H122817   1.466   5.637   2.955 -0.4025 -1.7266 -0.6062
  442TIP3    H222818   1.407   5.616   3.093 -0.6658 -0.1023 -0.4548
  443TIP3   OH222819   5.830   5.625  12.386 -0.8463 -0.0457  0.3643
  443TIP3    H122820   5.916   5.583  12.389  0.5625  2.5997  0.2186
  443TIP3    H222821   5.777   5.567  12.332  1.4392 -0.8355 -1.2203
  444TIP3   OH222822   1.204   3.309   0.717  0.6653  0.3049 -0.4676
  444TIP3    H122823   1.270   3.372   0.745 -0.1048  0.2879  1.5673
  444TIP3    H222824   1.126   3.362   0.701  0.5849  0.0917 -0.7903
  445TIP3   OH222825   6.382   2.158   5.009 -0.4636  0.4636 -0.1123
  445TIP3    H122826   6.336   2.120   5.083  0.4394  0.3811  0.4261
  445TIP3    H222827   6.472   2.127   5.019 -0.3398  0.4110 -1.2695
  446TIP3   OH222828   1.936   3.612  16.884  0.2973 -0.4938  0.2492
  446TIP3    H122829   1.935   3.585  16.792 -0.3499  1.6645 -0.4321
  446TIP3    H222830   1.847   3.592  16.916  0.5288 -1.2633  0.4464
  447TIP3   OH222831   6.611   5.271  15.198  0.3835  0.6021  0.1630
  447TIP3    H122832   6.524   5.232  15.187  0.4944  0.2189  0.6230
  447TIP3    H222833   6.661   5.206  15.246  1.1347  0.5427 -0.6657
  448TIP3   OH222834   4.031   6.237  11.307  0.5642  0.0603 -0.0233
  448TIP3    H122835   4.101   6.183  11.271  0.5067  1.2417 -2.0453
  448TIP3    H222836   3.950   6.193  11.281  0.5311  0.2429 -0.2305
  449TIP3   OH222837   2.620   3.081  12.157 -0.2690  0.1202 -0.2944
  449TIP3    H122838   2.615   3.076  12.252 -1.2194 -0.5867 -0.3658
  449TIP3    H222839   2.700   3.131  12.139 -0.3353  0.6571  0.8711
  450TIP3   OH222840   3.520   1.590   1.890 -0.1556  0.3608  0.4074
  450TIP3    H122841   3.560   1.521   1.942  0.6782  0.6134  0.1116
  450TIP3    H222842   3.426   1.580   1.906  0.1261  1.1444  2.8114
  451TIP3   OH222843   0.583   3.880   4.214  0.5186  0.0209 -0.1569
  451TIP3    H122844   0.641   3.954   4.234 -0.6867  0.9525  0.0014
  451TIP3    H222845   0.597   3.819   4.286  0.7601  0.5687  0.2726
  452TIP3   OH222846   6.461   6.622  15.452 -0.0602 -0.4236  0.4073
  452TIP3    H122847   6.540   6.573  15.474 -0.3475 -0.5888  1.0991
  452TIP3    H222848   6.393   6.555  15.441 -0.6181 -0.1899  2.0300
  453TIP3   OH222849   5.328   1.153   5.841  0.1572 -0.2254 -0.5177
  453TIP3    H122850   5.420   1.128   5.836  0.7023  0.7724  2.4247
  453TIP3    H222851   5.319   1.225   5.778  1.3452 -0.4212 -0.9367
  454TIP3   OH222852   3.265   1.544  10.894 -0.4068 -0.3507 -0.2270
  454TIP3    H122853   3.215   1.612  10.939 -2.1723 -1.7434  0.0656
  454TIP3    H222854   3.333   1.591  10.847 -0.4828  1.4430  1.3276
  455TIP3   OH222855   5.120   6.210   1.639  0.1590 -0.6422  0.1659
  455TIP3    H122856   5.045   6.150   1.641 -0.0982 -0.5611 -2.7012
  455TIP3    H222857   5.193   6.157   1.608  0.5946 -0.0899  0.2209
  456TIP3   OH222858   0.669   6.026   2.651  0.5390  0.5590 -0.7801
  456TIP3    H122859   0.724   6.057   2.723  0.5300  1.8793 -1.2992
  456TIP3    H222860   0.721   5.957   2.609  1.8088  1.7009 -1.2009
  457TIP3   OH222861   6.794   0.536   6.048  0.2592  0.0906 -0.6350
  457TIP3    H122862   6.879   0.560   6.085 -0.5151 -0.4613  1.6783
  457TIP3    H222863   6.738   0.611   6.068  0.0857  0.2857 -1.8011
  458TIP3   OH222864   5.997   1.441  13.505 -0.9622 -0.3353 -0.3434
  458TIP3    H122865   6.039   1.463  13.421 -1.2862 -1.2852 -0.7728
  458TIP3    H222866   6.065   1.453  13.570 -0.3956 -0.5826 -0.8767
  459TIP3   OH222867   6.039   4.299  12.511 -0.0086 -0.6312  0.5352
  459TIP3    H122868   5.955   4.342  12.493  1.0737  1.7787  0.8015
  459TIP3    H222869   6.042   4.291  12.606  0.7242  0.9268  0.6899
  460TIP3   OH222870   5.612   4.915   5.960  0.1915  0.6721 -0.1404
  460TIP3    H122871   5.616   4.877   6.047 -2.1510  0.1900 -0.1881
  460TIP3    H222872   5.555   4.856   5.910  2.5719  0.1412 -2.4528
  461TIP3   OH222873   5.522   5.786   3.452  0.5161  0.1064  1.0369
  461TIP3    H122874   5.525   5.880   3.435 -0.2987  0.4107  2.4153
  461TIP3    H222875   5.456   5.753   3.392  1.9060  0.1192 -0.5679
  462TIP3   OH222876   1.289   2.924   0.452  0.5105 -0.0758 -0.2206
  462TIP3    H122877   1.299   2.832   0.477  1.6135 -0.2961 -1.3681
  462TIP3    H222878   1.352   2.937   0.381 -0.0258  1.4266 -0.4671
  463TIP3   OH222879   1.703   3.560  13.697  0.2312  0.3419  0.0674
  463TIP3    H122880   1.716   3.654  13.689 -0.9800  0.4863 -0.4693
  463TIP3    H222881   1.690   3.545  13.791  2.2891  0.4184  0.3969
  464TIP3   OH222882   0.877   1.440   4.089 -0.3942  0.1748 -0.4555
  464TIP3    H122883   0.870   1.424   3.995  1.2614 -0.8050 -0.4483
  464TIP3    H222884   0.792   1.476   4.114 -0.3189  1.9947 -2.5954
  465TIP3   OH222885   3.654   5.414  13.014  0.7530 -0.3320 -0.6089
  465TIP3    H122886   3.700   5.413  13.099  1.2373 -2.9875 -0.8225
  465TIP3    H222887   3.723   5.431  12.950  1.0088 -1.6188 -0.7024
  466TIP3   OH222888   0.615   2.008   2.517 -0.5477  0.5146 -0.1810
  466TIP3    H122889   0.567   1.936   2.559 -1.6770  0.2334 -1.8524
  466TIP3    H222890   0.546   2.062   2.477  0.4055  1.5218 -0.4986
  467TIP3   OH222891   1.127   4.477  14.898  0.0846 -0.3951 -0.2404
  467TIP3    H122892   1.212   4.487  14.942 -0.4068  0.5097  0.5467
  467TIP3    H222893   1.081   4.410  14.948  0.0958 -0.4415 -0.2914
  468TIP3   OH222894   1.613   6.772  16.738 -0.1007 -0.2850  0.2560
  468TIP3    H122895   1.528   6.788  16.779  0.2659  1.6552  0.3238
  468TIP3    H222896   1.667   6.847  16.763  1.9223 -1.8416  0.8856
  469TIP3   OH222897   2.392   0.066   1.878 -0.5495 -0.3172  0.5348
  469TIP3    H122898   2.316   0.112   1.843 -0.9301 -2.1934 -1.3332
  469TIP3    H222899   2.424   0.013   1.805  0.7263 -1.8589  2.1138
  470TIP3   OH222900   5.693   5.351  15.077 -0.2089 -0.1518  0.3773
  470TIP3    H122901   5.778   5.337  15.117  0.2100 -1.3704 -0.8683
  470TIP3    H222902   5.641   5.275  15.102 -0.5476 -0.0081  0.1368
  471TIP3   OH222903   1.524   1.218   2.446 -0.1944  0.1790  0.4582
  471TIP3    H122904   1.513   1.125   2.427  0.1870  0.1899  0.1611
  471TIP3    H222905   1.439   1.247   2.478  0.1102 -0.6268  2.0634
  472TIP3   OH222906   2.410   5.917   5.572 -0.6527 -0.0299  0.0113
  472TIP3    H122907   2.443   5.919   5.661 -1.8942 -1.0843  0.5436
  472TIP3    H222908   2.436   6.000   5.534  0.6619  0.0691  1.0640
  473TIP3   OH222909   0.184   1.040   4.615  0.3649  0.0830  0.5616
  473TIP3    H122910   0.246   1.112   4.605  0.3881 -0.1721 -1.5331
  473TIP3    H222911   0.221   0.987   4.686  0.8408  1.6006  1.4894
  474TIP3   OH222912   1.594   5.967  11.389 -0.2753  0.2312  0.2158
  474TIP3    H122913   1.552   6.008  11.314 -1.3618 -0.4963  0.4065
  474TIP3    H222914   1.632   6.039  11.438  0.9052  0.6803 -1.2901
  475TIP3   OH222915   2.920   1.411   5.817 -0.2177 -0.2241 -0.7227
  475TIP3    H122916   2.846   1.462   5.850 -1.8505 -1.7839 -1.8601
  475TIP3    H222917   2.931   1.440   5.727 -0.0930 -0.7129 -0.8667
  476TIP3   OH222918   3.532   4.255  15.302 -0.0023 -0.8848 -0.3941
  476TIP3    H122919   3.619   4.242  15.341 -0.0285  0.9100  0.3664
  476TIP3    H222920   3.479   4.292  15.373 -0.3409  1.4979 -1.7750
  477TIP3   OH222921   6.298   6.111  15.686  0.1725  0.3988 -0.1444
  477TIP3    H122922   6.203   6.118  15.674 -0.0616  0.1673  1.4296
  477TIP3    H222923   6.309   6.051  15.759  1.5415  0.5862 -0.1726
  478TIP3   OH222924   5.673   3.718   0.797 -0.6090 -0.1356 -0.1884
  478TIP3    H122925   5.644   3.805   0.769 -0.0512  0.1136 -0.0143
  478TIP3    H222926   5.636   3.709   0.885  2.0196  1.3356  1.1858
  479TIP3   OH222927   3.265   1.172   1.448 -0.0147  0.3705 -0.4786
  479TIP3    H122928   3.175   1.145   1.469 -0.0040 -0.1773 -1.0998
  479TIP3    H222929   3.288   1.118   1.373  1.0449  0.0802  0.0421
  480TIP3   OH222930   3.051   2.489   2.369  0.2782  1.0457 -0.1697
  480TIP3    H122931   3.114   2.449   2.429 -0.1595 -1.3102 -1.1704
  480TIP3    H222932   3.094   2.487   2.284 -1.3334 -1.4023 -1.0419
  481TIP3   OH222933   4.822   2.666  13.544 -0.1911  0.0516 -0.1465
  481TIP3    H122934   4.837   2.640  13.634  0.4668  0.8600 -0.0123
  481TIP3    H222935   4.733   2.703  13.545 -0.7714 -1.2935 -0.1564
  482TIP3   OH222936   3.163   6.024   1.525 -0.3194  0.5582  0.4179
  482TIP3    H122937   3.105   6.047   1.453 -0.6758 -0.6967  0.2917
  482TIP3    H222938   3.115   6.049   1.604  0.5941  3.1703  0.2731
  483TIP3   OH222939   2.422   5.132  11.228  0.5868 -0.1192 -0.0767
  483TIP3    H122940   2.423   5.197  11.158 -2.9424 -0.5684 -0.7162
  483TIP3    H222941   2.435   5.183  11.308  0.4329  0.9975 -0.7425
  484TIP3   OH222942   2.860   3.423  13.553 -0.0152  0.5095 -0.4720
  484TIP3    H122943   2.770   3.450  13.571  0.7765  2.8793  0.3070
  484TIP3    H222944   2.860   3.328  13.563 -2.1737  0.5802  0.5968
  485TIP3   OH222945   2.775   4.398   0.056 -0.3879 -0.0034  0.0688
  485TIP3    H122946   2.711   4.369  -0.008  1.2449 -2.1549 -0.7051
  485TIP3    H222947   2.837   4.452   0.007  0.5400 -1.1702 -0.0733
  486TIP3   OH222948   5.860   5.985   0.730 -0.3818  0.1445 -0.0046
  486TIP3    H122949   5.886   5.949   0.815 -1.1278 -1.2803 -0.3536
  486TIP3    H222950   5.937   6.035   0.701  0.5869 -0.9036  0.6556
  487TIP3   OH222951   1.187   6.637  14.684 -0.1578 -0.3595  0.4088
  487TIP3    H122952   1.133   6.702  14.730 -2.1780 -0.8098 -1.1821
  487TIP3    H222953   1.217   6.578  14.754  0.0863  1.1127  1.6144
  488TIP3   OH222954   3.424   0.740   1.471  0.0188  0.1265  0.4936
  488TIP3    H122955   3.414   0.671   1.405  1.1001 -0.4529  0.9062
  488TIP3    H222956   3.519   0.751   1.480 -0.0780 -0.3321  2.4939
  489TIP3   OH222957   3.530   6.072  15.021 -0.2394 -0.1111  0.6197
  489TIP3    H122958   3.449   6.117  15.047 -0.8698 -1.8151  1.7550
  489TIP3    H222959   3.541   6.003  15.086  1.2624 -0.9503 -0.4641
  490TIP3   OH222960   3.673   3.020   4.377  0.6230  0.7181  0.0019
  490TIP3    H122961   3.711   2.987   4.295 -0.3294 -1.1492  0.2481
  490TIP3    H222962   3.627   2.944   4.414  1.6530  1.2749  2.6590
  491TIP3   OH222963   0.091   4.743  16.802  0.4654 -0.1014 -0.2567
  491TIP3    H122964   0.065   4.791  16.723 -0.9430  1.2093  0.9540
  491TIP3    H222965   0.052   4.656  16.791 -3.0799  1.2236  0.6466
  492TIP3   OH222966   3.791   0.563  15.645 -0.4968  0.4310  0.1582
  492TIP3    H122967   3.822   0.477  15.674 -0.0033 -0.1140 -1.8105
  492TIP3    H222968   3.697   0.563  15.665 -0.4926 -0.5660  0.2114
  493TIP3   OH222969   2.537   6.544  13.184 -0.3710  0.6761 -0.1035
  493TIP3    H122970   2.495   6.464  13.152  1.0774 -0.4564  0.6590
  493TIP3    H222971   2.528   6.538  13.280  0.0970  1.2224 -0.0218
  494TIP3   OH222972   2.279   0.205  16.309 -0.1753  0.4681 -0.5108
  494TIP3    H122973   2.187   0.227  16.320 -0.3157  0.9241 -2.2220
  494TIP3    H222974   2.278   0.126  16.256  0.4215 -0.0201  0.1919
  495TIP3   OH222975   1.796   5.115  15.936  0.1697 -0.0290  0.4058
  495TIP3    H122976   1.750   5.199  15.948  0.8126  0.4242 -0.2400
  495TIP3    H222977   1.859   5.113  16.008 -1.8398 -1.3781  2.2604
  496TIP3   OH222978   0.295   1.872  12.482 -0.2074  0.0807  0.6240
  496TIP3    H122979   0.358   1.855  12.553 -2.8538 -0.5791  3.0052
  496TIP3    H222980   0.340   1.843  12.403  3.1007  1.2819  1.8917
  497TIP3   OH222981   1.395   3.065   5.480  0.1898 -0.0245 -0.1852
  497TIP3    H122982   1.424   3.154   5.502 -4.0714  1.1275  1.7618
  497TIP3    H222983   1.329   3.078   5.413 -1.1166 -1.6105  0.7294
  498TIP3   OH222984   5.245   5.286  15.579 -0.0270  0.0140  0.2305
  498TIP3    H122985   5.251   5.192  15.599  0.0777  0.5531  3.1985
  498TIP3    H222986   5.155   5.309  15.602  0.3342  0.8605  0.8785
  499TIP3   OH222987   0.411   4.548   4.742  0.1080  0.7795 -0.1392
  499TIP3    H122988   0.430   4.515   4.654  0.7135  1.8727 -0.4287
  499TIP3    H222989   0.479   4.511   4.797  0.9290  1.7099 -0.5065
  500TIP3   OH222990   2.559   2.712   2.388  0.2581 -0.1483  0.2034
  500TIP3    H122991   2.611   2.700   2.309  0.7542 -0.3648  0.5585
  500TIP3    H222992   2.473   2.740   2.356  0.3012 -0.7155 -0.4339
  501TIP3   OH222993   3.825   3.651   1.859 -0.6854 -0.5246 -0.5090
  501TIP3    H122994   3.761   3.629   1.927  1.2129  1.9059  2.3524
  501TIP3    H222995   3.778   3.713   1.803 -1.8114 -1.2858 -0.4480
  502TIP3   OH222996   4.512   2.314  10.774  0.2381  0.6701 -0.1698
  502TIP3    H122997   4.418   2.314  10.757  0.2250  1.7689 -0.1769
  502TIP3    H222998   4.552   2.336  10.689  0.6323 -1.6019 -0.6371
  503TIP3   OH222999   5.635   1.868   5.672 -0.0822  0.1761  0.1891
  503TIP3    H123000   5.547   1.882   5.639  0.6517  0.1192 -1.9348
  503TIP3    H223001   5.677   1.954   5.668  1.4311 -0.5439 -3.6449
  504TIP3   OH223002   6.203   6.820   3.187 -0.2489 -0.0588  0.0400
  504TIP3    H123003   6.228   6.807   3.278 -0.5360 -2.6222 -0.1956
  504TIP3    H223004   6.146   6.897   3.189  0.2323  0.2959  1.9039
  505TIP3   OH223005   4.180   0.713   0.513  0.2017 -0.3080  0.6407
  505TIP3    H123006   4.233   0.670   0.445 -0.4543 -0.9538  0.5212
  505TIP3    H223007   4.241   0.773   0.556  0.4655  0.6251 -0.9464
  506TIP3   OH223008   3.663   6.787   5.925  0.1780 -0.2615 -0.3483
  506TIP3    H123009   3.600   6.760   5.992 -0.2972 -0.4857 -0.8755
  506TIP3    H223010   3.736   6.825   5.974  0.9577 -2.6274  0.4649
  507TIP3   OH223011   4.561   3.258   0.978  0.5017 -0.2549  0.1355
  507TIP3    H123012   4.654   3.265   0.959  0.6085 -0.7435  0.4579
  507TIP3    H223013   4.556   3.252   1.073  0.0236  1.3924  0.2431
  508TIP3   OH223014   0.534   5.237  10.900 -0.5453 -0.3429 -0.5633
  508TIP3    H123015   0.474   5.171  10.863 -1.9758 -0.7277  2.1765
  508TIP3    H223016   0.575   5.192  10.974 -0.1792  1.3032  0.2650
  509TIP3   OH223017   6.267   0.058   2.165 -0.1371 -0.5713  0.5918
  509TIP3    H123018   6.261  -0.018   2.222  0.3081  0.4835  2.0887
  509TIP3    H223019   6.194   0.114   2.190  0.0211 -0.1243  0.0849
  510TIP3   OH223020   3.094   4.933   0.355  0.0474 -0.3363 -0.3499
  510TIP3    H123021   3.082   5.027   0.342 -1.3282 -0.7017 -2.1648
  510TIP3    H223022   3.171   4.911   0.304  0.0679 -0.2748 -0.3456
  511TIP3   OH223023   2.588   0.698   4.165  0.6269  0.7020  0.1767
  511TIP3    H123024   2.651   0.736   4.103 -1.6751  0.4666 -2.5211
  511TIP3    H223025   2.549   0.625   4.117 -1.9155  1.0402  1.5637
  512TIP3   OH223026   1.202   2.621   0.203  0.2123  0.1626  1.1184
  512TIP3    H123027   1.152   2.699   0.226 -0.4703 -0.5259  2.0302
  512TIP3    H223028   1.137   2.558   0.171  0.8095  0.1074 -0.0545
  513TIP3   OH223029   2.901   6.285  10.757  0.3068 -0.1031  0.1767
  513TIP3    H123030   2.836   6.278  10.827  0.9251 -0.3995  0.7406
  513TIP3    H223031   2.889   6.372  10.721 -1.6045 -0.7822 -0.9520
  514TIP3   OH223032   5.589   6.633   3.486 -0.0527  0.2750 -0.0839
  514TIP3    H123033   5.607   6.539   3.484 -0.1292  0.1831  1.7490
  514TIP3    H223034   5.496   6.640   3.508  0.3681  0.7505  1.6936
  515TIP3   OH223035   2.598   5.321  13.317  0.4112 -0.2295 -0.0225
  515TIP3    H123036   2.556   5.276  13.390 -0.2753  0.8279  0.2711
  515TIP3    H223037   2.629   5.403  13.355  0.3401  0.1843 -0.8415
  516TIP3   OH223038   5.466   3.131  13.783 -0.4630  0.6020 -0.0309
  516TIP3    H123039   5.431   3.182  13.856 -0.6771  1.1492 -0.5119
  516TIP3    H223040   5.431   3.174  13.705 -2.2856 -1.4020 -0.4305
  517TIP3   OH223041   5.163   0.873   2.380  0.0802  0.7308 -0.3481
  517TIP3    H123042   5.190   0.833   2.462  0.2951 -1.1728 -1.2934
  517TIP3    H223043   5.071   0.849   2.369  0.3323  0.0674 -1.1444
  518TIP3   OH223044   2.910   5.288   3.278  0.5593 -0.4409 -0.0170
  518TIP3    H123045   2.914   5.244   3.363  0.2744  0.6774  0.5943
  518TIP3    H223046   2.953   5.227   3.218  1.0341 -1.1264  0.9822
  519TIP3   OH223047   3.428   1.051   4.838 -0.0490 -0.2088 -0.1420
  519TIP3    H123048   3.401   0.972   4.792  2.1829 -0.7915 -0.5583
  519TIP3    H223049   3.429   1.119   4.771 -0.0828 -0.2745 -0.2084
  520TIP3   OH223050   1.061   5.327  13.831  0.5289 -0.1161 -1.0832
  520TIP3    H123051   1.101   5.386  13.894  1.0689 -0.1474 -1.3942
  520TIP3    H223052   1.106   5.244  13.844 -0.1600 -0.4423 -0.7150
  521TIP3   OH223053   0.399   6.413  13.978  0.1947 -0.0106 -0.3851
  521TIP3    H123054   0.386   6.325  13.943 -1.1412  0.1308 -0.2726
  521TIP3    H223055   0.455   6.456  13.913  0.7870 -0.8968 -0.4819
  522TIP3   OH223056   4.766   4.202   1.265  0.2541 -0.3819 -0.1725
  522TIP3    H123057   4.711   4.259   1.319  0.0711 -0.1294 -0.6285
  522TIP3    H223058   4.827   4.260   1.221  3.0692 -0.8532  2.7031
  523TIP3   OH223059   2.529   4.579  15.630  0.3349  0.2465  0.2353
  523TIP3    H123060   2.462   4.550  15.567  0.6492  1.3494 -0.6481
  523TIP3    H223061   2.578   4.500  15.650 -1.6895 -0.7603  1.5255
  524TIP3   OH223062   0.954   3.486   0.113 -0.3773 -0.3152 -0.3558
  524TIP3    H123063   1.031   3.436   0.083 -1.2420 -1.3253 -0.9874
  524TIP3    H223064   0.965   3.493   0.207  0.8460  0.1756 -0.5211
  525TIP3   OH223065   4.890   1.363  17.268 -0.2512 -0.3703  0.2589
  525TIP3    H123066   4.912   1.325  17.353 -1.6221 -1.6097  0.0883
  525TIP3    H223067   4.861   1.289  17.215  1.6415  0.1870 -1.6998
  526TIP3   OH223068   2.215   5.870   4.252 -0.2262  0.4943 -0.5617
  526TIP3    H123069   2.309   5.852   4.256 -0.0543  1.3190 -0.7057
  526TIP3    H223070   2.209   5.958   4.215 -1.1173 -0.0896 -1.8859
  527TIP3   OH223071   3.717   0.637   4.548 -0.7401 -0.5046 -0.0604
  527TIP3    H123072   3.749   0.585   4.621 -1.2274 -0.2020  0.3751
  527TIP3    H223073   3.731   0.728   4.575 -4.3713 -0.2057  1.3528
  528TIP3   OH223074   3.605   6.501  16.851 -0.1288 -0.0211  0.4235
  528TIP3    H123075   3.577   6.426  16.799 -0.7705  1.5019 -1.5115
  528TIP3    H223076   3.649   6.559  16.788 -0.6033  1.7237  1.6382
  529TIP3   OH223077   6.208   2.362   0.938  0.1143  0.2023 -0.1849
  529TIP3    H123078   6.242   2.275   0.921 -2.8034 -1.3737  1.3513
  529TIP3    H223079   6.238   2.383   1.027 -1.8643 -0.7873  0.7937
  530TIP3   OH223080   5.594   5.472  15.791  0.1858 -0.1472  0.0236
  530TIP3    H123081   5.664   5.489  15.853 -0.2332 -1.0183  0.7646
  530TIP3    H223082   5.514   5.494  15.838 -0.0454  1.1199 -0.9097
  531TIP3   OH223083   6.007   5.966  11.246  0.0316  0.0987  0.3790
  531TIP3    H123084   5.989   5.913  11.324 -2.3342 -0.0751 -0.1800
  531TIP3    H223085   6.037   5.903  11.181 -1.5556 -0.4338  0.1000
  532TIP3   OH223086   0.324   0.690  16.163  0.1212 -0.0781 -0.0884
  532TIP3    H123087   0.293   0.759  16.221  2.9892  0.1904  1.3020
  532TIP3    H223088   0.335   0.733  16.078  0.4088  0.7888  0.3771
  533TIP3   OH223089   1.911   5.803   2.606 -0.1216 -0.4085  0.2756
  533TIP3    H123090   1.997   5.763   2.597 -0.4845 -1.2201  0.2827
  533TIP3    H223091   1.850   5.735   2.577 -0.9193 -0.7233  2.5044
  534TIP3   OH223092   0.897   1.731   2.983 -0.2523 -0.0134 -0.0327
  534TIP3    H123093   0.983   1.767   3.002  0.8576 -3.4043  2.6854
  534TIP3    H223094   0.856   1.793   2.924  2.9213  3.2309  0.8514
  535TIP3   OH223095   3.872   2.774   4.469 -0.1293 -0.2686  0.7531
  535TIP3    H123096   3.966   2.753   4.464 -0.2511 -0.5748 -0.6473
  535TIP3    H223097   3.842   2.730   4.548  0.7395 -0.8807  0.7625
  536TIP3   OH223098   1.045   0.489  11.176  0.0880  0.5379 -0.1457
  536TIP3    H123099   1.133   0.465  11.145 -0.7617 -1.3325 -1.2946
  536TIP3    H223100   1.059   0.520  11.265  1.7816 -1.1858  0.2743
  537TIP3   OH223101   3.349   6.082  14.280  0.4684  0.3545 -0.5812
  537TIP3    H123102   3.345   5.987  14.289  2.2386  0.3771  1.2200
  537TIP3    H223103   3.432   6.098  14.235  0.2837  1.0798 -0.6765
  538TIP3   OH223104   1.248   5.365   6.048 -0.2545 -0.0717  0.6766
  538TIP3    H123105   1.286   5.449   6.072 -0.0386  0.3193 -0.8747
  538TIP3    H223106   1.192   5.385   5.973 -0.7221 -1.2062  0.7016
  539TIP3   OH223107   6.579   6.561  14.246  0.0629  0.4247  0.1466
  539TIP3    H123108   6.594   6.490  14.308 -0.1317  0.6826  0.4856
  539TIP3    H223109   6.653   6.555  14.185 -0.9248 -1.2785 -0.9780
  540TIP3   OH223110   0.798   0.646  12.032  0.1463 -0.1086  0.0167
  540TIP3    H123111   0.726   0.585  12.045  0.9179 -0.9000  0.7964
  540TIP3    H223112   0.868   0.593  11.993  0.4138  0.5653 -0.4419
  541TIP3   OH223113   3.797   5.752   0.086  0.5642 -0.3443 -0.6583
  541TIP3    H123114   3.709   5.749   0.124  1.2332 -0.3974  0.9845
  541TIP3    H223115   3.800   5.837   0.041 -0.3766 -0.4232 -0.9070
  542TIP3   OH223116   3.308   0.772   5.430  0.2033  0.4010  0.0600
  542TIP3    H123117   3.338   0.835   5.494  3.1146 -0.4818 -0.3013
  542TIP3    H223118   3.316   0.817   5.346  1.1451 -0.0062 -0.0856
  543TIP3   OH223119   1.642   5.018   0.226 -0.3155  0.4902 -0.0175
  543TIP3    H123120   1.577   5.064   0.173 -1.6823 -1.7094 -0.3520
  543TIP3    H223121   1.624   4.925   0.211 -1.1348 -0.3325  4.6556
  544TIP3   OH223122   0.821   5.408   2.991 -0.1186 -0.6575  0.4066
  544TIP3    H123123   0.882   5.388   3.062 -0.7403 -0.0781  1.1038
  544TIP3    H223124   0.734   5.401   3.030 -0.4399  1.0190  0.0698
  545TIP3   OH223125   2.970   5.846   3.616  0.2825  0.0161  0.1985
  545TIP3    H123126   2.919   5.800   3.684  1.8609 -0.9058  0.8106
  545TIP3    H223127   3.009   5.920   3.662 -0.9312  1.0821 -0.4124
  546TIP3   OH223128   0.567   6.624   0.756  0.7017 -0.3812 -0.2038
  546TIP3    H123129   0.489   6.596   0.804 -0.2438 -0.3205 -1.6380
  546TIP3    H223130   0.615   6.543   0.739  0.8925 -0.4362  0.5412
  547TIP3   OH223131   0.357   2.118   5.727 -0.5342  0.1173  0.1598
  547TIP3    H123132   0.283   2.129   5.788 -0.2000 -2.9734  1.3125
  547TIP3    H223133   0.427   2.081   5.781  0.9703  0.4924 -1.4541
  548TIP3   OH223134   6.325   1.326  15.223 -0.5709  0.2873  0.2734
  548TIP3    H123135   6.385   1.366  15.286 -0.0164 -1.5778  0.9969
  548TIP3    H223136   6.377   1.320  15.142 -0.2050 -0.1405  0.5337
  549TIP3   OH223137   3.811   0.407   1.040 -0.1037 -0.4864  0.3609
  549TIP3    H123138   3.828   0.492   0.998 -0.9267  0.0302  1.0395
  549TIP3    H223139   3.896   0.379   1.072  0.3707 -0.4222 -0.7659
  550TIP3   OH223140   5.491   4.140   1.183  0.1586  0.3948 -0.6809
  550TIP3    H123141   5.430   4.197   1.137  1.0246  2.1767  0.2702
  550TIP3    H223142   5.553   4.111   1.116 -0.0851  0.8500 -1.1049
  551TIP3   OH223143   4.988   4.632  15.273  0.8725 -1.0409 -0.3660
  551TIP3    H123144   4.901   4.638  15.232  0.3089  0.1865  0.8941
  551TIP3    H223145   5.042   4.695  15.225  0.8489 -1.2574 -0.6751
  552TIP3   OH223146   2.892   0.609  15.464  0.4698  0.2472  0.4467
  552TIP3    H123147   2.916   0.654  15.382 -3.6570 -0.0477 -1.1707
  552TIP3    H223148   2.858   0.679  15.520 -3.0319 -0.1951 -0.8755
  553TIP3   OH223149   4.562   0.659  12.131  0.6158 -0.1748  0.4785
  553TIP3    H123150   4.479   0.695  12.162  0.3073  1.9843 -2.4185
  553TIP3    H223151   4.559   0.567  12.158 -1.6793  0.3387  2.3719
  554TIP3   OH223152   1.785   1.006   2.161  0.6981 -0.0400  0.6438
  554TIP3    H123153   1.822   1.077   2.212 -1.1657  0.7859  0.9143
  554TIP3    H223154   1.762   0.939   2.225 -0.4588  0.4660  0.7886
  555TIP3   OH223155   5.484   6.558  14.264 -0.0181 -0.1925 -0.1847
  555TIP3    H123156   5.454   6.647  14.279  0.2744 -0.1246  0.0180
  555TIP3    H223157   5.411   6.502  14.291 -0.5431  0.0048 -1.1556
  556TIP3   OH223158   3.919   2.855  14.739 -0.5488  0.2989  0.3229
  556TIP3    H123159   3.992   2.818  14.789 -1.5568 -0.1394  1.5270
  556TIP3    H223160   3.952   2.940  14.709  0.8794 -0.4172 -0.2367
  557TIP3   OH223161   3.424   1.199  14.208  1.0525  0.0461 -0.3244
  557TIP3    H123162   3.447   1.126  14.265 -1.6035 -1.9125 -1.5589
  557TIP3    H223163   3.507   1.246  14.196  2.1902 -0.7004  3.2269
  558TIP3   OH223164   2.028   6.031  16.961 -0.9385 -0.6634  0.2395
  558TIP3    H123165   1.963   6.000  17.024  0.2980 -3.4917  0.2951
  558TIP3    H223166   2.110   6.034  17.011 -0.6759  1.3022 -0.2195
  559TIP3   OH223167   0.008   1.572  16.408  0.3799  0.6111 -0.2273
  559TIP3    H123168   0.068   1.577  16.482 -1.4693  0.8016  1.3404
  559TIP3    H223169  -0.032   1.485  16.416 -0.3663  0.9208 -0.5694
  560TIP3   OH223170   4.191   1.815   2.680  0.2828 -0.0610 -0.0484
  560TIP3    H123171   4.109   1.851   2.715  0.7314  0.0924  0.8677
  560TIP3    H223172   4.183   1.720   2.694 -1.0839 -0.4722 -2.8438
  561TIP3   OH223173   5.885   0.666  12.446 -0.1782 -0.0557 -0.1909
  561TIP3    H123174   5.900   0.615  12.366 -0.5235 -0.7172  0.1623
  561TIP3    H223175   5.864   0.601  12.513 -2.5807  0.6330 -0.1820
  562TIP3   OH223176   4.677   2.966  14.003 -0.1521  0.2178 -0.0946
  562TIP3    H123177   4.761   3.004  14.031 -0.4485  0.9512 -0.1811
  562TIP3    H223178   4.611   3.019  14.047 -0.6079  0.7538 -1.3698
  563TIP3   OH223179   6.754   5.754  12.716  0.5955 -0.4890  0.0052
  563TIP3    H123180   6.699   5.827  12.744  0.8689 -0.6915  1.1214
  563TIP3    H223181   6.842   5.791  12.710  0.2595  0.0714 -2.6969
  564TIP3   OH223182   2.318   2.082   2.514  0.0460 -0.5333  0.6800
  564TIP3    H123183   2.349   2.032   2.590  1.4861  0.0547  0.4972
  564TIP3    H223184   2.376   2.056   2.443 -0.9498 -0.6581 -0.1019
  565TIP3   OH223185   5.761   1.524   0.690 -0.2670 -0.6546  0.6666
  565TIP3    H123186   5.683   1.547   0.640 -0.4318 -0.6169  0.9417
  565TIP3    H223187   5.834   1.547   0.632 -0.4741 -1.7621 -0.0742
  566TIP3   OH223188   2.897   3.572   6.333  0.2544  0.1247  0.6097
  566TIP3    H123189   2.964   3.629   6.371 -0.3512 -0.0358  1.9449
  566TIP3    H223190   2.816   3.620   6.344 -0.1340 -0.5813  0.8744
  567TIP3   OH223191   1.554   3.864  11.748  0.4738  0.0592  0.0926
  567TIP3    H123192   1.613   3.937  11.763  1.8757 -0.9182 -0.4928
  567TIP3    H223193   1.543   3.824  11.834  0.3348  0.4788  0.2726
  568TIP3   OH223194   1.586   1.677   5.677  0.1630  0.2646  0.2372
  568TIP3    H123195   1.661   1.736   5.668  0.1622 -0.0047 -2.2842
  568TIP3    H223196   1.512   1.727   5.644 -0.1065 -0.6521 -0.5611
  569TIP3   OH223197   0.140   4.220  11.487  0.4809 -0.0418 -0.2101
  569TIP3    H123198   0.098   4.207  11.402  1.5523 -2.4254 -0.4659
  569TIP3    H223199   0.168   4.311  11.487  0.7535 -0.0826 -2.5704
  570TIP3   OH223200   6.263   6.713  12.846 -0.4345 -0.3087  1.0925
  570TIP3    H123201   6.259   6.788  12.785 -0.7734 -0.8655  0.4198
  570TIP3    H223202   6.340   6.664  12.818 -1.5358 -1.4970 -0.0187
  571TIP3   OH223203   6.326   2.001  12.462 -0.1297  0.1526  0.6576
  571TIP3    H123204   6.406   2.043  12.429 -0.0395  0.0367  0.7289
  571TIP3    H223205   6.338   1.996  12.557  0.3285 -0.9891  0.5532
  572TIP3   OH223206   2.950   0.782   1.532  0.4329  1.0027  0.0098
  572TIP3    H123207   3.004   0.736   1.468 -0.3239  0.7233 -0.4287
  572TIP3    H223208   2.996   0.864   1.547  1.3920  0.4497  0.2236
  573TIP3   OH223209   1.616   2.468  11.672 -0.0616  0.2785 -0.0444
  573TIP3    H123210   1.620   2.562  11.656  1.4956  0.4626  1.1663
  573TIP3    H223211   1.550   2.458  11.740  0.9951  0.7392  1.0923
  574TIP3   OH223212   1.796   2.792   2.111 -0.1499  0.8179  0.3641
  574TIP3    H123213   1.865   2.830   2.166  0.3980  0.5690 -0.1412
  574TIP3    H223214   1.747   2.868   2.078 -1.1275  0.9333  1.9954
  575TIP3   OH223215   1.087   3.563  11.963  0.2047 -0.0479  0.1265
  575TIP3    H123216   1.000   3.544  11.999 -0.2631  1.3313 -0.2216
  575TIP3    H223217   1.145   3.562  12.039 -0.5870  1.7501  0.8088
  576TIP3   OH223218   4.451   2.781  16.149 -0.1791 -0.3446 -0.6145
  576TIP3    H123219   4.482   2.853  16.203  1.2272 -1.5689  0.2730
  576TIP3    H223220   4.524   2.759  16.092 -0.9918 -0.3358 -1.7061
  577TIP3   OH223221   1.688   4.056   6.066  0.2014 -0.1094 -0.0823
  577TIP3    H123222   1.626   4.022   6.130 -1.9591  1.1042 -1.3940
  577TIP3    H223223   1.635   4.112   6.009  2.1375 -0.5183 -2.4744
  578TIP3   OH223224   2.290   0.312  15.794 -0.0088  0.4342  0.2004
  578TIP3    H123225   2.212   0.260  15.814 -0.0401 -0.6024 -2.2446
  578TIP3    H223226   2.256   0.387  15.744  0.5366 -0.2395 -1.2431
  579TIP3   OH223227   1.997   0.196   5.049 -0.2375 -0.1681  0.0229
  579TIP3    H123228   1.925   0.237   5.096 -1.2035 -3.0692  1.2216
  579TIP3    H223229   2.018   0.117   5.099  3.9068  0.5586 -0.1820
  580TIP3   OH223230   5.100   0.967   1.821  0.6811  0.4630 -0.2528
  580TIP3    H123231   5.095   0.902   1.891  0.4869  1.9207  1.1332
  580TIP3    H223232   5.077   0.918   1.742 -1.2656 -0.7728  0.9847
  581TIP3   OH223233   6.048   6.263   0.224 -0.3575  0.7644  0.3336
  581TIP3    H123234   6.008   6.335   0.175 -0.4927  1.0398  0.8451
  581TIP3    H223235   6.000   6.261   0.307  0.5011  0.9242  0.8443
  582TIP3   OH223236   2.424   2.884   3.894  0.4334  0.2805 -0.6392
  582TIP3    H123237   2.361   2.861   3.963 -0.6723  1.6774 -1.1266
  582TIP3    H223238   2.374   2.938   3.833  1.8965  0.6987 -1.5173
  583TIP3   OH223239   3.580   2.739   0.935 -0.1766 -0.2415  0.1111
  583TIP3    H123240   3.577   2.647   0.960 -0.4486 -0.0676  0.7239
  583TIP3    H223241   3.561   2.787   1.015 -1.1148  0.3278 -0.4280
  584TIP3   OH223242   4.550   5.612   4.766 -0.9482 -0.1609  0.5539
  584TIP3    H123243   4.617   5.553   4.799 -0.5854  0.0799  0.2590
  584TIP3    H223244   4.581   5.636   4.679 -1.1997  0.2960  0.5896
  585TIP3   OH223245   1.631   1.421   4.971 -0.2177 -0.5784 -0.2867
  585TIP3    H123246   1.656   1.329   4.961 -1.3901 -0.8141 -1.1972
  585TIP3    H223247   1.658   1.443   5.061 -1.1489 -2.2043  0.4289
  586TIP3   OH223248   3.055   0.047  12.068  0.0780 -0.7188 -0.4133
  586TIP3    H123249   3.111   0.120  12.042  1.3800 -1.0416  1.2761
  586TIP3    H223250   2.972   0.088  12.094  0.2853  0.0018 -0.8529
  587TIP3   OH223251   4.994   2.007  11.524 -0.2075  0.4292  0.1145
  587TIP3    H123252   4.974   2.009  11.430  0.4950  0.7908 -0.0371
  587TIP3    H223253   5.077   1.960  11.530  0.0312  0.8937  0.4969
  588TIP3   OH223254   4.825   4.301  16.411  0.1030  0.1470 -0.1413
  588TIP3    H123255   4.824   4.322  16.504 -1.5406 -1.4638  0.2750
  588TIP3    H223256   4.789   4.213  16.406 -1.1381  0.6812 -2.3909
  589TIP3   OH223257   4.697   6.084   2.395 -0.5467 -0.2812 -0.4171
  589TIP3    H123258   4.759   6.065   2.325  0.2787 -0.6355  0.3740
  589TIP3    H223259   4.656   6.167   2.370  0.2502 -0.0402 -0.9612
  590TIP3   OH223260   2.486   0.476  11.714  0.3462  0.3442 -0.1174
  590TIP3    H123261   2.519   0.387  11.717 -2.3854 -0.8569 -2.0076
  590TIP3    H223262   2.394   0.469  11.738 -0.6208  2.1779 -2.7628
  591TIP3   OH223263   1.898   2.217   2.406  0.1045  0.4754  0.1707
  591TIP3    H123264   1.829   2.272   2.444  0.7868  1.1776  0.3963
  591TIP3    H223265   1.951   2.190   2.481  1.0161  1.2525 -0.1805
  592TIP3   OH223266   2.994   5.894   2.433  0.4368  0.5924 -0.0094
  592TIP3    H123267   3.035   5.976   2.461 -1.9162  1.6292  0.6588
  592TIP3    H223268   2.994   5.898   2.338  0.5580  1.2652  0.0142
  593TIP3   OH223269   6.621   6.303   0.346  0.0494 -0.3933 -0.6131
  593TIP3    H123270   6.707   6.278   0.378 -0.9316 -2.3492  0.6713
  593TIP3    H223271   6.637   6.381   0.292  2.4242  0.0858  0.6501
  594TIP3   OH223272   3.159   6.349   0.347 -0.2175  0.7255 -0.3964
  594TIP3    H123273   3.224   6.358   0.416  0.5035  0.6414 -1.0442
  594TIP3    H223274   3.078   6.323   0.391  0.0450  1.3819  0.4854
  595TIP3   OH223275   6.451   6.076   1.124 -0.4041  0.1270 -0.4221
  595TIP3    H123276   6.384   6.034   1.179 -1.3052  1.7841 -0.1953
  595TIP3    H223277   6.435   6.041   1.036 -0.3652 -0.8824 -0.0378
  596TIP3   OH223278   0.075   4.218  13.596 -1.0135 -0.4020 -0.0566
  596TIP3    H123279   0.005   4.157  13.621 -0.3228 -0.5787  1.6162
  596TIP3    H223280   0.035   4.304  13.602 -1.2484 -0.5357  0.4118
  597TIP3   OH223281   2.208   5.460   3.747 -0.1627 -0.3733  0.4206
  597TIP3    H123282   2.124   5.498   3.721 -0.9423 -0.6705  2.3979
  597TIP3    H223283   2.271   5.502   3.688 -1.5937  0.3194 -0.6950
  598TIP3   OH223284   4.135   5.596  17.024  0.1892 -0.2093  0.6139
  598TIP3    H123285   4.183   5.526  16.979  1.1209 -0.1126  1.4365
  598TIP3    H223286   4.050   5.557  17.044  0.5480 -0.9664  0.6855
  599TIP3   OH223287   0.861   2.285  16.708 -0.6276  0.2797  0.0834
  599TIP3    H123288   0.837   2.214  16.768 -0.7292  1.1356  1.0741
  599TIP3    H223289   0.942   2.255  16.667  0.4953  0.4903  2.0532
  600TIP3   OH223290   0.538   6.729  12.222  0.2694 -1.4951  0.3740
  600TIP3    H123291   0.487   6.793  12.271  0.1624  0.0967 -1.6720
  600TIP3    H223292   0.594   6.687  12.287  1.1883  1.4922  1.6771
  601TIP3   OH223293   3.112   0.834   5.047 -0.4999 -0.2559 -0.3526
  601TIP3    H123294   3.121   0.739   5.035 -0.4773 -0.1669 -1.1479
  601TIP3    H223295   3.186   0.859   5.101 -1.2099 -0.8760  0.9523
  602TIP3   OH223296   0.946   0.429   1.525  0.8088 -0.1208 -0.0133
  602TIP3    H123297   0.865   0.470   1.493  1.3138  0.7542 -0.1956
  602TIP3    H223298   0.930   0.335   1.515  0.9737  0.0633 -3.0473
  603TIP3   OH223299   0.453   4.754  14.824 -0.3511 -0.2707  0.4969
  603TIP3    H123300   0.490   4.680  14.776  0.6754 -0.2494  1.2219
  603TIP3    H223301   0.507   4.829  14.797 -0.6057 -0.0160  0.6960
  604TIP3   OH223302   6.007   4.330  16.659  0.3829 -0.4424 -0.5178
  604TIP3    H123303   5.920   4.293  16.649  0.2736 -0.1015 -0.8623
  604TIP3    H223304   6.046   4.281  16.732 -0.4909  0.1382  0.3671
  605TIP3   OH223305   4.483   1.525   0.215  0.2177  0.4856  0.0514
  605TIP3    H123306   4.505   1.615   0.189  2.4660 -0.1535 -0.5089
  605TIP3    H223307   4.435   1.535   0.297 -1.1179  2.2547 -0.8611
  606TIP3   OH223308   1.724   2.032   0.267 -0.5824 -0.0469 -0.1486
  606TIP3    H123309   1.682   1.947   0.253  0.8614 -1.0030  0.9458
  606TIP3    H223310   1.757   2.027   0.357 -0.0436  1.4908 -0.2440
  607TIP3   OH223311   5.464   1.303   3.601 -0.2859  0.5121 -0.1398
  607TIP3    H123312   5.507   1.312   3.516 -2.8629  1.0236 -1.4998
  607TIP3    H223313   5.456   1.208   3.614 -0.9750  0.4164 -1.1234
  608TIP3   OH223314   5.289   1.965  15.150  0.0937 -0.2358 -0.1653
  608TIP3    H123315   5.263   1.916  15.229  0.6910 -2.0828 -1.0506
  608TIP3    H223316   5.320   2.049  15.184 -1.2293 -0.3289  1.4153
  609TIP3   OH223317   3.083   0.830   2.020 -0.2505 -0.5838 -0.2136
  609TIP3    H123318   3.009   0.770   2.029 -0.4780 -0.2819 -0.0604
  609TIP3    H223319   3.081   0.883   2.100  1.4477 -2.0167  0.8624
  610TIP3   OH223320   3.768   5.750  15.731 -0.0181  0.2759 -0.8089
  610TIP3    H123321   3.742   5.825  15.785  0.7174 -0.8968  1.3114
  610TIP3    H223322   3.693   5.735  15.673 -1.1278  1.2733  0.2919
  611TIP3   OH223323   0.889   6.079   5.767 -0.2529  0.1807 -0.7917
  611TIP3    H123324   0.934   6.050   5.845  2.0160 -0.4545 -2.2503
  611TIP3    H223325   0.896   6.175   5.770 -0.7833  0.2029  0.0854
  612TIP3   OH223326   4.591   1.991   3.941 -0.0234  0.2227  0.4809
  612TIP3    H123327   4.611   1.900   3.919  3.1326  1.3482 -2.1144
  612TIP3    H223328   4.547   2.025   3.864 -0.4785  1.1078  1.1144
  613TIP3   OH223329   1.865   0.207   2.803 -0.7386  0.3789  0.0880
  613TIP3    H123330   1.906   0.259   2.733  1.9762 -1.1630  0.4124
  613TIP3    H223331   1.847   0.122   2.762  1.0822 -0.6097  1.2619
  614TIP3   OH223332   5.323   2.574  16.790  0.0266  0.0847  0.6566
  614TIP3    H123333   5.313   2.511  16.861  0.8917 -0.3968  0.3656
  614TIP3    H223334   5.306   2.659  16.831  0.4428 -0.1883  1.4309
  615TIP3   OH223335   2.509   2.690   5.285 -0.7865  0.7010 -0.0708
  615TIP3    H123336   2.595   2.725   5.308 -0.5005  0.2110 -0.3644
  615TIP3    H223337   2.492   2.624   5.352 -0.1707 -0.3838 -0.9390
  616TIP3   OH223338   2.240   4.085  14.844 -0.1134  0.1524 -0.1307
  616TIP3    H123339   2.177   4.156  14.832 -0.4954 -0.2239 -0.3603
  616TIP3    H223340   2.203   4.031  14.914  0.6009  0.6463  0.6552
  617TIP3   OH223341   6.721   4.720  14.796  0.4530 -0.4304  0.0504
  617TIP3    H123342   6.726   4.686  14.886 -1.1332 -0.6507  0.0947
  617TIP3    H223343   6.767   4.656  14.743  1.9261 -0.0041  0.7614
  618TIP3   OH223344   3.941   5.798  15.121  0.1195  0.0839  0.1662
  618TIP3    H123345   3.870   5.849  15.162  0.0652  0.9823 -0.9943
  618TIP3    H223346   3.927   5.809  15.027  1.0576 -0.7891 -0.0904
  619TIP3   OH223347   2.421   3.502  11.535 -0.4087  0.5698 -0.2091
  619TIP3    H123348   2.385   3.436  11.594 -1.7477 -2.0048 -3.6038
  619TIP3    H223349   2.499   3.534  11.581 -0.5411 -2.2546  2.3186
  620TIP3   OH223350   5.361   5.046  11.367  0.1989  0.3925 -0.5497
  620TIP3    H123351   5.330   5.090  11.288 -1.4076  1.6478  0.6863
  620TIP3    H223352   5.440   5.000  11.340  0.6157  2.0917 -2.5148
  621TIP3   OH223353   6.037   2.748   1.892  0.0948 -0.2397 -0.6433
  621TIP3    H123354   6.121   2.727   1.931 -0.5018  0.0432  0.8565
  621TIP3    H223355   6.028   2.688   1.818  2.4138  0.9550 -1.9870
  622TIP3   OH223356   5.817   0.687   1.136 -0.6108 -0.9419 -0.0630
  622TIP3    H123357   5.804   0.596   1.108  2.0380 -1.5305  0.3530
  622TIP3    H223358   5.892   0.717   1.084  0.8261 -0.2077  2.2894
  623TIP3   OH223359   5.430   0.203  13.338 -0.2566 -0.1492 -0.0623
  623TIP3    H123360   5.428   0.192  13.433 -0.3999  0.6400  0.0305
  623TIP3    H223361   5.394   0.121  13.304 -0.9234 -0.1408  0.5908
  624TIP3   OH223362   5.163   0.101  10.494 -0.2465 -0.0990  0.9456
  624TIP3    H123363   5.200   0.189  10.488 -1.2902  0.3587  0.9788
  624TIP3    H223364   5.078   0.114  10.535 -0.4760 -1.1110  0.8070
  625TIP3   OH223365   4.493   5.050   2.328 -0.5045 -0.4786  0.4886
  625TIP3    H123366   4.465   4.959   2.327 -1.2788 -0.3004  2.1489
  625TIP3    H223367   4.578   5.049   2.371 -0.9916 -0.3217  1.4762
  626TIP3   OH223368   1.636   4.517  16.332  0.2919 -0.1103  0.0938
  626TIP3    H123369   1.574   4.446  16.312  0.1623 -0.0871  0.4109
  626TIP3    H223370   1.631   4.574  16.255  1.7961 -1.4056 -1.0386
  627TIP3   OH223371   5.763   0.057   0.064 -0.2103  0.5973  0.0682
  627TIP3    H123372   5.823  -0.012   0.090 -0.2543  0.9049  1.0122
  627TIP3    H223373   5.708   0.072   0.141  0.2434  2.1401  0.1406
  628TIP3   OH223374   3.312   5.217   0.234 -0.1511  0.4387  0.2835
  628TIP3    H123375   3.356   5.255   0.310 -0.2233  0.4631  0.3138
  628TIP3    H223376   3.228   5.185   0.269 -0.7346  1.5844 -0.0255
  629TIP3   OH223377   6.437   3.727  14.188 -0.6071  0.2170 -0.2466
  629TIP3    H123378   6.402   3.671  14.119  1.2622 -0.8647 -0.3981
  629TIP3    H223379   6.530   3.704  14.193 -0.8634 -0.7150  3.5097
  630TIP3   OH223380   4.514   1.355   3.790 -0.4523  0.3572 -0.0205
  630TIP3    H123381   4.462   1.389   3.862 -2.6328 -2.1551 -0.2299
  630TIP3    H223382   4.454   1.355   3.715  1.0965  0.9141 -1.3252
  631TIP3   OH223383   3.529   3.144   5.663  0.1664 -0.4694  0.6889
  631TIP3    H123384   3.531   3.075   5.597 -0.9590 -1.1887  1.3576
  631TIP3    H223385   3.605   3.126   5.719 -1.4930 -2.8581  2.4072
  632TIP3   OH223386   6.768   5.631  11.202  0.4496  0.0914  0.5174
  632TIP3    H123387   6.779   5.701  11.267 -0.1994  1.2920 -0.6034
  632TIP3    H223388   6.713   5.671  11.134  0.9517 -1.1784 -0.6709
  633TIP3   OH223389   1.663   1.116   0.883 -0.0981 -0.6282 -0.2855
  633TIP3    H123390   1.633   1.202   0.857 -0.4966 -1.3736 -2.4808
  633TIP3    H223391   1.752   1.129   0.915 -1.1397  0.9761  2.2540
  634TIP3   OH223392   3.683   5.189   5.069 -0.1312 -0.1018 -0.0950
  634TIP3    H123393   3.660   5.246   4.996 -0.6572  0.0148  0.1565
  634TIP3    H223394   3.609   5.128   5.077 -1.1609  1.2643  1.7176
  635TIP3   OH223395   3.195   4.470  16.684  0.1194 -0.4897 -0.0787
  635TIP3    H123396   3.267   4.532  16.672  1.0779 -1.3359  0.9413
  635TIP3    H223397   3.238   4.384  16.681 -0.7061 -0.9895  1.2991
  636TIP3   OH223398   3.637   2.420   6.098  0.6560  0.2596 -0.2161
  636TIP3    H123399   3.729   2.408   6.122  0.0991  0.2019  2.1437
  636TIP3    H223400   3.588   2.373   6.167 -1.1380 -0.1712 -1.7056
  637TIP3   OH223401   0.283   6.275  12.120  0.0946 -0.1679 -0.1966
  637TIP3    H123402   0.207   6.330  12.137  0.7423  0.2595  1.5099
  637TIP3    H223403   0.262   6.191  12.161 -0.5146 -0.9439 -2.0060
  638TIP3   OH223404   5.165   1.801  15.349  0.3300  0.0824  0.3390
  638TIP3    H123405   5.126   1.740  15.286  0.1618  1.4229 -0.9186
  638TIP3    H223406   5.094   1.861  15.371  1.0654  1.1572 -0.1670
  639TIP3   OH223407   5.753   2.974   2.149 -0.1314 -0.5211  0.0608
  639TIP3    H123408   5.720   2.970   2.239 -0.8564 -1.8665 -0.2306
  639TIP3    H223409   5.845   2.949   2.157  0.1964  0.7784  0.5824
  640TIP3   OH223410   2.864   1.823   5.683 -0.8317 -0.3167  0.3542
  640TIP3    H123411   2.817   1.906   5.681  0.5841  0.5166  0.3052
  640TIP3    H223412   2.839   1.779   5.602  0.0839  1.0529 -0.7271
  641TIP3   OH223413   2.039   0.435   5.481  0.4537  0.3026 -0.3276
  641TIP3    H123414   2.077   0.514   5.520  1.3999 -0.6369  0.7223
  641TIP3    H223415   2.083   0.363   5.525 -0.8897 -0.8306 -0.7620
  642TIP3   OH223416   6.206   1.735   4.544  0.1365  0.4198  0.3693
  642TIP3    H123417   6.159   1.784   4.476  0.6007 -1.2232 -1.2054
  642TIP3    H223418   6.192   1.643   4.522  0.9582 -0.1545  2.0755
  643TIP3   OH223419   0.882   3.647   3.949  0.0210  0.3630 -0.3143
  643TIP3    H123420   0.805   3.591   3.942  0.1724 -0.2152  2.0978
  643TIP3    H223421   0.850   3.735   3.930 -1.7613  0.4661  2.6855
  644TIP3   OH223422   6.639   4.937  12.024  0.1594 -0.2704 -0.1837
  644TIP3    H123423   6.636   5.018  12.074  0.0758  0.3696 -1.1853
  644TIP3    H223424   6.550   4.927  11.989  0.4330 -0.2492 -0.8952
  645TIP3   OH223425   1.871   2.014   5.405 -0.1311  0.5058 -0.2827
  645TIP3    H123426   1.925   2.087   5.433  0.2507 -0.5749  1.9774
  645TIP3    H223427   1.781   2.041   5.426 -0.2052  1.0754 -1.2598
  646TIP3   OH223428   2.951   0.547   2.268 -0.0086  0.0635 -0.3468
  646TIP3    H123429   2.887   0.499   2.215 -0.5691  0.2040  0.1938
  646TIP3    H223430   3.033   0.498   2.257 -0.3568 -0.4790 -0.5386
  647TIP3   OH223431   0.944   4.473  16.048  0.4419  0.7416  0.0980
  647TIP3    H123432   0.852   4.500  16.055  0.3908  0.2863  1.3729
  647TIP3    H223433   0.993   4.549  16.078  0.4112  0.4602  0.8825
  648TIP3   OH223434   0.533   3.661  12.572 -0.7887 -0.0359 -0.2461
  648TIP3    H123435   0.557   3.571  12.553  1.1417  0.5938 -1.0087
  648TIP3    H223436   0.562   3.676  12.661 -1.4366 -0.2548  0.0078
  649TIP3   OH223437   5.148   6.417   3.702  0.7466  0.0369 -0.0570
  649TIP3    H123438   5.138   6.450   3.792  0.2598  0.1583 -0.1534
  649TIP3    H223439   5.233   6.451   3.674  1.8289 -1.6203  1.0334
  650TIP3   OH223440   1.443   1.339   0.045  0.1826  0.3518  0.0298
  650TIP3    H123441   1.489   1.402  -0.010 -0.3524  0.4414 -0.3215
  650TIP3    H223442   1.443   1.258  -0.005  0.6854  0.1199  0.3917
  651TIP3   OH223443   4.717   3.567  11.753  0.3391 -0.0196  0.3891
  651TIP3    H123444   4.782   3.515  11.801 -0.8812 -1.1310  0.8716
  651TIP3    H223445   4.647   3.506  11.733 -0.0365  0.8760 -1.1959
  652TIP3   OH223446   4.454   4.159   2.018 -0.3619  0.4146  0.1525
  652TIP3    H123447   4.474   4.167   2.111 -0.0483 -1.1980  0.2574
  652TIP3    H223448   4.430   4.067   2.006  2.5056 -0.2233 -1.8525
  653TIP3   OH223449   5.956   1.689   0.190  0.3722 -0.1947 -0.5618
  653TIP3    H123450   5.926   1.606   0.227  0.0927  0.5667  0.9844
  653TIP3    H223451   5.925   1.756   0.251  1.2084  1.0030 -1.3967
  654TIP3   OH223452   4.757   5.828   3.637  0.5408 -0.3493  0.0223
  654TIP3    H123453   4.800   5.896   3.585 -0.4271 -0.2994 -0.7572
  654TIP3    H223454   4.822   5.759   3.647  1.7580  0.9292  1.3530
  655TIP3   OH223455   3.126   0.037  15.148  0.4899  0.0160  0.3072
  655TIP3    H123456   3.058   0.032  15.080 -1.3053 -0.4321  2.0615
  655TIP3    H223457   3.092   0.100  15.211  1.2575 -0.9494  1.7216
  656TIP3   OH223458   3.848   4.025   0.807 -0.4322  0.4084  0.7612
  656TIP3    H123459   3.881   4.063   0.726 -2.0842  0.9704  0.3081
  656TIP3    H223460   3.867   3.932   0.800 -4.0989 -0.3383 -2.2252
  657TIP3   OH223461   1.723   4.881  14.913 -0.0546  0.2795  0.5298
  657TIP3    H123462   1.640   4.844  14.883  0.7671 -1.3277  0.1679
  657TIP3    H223463   1.698   4.937  14.987 -1.4064 -0.5924  0.7701
  658TIP3   OH223464   5.636   2.064   4.809  0.6191  0.0198 -0.1934
  658TIP3    H123465   5.590   2.057   4.892  2.4970 -0.3005  0.8701
  658TIP3    H223466   5.726   2.036   4.828  1.0143 -0.4509 -2.4075
  659TIP3   OH223467   0.571   0.777  15.772  0.3843  0.3452 -0.1381
  659TIP3    H123468   0.603   0.856  15.815 -0.7541 -0.0327  1.5214
  659TIP3    H223469   0.476   0.784  15.778  0.0945  0.5233 -3.1883
  660TIP3   OH223470   6.490   5.425   4.700 -0.3799 -0.2026 -0.2876
  660TIP3    H123471   6.565   5.382   4.740 -0.4333  0.8779  1.0729
  660TIP3    H223472   6.529   5.491   4.642 -0.2613  0.3569  0.4156
  661TIP3   OH223473   0.843   6.008   0.999  0.7831 -0.0779 -0.1619
  661TIP3    H123474   0.760   6.045   1.028  0.9776 -0.4061  0.8634
  661TIP3    H223475   0.906   6.036   1.065  1.3518 -0.4327 -0.5411
  662TIP3   OH223476   1.538   3.485  11.694 -0.7770 -0.5241 -1.3190
  662TIP3    H123477   1.516   3.541  11.620 -1.4056  0.1155 -0.6561
  662TIP3    H223478   1.460   3.431  11.707 -0.4077 -1.1247 -1.5577
  663TIP3   OH223479   4.089   4.685   0.308  0.6747  0.2152  0.1845
  663TIP3    H123480   4.126   4.769   0.278  0.1337  0.1001 -0.8334
  663TIP3    H223481   4.057   4.643   0.228 -1.2431  0.1002  0.9528
  664TIP3   OH223482   2.512   5.308   3.719 -0.1837  0.1085 -0.2440
  664TIP3    H123483   2.504   5.222   3.679 -1.1652 -0.2362  0.6355
  664TIP3    H223484   2.451   5.363   3.669  0.1517  0.1921 -0.5578
  665TIP3   OH223485   0.116   5.751  13.037  0.2236 -0.4681 -0.0317
  665TIP3    H123486   0.067   5.818  13.085 -0.4963 -1.2142  0.2981
  665TIP3    H223487   0.130   5.789  12.950 -1.5114 -0.4660 -0.3514
  666TIP3   OH223488   1.609   1.578   2.958 -0.1660 -0.1678  0.4648
  666TIP3    H123489   1.632   1.494   2.918 -0.7266 -0.3344  0.4802
  666TIP3    H223490   1.643   1.644   2.898  0.6009 -0.3981  0.6332
  667TIP3   OH223491   1.353   5.744  16.315  0.2115  0.2087  0.7839
  667TIP3    H123492   1.259   5.734  16.304  0.3634 -1.9042  1.0403
  667TIP3    H223493   1.368   5.739  16.409  0.7555 -2.2455  0.6549
  668TIP3   OH223494   5.250   3.223  13.644  0.0021  0.5440  0.2060
  668TIP3    H123495   5.164   3.263  13.651 -0.7345 -0.6930 -1.1789
  668TIP3    H223496   5.235   3.130  13.659  1.0530  0.2738 -0.3073
  669TIP3   OH223497   5.260   6.733  11.300 -0.1316  0.3587 -0.0255
  669TIP3    H123498   5.197   6.731  11.372  0.0333  0.2913  0.1141
  669TIP3    H223499   5.288   6.642  11.289  0.9949  0.5913  0.8188
  670TIP3   OH223500   3.297   0.039   4.648 -0.0064 -0.0666  0.2621
  670TIP3    H123501   3.284   0.107   4.582 -0.3174 -0.4223 -0.0530
  670TIP3    H223502   3.388   0.048   4.675 -0.4860  1.6024  1.5103
  671TIP3   OH223503   4.399   3.525  13.421 -0.8668 -0.4053 -0.4260
  671TIP3    H123504   4.478   3.475  13.403 -0.1541  0.4008  0.3876
  671TIP3    H223505   4.427   3.617  13.419 -1.1010 -0.1635  2.8046
  672TIP3   OH223506   2.546   6.336  12.398  0.1874 -0.2196 -0.0570
  672TIP3    H123507   2.476   6.385  12.441 -0.7732 -0.5173 -1.2189
  672TIP3    H223508   2.519   6.244  12.406 -0.2953 -0.2567 -1.7024
  673TIP3   OH223509   4.607   6.162  16.703 -0.0086  0.6786 -0.0184
  673TIP3    H123510   4.588   6.217  16.779  1.9279 -0.4436  1.3732
  673TIP3    H223511   4.524   6.120  16.682 -0.0866 -1.0162  3.2098
  674TIP3   OH223512   6.750   4.130   4.720 -0.1215  0.4737  0.3824
  674TIP3    H123513   6.812   4.067   4.755 -0.4028  1.0672  2.0428
  674TIP3    H223514   6.667   4.083   4.717  0.4009 -0.4146 -2.1231
  675TIP3   OH223515   1.467   3.159   3.469  0.2014 -0.3882  0.4266
  675TIP3    H123516   1.452   3.079   3.519  0.6526 -0.9099 -0.2589
  675TIP3    H223517   1.537   3.137   3.408  0.1337  0.4440  0.0303
  676TIP3   OH223518   0.022   1.567  13.151  0.4419  0.1690  0.1763
  676TIP3    H123519  -0.038   1.530  13.086 -1.4868  2.6007  0.4615
  676TIP3    H223520   0.013   1.511  13.228 -2.0657  0.8596  0.4505
  677TIP3   OH223521   5.226   6.128   3.273 -0.4123  0.5020  0.0031
  677TIP3    H123522   5.253   6.045   3.310  0.3173  1.0347  0.6901
  677TIP3    H223523   5.144   6.150   3.319  0.9967  1.6532  2.1447
  678TIP3   OH223524   1.174   6.731  13.833  0.3295 -0.1430 -0.5274
  678TIP3    H123525   1.186   6.669  13.905 -1.0868 -1.9069 -1.6917
  678TIP3    H223526   1.081   6.750  13.833  0.2847 -0.2617 -1.9191
  679TIP3   OH223527   2.081   4.194  15.108  0.4835 -0.3073  0.0277
  679TIP3    H123528   2.009   4.141  15.073  1.2983 -0.8904 -0.8322
  679TIP3    H223529   2.120   4.140  15.176 -0.7084  0.5699  1.4591
  680TIP3   OH223530   5.662   1.441   5.192 -0.0578  0.1593  0.2699
  680TIP3    H123531   5.689   1.502   5.124 -0.3272 -1.9464 -1.8800
  680TIP3    H223532   5.614   1.373   5.146 -0.6779 -1.1598  2.6652
  681TIP3   OH223533   2.883   2.426  11.417 -0.1155 -0.0408 -0.2217
  681TIP3    H123534   2.797   2.449  11.381 -0.0967  1.5580  0.6336
  681TIP3    H223535   2.892   2.482  11.494  2.2523  0.7975 -1.0155
  682TIP3   OH223536   0.259   2.043   3.551 -0.8092 -0.2980  0.1337
  682TIP3    H123537   0.224   2.120   3.596 -0.4691  0.3842 -0.7475
  682TIP3    H223538   0.182   1.989   3.533 -1.1567  0.2424 -0.0181
  683TIP3   OH223539   5.429   3.357  16.436  0.4956 -0.0555  0.1750
  683TIP3    H123540   5.511   3.406  16.428  0.6685 -0.4771 -0.6771
  683TIP3    H223541   5.455   3.271  16.470  0.3191  0.0387  0.5652
  684TIP3   OH223542   6.181   0.596  12.335 -0.0592 -0.7126 -0.0519
  684TIP3    H123543   6.223   0.680  12.314 -0.4986 -0.5439 -0.2748
  684TIP3    H223544   6.212   0.536  12.267 -0.1728 -0.5906 -0.2120
  685TIP3   OH223545   1.488   5.161  13.844 -0.0056 -0.2259  0.1474
  685TIP3    H123546   1.578   5.185  13.818 -0.5879  1.4126 -0.5147
  685TIP3    H223547   1.437   5.241  13.829 -1.5644 -1.0871  0.6412
  686TIP3   OH223548   5.633   2.775   0.805  0.2531 -0.1273  0.2446
  686TIP3    H123549   5.614   2.849   0.863  2.0907 -0.0899  0.8414
  686TIP3    H223550   5.625   2.811   0.717  1.1266  0.7981  0.5280
  687TIP3   OH223551   1.008   0.284   6.087 -0.4734 -0.3919 -0.0124
  687TIP3    H123552   0.944   0.310   6.153 -0.4592  1.0339 -0.5253
  687TIP3    H223553   0.956   0.272   6.008 -0.0113  2.2862 -0.8317
  688TIP3   OH223554   5.419   0.236   3.642 -0.1925 -0.4709  0.2727
  688TIP3    H123555   5.369   0.246   3.561  0.9319 -0.9727 -0.5094
  688TIP3    H223556   5.494   0.180   3.618  1.2790  1.0163  1.1490
  689TIP3   OH223557   3.315   3.401   2.714  0.1928  0.1614  0.0778
  689TIP3    H123558   3.391   3.366   2.667 -0.3875 -1.0271  0.0032
  689TIP3    H223559   3.315   3.356   2.798 -1.1679 -0.8411 -0.4296
  690TIP3   OH223560   3.162   6.424  14.621 -0.9468  0.3323 -0.1582
  690TIP3    H123561   3.072   6.454  14.636 -1.5030 -1.6279  0.8475
  690TIP3    H223562   3.163   6.336  14.658  1.2528  0.1010 -0.6780
  691TIP3   OH223563   6.453   0.169  15.126 -0.5684  0.1833 -0.2388
  691TIP3    H123564   6.477   0.083  15.162 -0.8946  0.1781 -0.0280
  691TIP3    H223565   6.396   0.207  15.193 -1.6917 -0.0850 -1.0156
  692TIP3   OH223566   3.460   4.171   3.234  0.1496  0.3757  0.3016
  692TIP3    H123567   3.461   4.119   3.314 -1.3910  0.9943  0.7512
  692TIP3    H223568   3.376   4.217   3.236  0.2630  0.7262 -1.4648
  693TIP3   OH223569   6.230   2.808  14.233 -0.4106  0.2711 -0.4654
  693TIP3    H123570   6.139   2.779  14.232 -0.1558 -0.8051 -3.3248
  693TIP3    H223571   6.234   2.877  14.166  0.7242  0.9027  0.2121
  694TIP3   OH223572   4.215   1.460  16.202 -0.1120  0.2637  0.0934
  694TIP3    H123573   4.223   1.391  16.268 -2.9788 -1.3439 -1.0692
  694TIP3    H223574   4.279   1.436  16.135  1.0110  0.4819  1.0401
  695TIP3   OH223575   1.085   5.002   3.968  0.5191 -0.5540 -0.2212
  695TIP3    H123576   1.035   5.077   3.935  2.3433  1.6424  1.6045
  695TIP3    H223577   1.033   4.967   4.040 -0.2276 -0.9042 -0.9207
  696TIP3   OH223578   2.327   3.518  12.662 -0.2297  0.4487  0.0806
  696TIP3    H123579   2.422   3.513  12.673 -0.4252  0.0842  2.2121
  696TIP3    H223580   2.303   3.435  12.620  0.5312  1.3439 -2.2485
  697TIP3   OH223581   5.787   2.407  14.593  0.4519  0.0883 -0.0828
  697TIP3    H123582   5.728   2.402  14.519  0.6481  0.8491 -0.3017
  697TIP3    H223583   5.869   2.368  14.562 -0.2203 -1.9764  0.5590
  698TIP3   OH223584   0.788   5.114  12.483 -0.2940  0.3159 -0.1092
  698TIP3    H123585   0.837   5.065  12.417  0.8875 -0.4469  1.2790
  698TIP3    H223586   0.801   5.065  12.564  0.0293  2.3261  1.1277
  699TIP3   OH223587   2.432   1.798   3.234 -0.3373  0.2496  0.4288
  699TIP3    H123588   2.444   1.746   3.314 -2.6503 -1.7776 -0.3983
  699TIP3    H223589   2.361   1.858   3.255  0.2684  0.9837  0.4206
  700TIP3   OH223590   3.062   0.006  14.136  0.0231 -0.0042 -0.0468
  700TIP3    H123591   2.996   0.057  14.090 -0.7466 -1.1874 -0.3024
  700TIP3    H223592   3.105  -0.046  14.068 -0.0757 -0.6269  0.3567
  701TIP3   OH223593   5.624   0.880  17.292  0.2999 -0.3235 -0.2258
  701TIP3    H123594   5.623   0.941  17.366 -0.0851 -1.3203  0.6239
  701TIP3    H223595   5.665   0.928  17.221 -0.1028  0.9619  0.3858
  702TIP3   OH223596   1.238   2.669   5.550 -0.9095 -0.1517  0.1229
  702TIP3    H123597   1.225   2.605   5.620 -0.3968 -0.6708 -0.2447
  702TIP3    H223598   1.221   2.754   5.592 -1.6023 -0.5221  0.6135
  703TIP3   OH223599   4.745   5.548   3.404 -0.4748  0.4479 -0.2187
  703TIP3    H123600   4.662   5.575   3.443 -0.6138  0.8272 -0.7750
  703TIP3    H223601   4.723   5.472   3.350 -0.4026  0.3579 -0.1232
  704TIP3   OH223602   3.804   5.386   3.510 -0.6183 -0.6459 -0.4345
  704TIP3    H123603   3.739   5.335   3.461 -1.3423 -2.8793  2.5166
  704TIP3    H223604   3.752   5.445   3.564  0.0377  0.3002 -0.8228
  705TIP3   OH223605   2.508   0.319   1.625  0.3235 -0.5861 -1.2629
  705TIP3    H123606   2.431   0.363   1.590  0.7182 -0.5332 -2.0886
  705TIP3    H223607   2.480   0.229   1.639 -1.2968  0.3432  2.8989
  706TIP3   OH223608   3.487   0.679   4.409  0.2332 -0.0331  0.0269
  706TIP3    H123609   3.554   0.654   4.473 -0.7583 -1.0147  0.7232
  706TIP3    H223610   3.462   0.597   4.367 -0.4787  0.3261 -0.2694
  707TIP3   OH223611   3.403   4.090   0.453  0.0935 -0.1975  0.3255
  707TIP3    H123612   3.402   4.101   0.548 -0.4872  0.6199  0.2377
  707TIP3    H223613   3.428   3.999   0.440  1.6210  0.0691  1.2222
  708TIP3   OH223614   4.721   2.447   6.018  0.5037  0.2346 -0.7442
  708TIP3    H123615   4.718   2.431   6.112 -1.7855  1.6350 -0.5030
  708TIP3    H223616   4.721   2.360   5.978  2.7266 -0.4104  0.4768
  709TIP3   OH223617   4.617   2.495  13.864 -0.1964  0.3290  0.0795
  709TIP3    H123618   4.703   2.530  13.839  0.3776 -0.7098  0.5573
  709TIP3    H223619   4.575   2.566  13.913  0.4825  0.7588  0.0412
  710TIP3   OH223620   1.220   3.298  14.871 -0.1256  0.6133 -0.0848
  710TIP3    H123621   1.243   3.349  14.949  2.8631 -2.2902  1.1644
  710TIP3    H223622   1.303   3.259  14.842 -1.4807 -0.1390 -3.5192
  711TIP3   OH223623   4.581   3.334  13.334  0.3140  0.3746  0.1173
  711TIP3    H123624   4.556   3.304  13.247  0.3938  0.0731  0.1976
  711TIP3    H223625   4.677   3.338  13.331  0.2746  2.6209 -0.5602
  712TIP3   OH223626   5.788   1.894   1.439 -0.0964 -0.0283  0.4040
  712TIP3    H123627   5.854   1.853   1.494  1.0057 -0.4116 -1.1400
  712TIP3    H223628   5.812   1.987   1.438  1.2177 -0.3524 -1.1581
  713TIP3   OH223629   5.501   4.811  15.152 -0.0867  0.6926  0.4342
  713TIP3    H123630   5.491   4.905  15.170  1.6641  0.7767  1.2382
  713TIP3    H223631   5.568   4.808  15.083  1.9042  0.0170  2.2803
  714TIP3   OH223632   2.483   6.068   2.214  0.3810  0.0268 -0.2461
  714TIP3    H123633   2.560   6.012   2.218  1.5875  1.6248 -0.0768
  714TIP3    H223634   2.473   6.102   2.302 -0.2461  0.1927 -0.3774
  715TIP3   OH223635   1.607   2.684   0.902  0.0448 -0.3003 -0.7342
  715TIP3    H123636   1.654   2.742   0.961  0.2727 -1.9966  0.8417
  715TIP3    H223637   1.521   2.724   0.892  1.3553  2.3674 -2.9222
  716TIP3   OH223638   0.597   1.149  15.679 -0.6728 -0.4554  0.2799
  716TIP3    H123639   0.630   1.077  15.626 -0.8140 -0.7855  0.6340
  716TIP3    H223640   0.548   1.204  15.618  0.3611 -0.0566 -0.2181
  717TIP3   OH223641   5.792   4.297   5.411 -0.4434 -0.5501 -0.2113
  717TIP3    H123642   5.816   4.338   5.328  1.4602  0.9703  1.0100
  717TIP3    H223643   5.710   4.339   5.436 -0.4369 -0.2003 -0.7728
  718TIP3   OH223644   2.409   2.719  13.830  0.0351 -0.6359  0.1953
  718TIP3    H123645   2.401   2.805  13.789 -1.8240 -1.2356 -0.7940
  718TIP3    H223646   2.501   2.714  13.856  0.2286  1.5639  0.1257
  719TIP3   OH223647   0.569   1.479  15.117  0.6180  0.1941 -0.0278
  719TIP3    H123648   0.645   1.475  15.176  1.1547  1.2135 -0.6265
  719TIP3    H223649   0.605   1.505  15.033 -0.2704 -0.3490 -0.5915
  720TIP3   OH223650   4.742   4.514  13.698  0.0611  0.3064  0.4071
  720TIP3    H123651   4.701   4.601  13.690 -0.7845 -0.0745  0.4437
  720TIP3    H223652   4.682   4.465  13.755  0.8609 -0.1048  0.9073
  721TIP3   OH223653   3.700   2.238  17.273 -0.3679 -0.1919  0.3727
  721TIP3    H123654   3.648   2.310  17.308  0.5398  0.6787 -0.0029
  721TIP3    H223655   3.748   2.204  17.348 -1.2291 -0.7900  0.6587
  722TIP3   OH223656   0.532   6.242  13.659  0.0773  0.2256  0.1624
  722TIP3    H123657   0.573   6.262  13.743  1.3919  0.9127 -0.6017
  722TIP3    H223658   0.551   6.318  13.604 -2.4824  0.6907 -0.1820
  723TIP3   OH223659   3.147   4.562   1.943 -0.0638  0.0841 -0.3491
  723TIP3    H123660   3.171   4.654   1.941  1.1132 -0.2013 -0.7572
  723TIP3    H223661   3.060   4.558   1.904 -1.0419  1.2375  1.5763
  724TIP3   OH223662   2.076   3.289  13.176 -0.0356 -0.6942  0.0772
  724TIP3    H123663   2.162   3.317  13.146 -0.7263 -1.0826 -2.5223
  724TIP3    H223664   2.014   3.344  13.128 -1.2580 -1.5605  0.6059
  725TIP3   OH223665   5.447   1.492  15.066  0.4069 -0.2170 -0.0723
  725TIP3    H123666   5.364   1.525  15.100  0.1365 -1.4521  0.5189
  725TIP3    H223667   5.477   1.561  15.006 -0.7494  0.5083  0.1409
  726TIP3   OH223668   0.363   0.632   2.329  0.2061  0.4571  0.1962
  726TIP3    H123669   0.358   0.568   2.259 -0.1653  1.3165 -0.5748
  726TIP3    H223670   0.450   0.620   2.367  0.0185 -0.7103  0.2799
  727TIP3   OH223671   5.430   3.619   3.545 -0.3236 -0.7098 -0.9250
  727TIP3    H123672   5.514   3.590   3.579 -0.8392 -0.1517  0.9151
  727TIP3    H223673   5.452   3.676   3.472  1.0619  1.4880  1.0650
  728TIP3   OH223674   1.284   0.112  11.212 -0.0614 -0.3872 -0.3946
  728TIP3    H123675   1.352   0.071  11.157  0.9477 -0.0017  0.5291
  728TIP3    H223676   1.260   0.191  11.164  0.7977 -0.0624 -0.3155
  729TIP3   OH223677   0.520   3.578   5.048 -0.1965  0.2275  0.1950
  729TIP3    H123678   0.545   3.629   4.970  2.8120  0.4794  1.2123
  729TIP3    H223679   0.547   3.633   5.122  0.9444 -1.7867  1.3462
  730TIP3   OH223680   4.299   2.487   1.147  0.5718 -0.2318  0.2925
  730TIP3    H123681   4.223   2.473   1.205 -0.1652  0.5296 -0.4542
  730TIP3    H223682   4.369   2.436   1.187 -0.7282 -2.2155  0.1944
  731TIP3   OH223683   0.769   1.095  16.414 -0.0888  0.0265 -0.0682
  731TIP3    H123684   0.794   1.181  16.380 -0.1409  0.9723  2.1579
  731TIP3    H223685   0.678   1.085  16.386  0.5583 -0.3174 -2.2041
  732TIP3   OH223686   4.668   6.318   0.620  0.2583 -0.1379 -0.1221
  732TIP3    H123687   4.604   6.314   0.549  0.4801 -1.1932 -0.2776
  732TIP3    H223688   4.617   6.345   0.697  0.1217  1.5785 -0.7746
  733TIP3   OH223689   1.814   4.187   4.682  0.1966 -0.4723  0.4407
  733TIP3    H123690   1.890   4.235   4.712 -0.9533  1.0927  0.9697
  733TIP3    H223691   1.772   4.245   4.618 -0.5763 -1.2883  0.1778
  734TIP3   OH223692   2.816   1.475  12.414  0.7185  0.2320  0.2823
  734TIP3    H123693   2.724   1.455  12.426  0.5295  0.6732 -0.3369
  734TIP3    H223694   2.832   1.459  12.321  1.0212  1.0826  0.1762
  735TIP3   OH223695   5.751   2.819  15.171 -0.2989 -0.1085 -0.7418
  735TIP3    H123696   5.772   2.901  15.128  0.9456  0.3684  0.6885
  735TIP3    H223697   5.809   2.815  15.247 -1.9285 -1.2024  0.5512
  736TIP3   OH223698   4.271   4.515  10.995  0.5036 -0.7722  0.5083
  736TIP3    H123699   4.313   4.435  10.964 -1.7445 -2.0052  0.4202
  736TIP3    H223700   4.181   4.510  10.961 -0.2020  0.9296  1.9594
  737TIP3   OH223701   2.831   1.689   2.483 -0.2681 -0.0680 -0.1207
  737TIP3    H123702   2.888   1.647   2.548  0.1477  0.1532 -0.3378
  737TIP3    H223703   2.771   1.742   2.536 -0.0209  0.0022  0.0948
  738TIP3   OH223704   2.569   2.087   3.572 -0.2152  0.5023 -0.2810
  738TIP3    H123705   2.597   2.049   3.488 -0.1948  0.2819 -0.1731
  738TIP3    H223706   2.637   2.061   3.634 -1.1457 -0.8859  0.2078
  739TIP3   OH223707   3.863   4.923   0.058 -0.1978  0.0420 -0.1995
  739TIP3    H123708   3.831   4.840   0.020 -0.3229  0.1439 -0.3187
  739TIP3    H223709   3.923   4.958  -0.008  0.6415 -0.4538  0.2955
  740TIP3   OH223710   2.586   3.153  14.389  0.6831 -0.0314 -0.0199
  740TIP3    H123711   2.511   3.182  14.337  0.6589  1.8204  0.9846
  740TIP3    H223712   2.562   3.065  14.419 -0.4040 -0.0887 -0.9787
  741TIP3   OH223713   5.763   5.925  17.013  0.8167 -0.1957  0.3218
  741TIP3    H123714   5.850   5.901  17.045  1.0827  1.8415  1.3367
  741TIP3    H223715   5.780   5.975  16.932  0.3929 -1.9155 -0.8713
  742TIP3   OH223716   2.441   5.458   0.166 -0.1362  0.3132 -0.3918
  742TIP3    H123717   2.401   5.533   0.121 -2.0788 -0.2021  0.3867
  742TIP3    H223718   2.502   5.422   0.102 -1.0899  1.0143 -1.7508
  743TIP3   OH223719   4.858   5.746  12.682 -0.5632 -0.2476  0.0924
  743TIP3    H123720   4.924   5.715  12.620  0.8326  1.2110  0.7796
  743TIP3    H223721   4.893   5.723  12.768 -0.6289  1.0786  0.4949
  744TIP3   OH223722   2.894   6.777   4.823 -0.1074 -0.2976 -0.3006
  744TIP3    H123723   2.851   6.729   4.751 -0.0573 -0.2544 -0.3598
  744TIP3    H223724   2.916   6.862   4.785 -0.6251 -0.0465 -0.0532
  745TIP3   OH223725   0.468   5.824  13.242  0.4949 -0.6502  0.4595
  745TIP3    H123726   0.440   5.861  13.158  0.2453 -0.2174  0.7247
  745TIP3    H223727   0.415   5.745  13.252 -0.2465 -0.1465  0.6826
  746TIP3   OH223728   5.949   2.251  10.762 -0.2445  0.0450  0.2388
  746TIP3    H123729   5.908   2.217  10.682  0.8258  2.1206 -1.2758
  746TIP3    H223730   6.026   2.298  10.731  0.1707  0.9650  2.5065
  747TIP3   OH223731   3.963   2.477   3.566  0.2856  0.2753 -0.1829
  747TIP3    H123732   3.948   2.382   3.564 -0.9545  0.3586  2.0956
  747TIP3    H223733   4.038   2.490   3.508 -0.7995 -1.8108 -2.2562
  748TIP3   OH223734   1.996   5.470   6.575  0.2424 -0.2566 -0.4398
  748TIP3    H123735   2.043   5.553   6.570 -0.0423 -0.0428  0.3146
  748TIP3    H223736   1.903   5.496   6.574  0.1537 -0.5642 -0.2538
  749TIP3   OH223737   4.952   4.080   3.464  0.0146 -0.3047  0.2100
  749TIP3    H123738   4.961   3.985   3.465  2.0638 -0.1557 -0.2324
  749TIP3    H223739   4.996   4.107   3.384 -0.0975  1.0648  0.5910
  750TIP3   OH223740   5.957   3.373  15.597 -0.3863  0.0062  0.0881
  750TIP3    H123741   6.043   3.346  15.564 -0.2013 -1.0194  1.3330
  750TIP3    H223742   5.900   3.299  15.577 -1.7019  1.7301 -3.1954
  751TIP3   OH223743   1.014   1.901  16.413  0.0296  0.3916  0.4553
  751TIP3    H123744   0.937   1.862  16.455  0.5893  0.1814  1.3126
  751TIP3    H223745   1.062   1.826  16.378  0.7021  0.3595  1.4119
  752TIP3   OH223746   6.245   2.050   5.220  0.0473  0.2436  0.2579
  752TIP3    H123747   6.286   2.048   5.306 -0.5084 -2.3163  0.5294
  752TIP3    H223748   6.194   2.131   5.220 -1.8823 -0.8079  3.3275
  753TIP3   OH223749   3.326   5.264  14.205  0.7012  0.1173  0.0784
  753TIP3    H123750   3.419   5.242  14.204  0.6995  0.1104 -0.3200
  753TIP3    H223751   3.284   5.194  14.255  0.8934  0.0568  0.1548
  754TIP3   OH223752   0.137   5.039  14.703  0.6472  0.1341 -0.0866
  754TIP3    H123753   0.195   5.093  14.649 -0.6317 -0.3709 -2.0768
  754TIP3    H223754   0.057   5.092  14.712  0.2196 -0.4940 -0.1486
  755TIP3   OH223755   0.835   5.163  10.878  0.5263  0.1067 -0.1378
  755TIP3    H123756   0.768   5.159  10.810 -0.3926 -0.6300  0.7774
  755TIP3    H223757   0.892   5.088  10.860 -1.8161 -2.3891  1.9408
  756TIP3   OH223758   4.362   5.487  15.121  1.1401  0.0522 -0.3852
  756TIP3    H123759   4.288   5.546  15.133  1.0193 -0.1044 -0.3441
  756TIP3    H223760   4.385   5.458  15.210  0.7019 -0.5579 -0.4679
  757TIP3   OH223761   4.450   3.626   2.159  0.2913  0.1444  0.0394
  757TIP3    H123762   4.513   3.684   2.203  2.0376 -1.9151  0.4425
  757TIP3    H223763   4.439   3.553   2.221  0.2976 -1.2579 -1.5547
  758TIP3   OH223764   2.249   4.068  13.519  0.4452 -0.0783 -0.0615
  758TIP3    H123765   2.187   4.041  13.450  0.2239  0.5646 -0.1168
  758TIP3    H223766   2.288   4.148  13.486  1.0439 -0.2814  0.1442
  759TIP3   OH223767   4.292   0.151  14.852 -0.4251  0.2782 -0.1768
  759TIP3    H123768   4.263   0.217  14.915  0.8242 -0.2372  0.9825
  759TIP3    H223769   4.220   0.088  14.849 -0.3627  0.1263  1.0287
  760TIP3   OH223770   5.636   5.074   0.013 -0.4223  0.5462 -0.5500
  760TIP3    H123771   5.658   5.075  -0.080 -0.4757  1.2065 -0.5611
  760TIP3    H223772   5.608   5.164   0.032  0.4055  0.6463  0.2976
  761TIP3   OH223773   0.960   5.647  14.005 -0.0555  0.1023  0.2535
  761TIP3    H123774   0.954   5.644  13.910  0.0930  0.2931  0.2370
  761TIP3    H223775   1.049   5.677  14.022  0.2694 -0.9217  0.4669
  762TIP3   OH223776   2.204   5.266   1.455 -0.1564  0.0381 -0.0623
  762TIP3    H123777   2.144   5.323   1.503 -1.2856 -0.3205 -0.9872
  762TIP3    H223778   2.205   5.302   1.366  1.5795  0.4587  0.1006
  763TIP3   OH223779   3.454   0.465  13.236  0.1025 -0.2942 -0.4132
  763TIP3    H123780   3.386   0.532  13.227  0.0556 -0.1584  0.8343
  763TIP3    H223781   3.517   0.502  13.298  0.0555 -1.4019  0.3327
  764TIP3   OH223782   4.898   1.831   2.108 -0.2893 -0.0182  0.6565
  764TIP3    H123783   4.813   1.803   2.075 -0.3664 -0.0422  0.8742
  764TIP3    H223784   4.891   1.820   2.203 -0.6563  1.6001  0.8485
  765TIP3   OH223785   3.004   0.568  12.218 -0.6904 -0.5809 -0.1138
  765TIP3    H123786   2.937   0.519  12.171 -0.6094 -2.4854  1.5898
  765TIP3    H223787   3.023   0.643  12.162 -2.2397 -1.4654 -1.9461
  766TIP3   OH223788   4.240   5.820   5.613  0.2831 -0.0420  0.1009
  766TIP3    H123789   4.233   5.775   5.697 -1.0763  0.9933  0.5813
  766TIP3    H223790   4.152   5.814   5.576  0.7440 -0.0405 -1.0281
  767TIP3   OH223791   4.876   1.445  16.309  0.3055  0.4949  0.1663
  767TIP3    H123792   4.818   1.369  16.316  1.1350 -0.1811 -0.0812
  767TIP3    H223793   4.935   1.423  16.237  0.6982  1.2873  0.2385
  768TIP3   OH223794   2.557   3.033   4.152  0.3675 -0.1060  0.1046
  768TIP3    H123795   2.512   2.968   4.097 -3.8288  2.5142  0.0849
  768TIP3    H223796   2.596   3.094   4.089  1.1414 -0.5590  0.1285
  769TIP3   OH223797   0.030   5.821  11.705  0.1616 -0.5342 -0.2133
  769TIP3    H123798   0.023   5.731  11.736  0.3253  0.0569  1.6768
  769TIP3    H223799   0.124   5.840  11.709  0.1661 -0.3901 -0.9553
  770TIP3   OH223800   6.321   5.922   3.679 -0.6306 -0.2773 -0.0863
  770TIP3    H123801   6.406   5.882   3.661  1.1235  2.5624  1.2623
  770TIP3    H223802   6.295   5.887   3.764  1.1136  1.6036  1.3072
  771TIP3   OH223803   3.879   5.284  12.194  0.0410 -0.0329 -0.5087
  771TIP3    H123804   3.909   5.374  12.184  0.8526 -0.3847 -1.4865
  771TIP3    H223805   3.795   5.281  12.149 -0.3229  0.3958  0.1333
  772TIP3   OH223806   4.609   0.515   1.271  0.2209  1.0800  0.0556
  772TIP3    H123807   4.700   0.492   1.284  0.4083  2.6260  1.8026
  772TIP3    H223808   4.587   0.479   1.185  2.2147 -0.0251 -0.0339
  773TIP3   OH223809   2.881   4.527   1.871 -0.2300  0.1706  0.2424
  773TIP3    H123810   2.872   4.511   1.777 -1.8553  1.7193  0.0924
  773TIP3    H223811   2.876   4.440   1.910 -3.1712 -0.2953 -0.8954
  774TIP3   OH223812   2.133   4.138   5.594 -0.3070 -0.1879  0.0742
  774TIP3    H123813   2.053   4.092   5.617 -0.4044 -0.3030 -0.4888
  774TIP3    H223814   2.199   4.105   5.655  0.0276 -2.2915 -1.3189
  775TIP3   OH223815   0.342   6.585  14.839  0.4644 -0.4621 -0.1611
  775TIP3    H123816   0.422   6.633  14.859  1.9030 -2.7547 -0.0410
  775TIP3    H223817   0.333   6.523  14.911 -2.7037  1.1215  0.9995
  776TIP3   OH223818   0.257   1.440   2.317  0.4358  0.0952 -0.1235
  776TIP3    H123819   0.181   1.498   2.313  1.8273  2.0331  0.3195
  776TIP3    H223820   0.222   1.357   2.351 -1.8758  0.1291 -2.1625
  777TIP3   OH223821   4.543   5.700  15.387 -0.0074 -0.0604  0.4067
  777TIP3    H123822   4.585   5.723  15.304 -0.7432  1.2363  0.3626
  777TIP3    H223823   4.449   5.699  15.366 -0.1814  0.0194  1.1706
  778TIP3   OH223824   4.424   5.307  14.929 -0.8747 -0.3335  0.2693
  778TIP3    H123825   4.516   5.279  14.934 -0.7102 -0.1482 -1.3902
  778TIP3    H223826   4.419   5.380  14.991  0.7564  1.3179 -1.4182
  779TIP3   OH223827   1.860   1.424  14.307 -0.2821 -0.1324  0.6586
  779TIP3    H123828   1.857   1.477  14.387  0.0821  1.1264 -0.1279
  779TIP3    H223829   1.896   1.483  14.241  0.3488 -1.4512 -0.2140
  780TIP3   OH223830   4.214   0.909  13.318 -0.2197 -1.0946 -0.6066
  780TIP3    H123831   4.255   0.829  13.288  0.9203 -2.1668  3.1999
  780TIP3    H223832   4.140   0.922  13.259  1.0367 -3.4748 -2.9058
  781TIP3   OH223833   1.435   5.245  14.340  0.1932 -0.8183  0.1635
  781TIP3    H123834   1.365   5.194  14.380  1.4801 -2.6037  0.2591
  781TIP3    H223835   1.491   5.180  14.299  1.3103  0.6350 -0.7029
  782TIP3   OH223836   6.506   4.400   2.206  0.2881 -0.2791  0.2728
  782TIP3    H123837   6.581   4.375   2.259  1.0766  0.0274 -0.6765
  782TIP3    H223838   6.463   4.470   2.255  1.7073  0.8550 -0.0524
  783TIP3   OH223839   4.034   1.384   2.924  0.6960  0.4180  1.0348
  783TIP3    H123840   4.016   1.319   2.992  1.1640  0.9170  1.6359
  783TIP3    H223841   4.120   1.360   2.890  0.5540  0.2949  0.7614
  784TIP3   OH223842   3.098   0.923   1.739  0.1283 -0.4609  0.1682
  784TIP3    H123843   3.120   0.879   1.821 -0.8675 -0.9714  0.1753
  784TIP3    H223844   3.101   1.016   1.761  1.4234 -0.5249  0.3631
  785TIP3   OH223845   3.615   3.862   2.006 -0.0666 -0.3079 -0.2890
  785TIP3    H123846   3.560   3.902   2.074 -0.5535  0.5693 -1.1742
  785TIP3    H223847   3.643   3.779   2.044 -0.3142  0.1626  0.9897
  786TIP3   OH223848   2.907   0.120  12.399 -0.3588 -0.1982  0.0055
  786TIP3    H123849   2.843   0.190  12.393 -0.6421 -0.4603 -0.0572
  786TIP3    H223850   2.863   0.051  12.448  0.1895 -0.0338  0.7537
  787TIP3   OH223851   5.045   6.288   3.963  0.4596 -0.0750 -0.5212
  787TIP3    H123852   5.025   6.201   4.000 -0.7005 -0.5555 -2.1982
  787TIP3    H223853   4.989   6.348   4.011  0.4754 -0.3935 -0.0979
  788TIP3   OH223854   4.305   6.375  11.597 -0.6424  0.7092  0.4489
  788TIP3    H123855   4.343   6.463  11.595  0.4123  0.2584 -0.5271
  788TIP3    H223856   4.259   6.370  11.681  0.0775  1.8638  0.9297
  789TIP3   OH223857   2.389   2.576   0.944  0.4016 -0.1234 -0.3022
  789TIP3    H123858   2.443   2.517   0.891 -0.9969 -1.5007 -0.2601
  789TIP3    H223859   2.392   2.659   0.896 -0.2520 -1.1342 -2.2396
  790TIP3   OH223860   2.862   4.730   2.125  0.6397  0.5026  0.3278
  790TIP3    H123861   2.918   4.713   2.200  0.0173 -0.7728  0.5312
  790TIP3    H223862   2.903   4.683   2.052  1.1091  1.5316 -0.0911
  791TIP3   OH223863   6.492   2.267  13.705 -0.2526 -0.0693 -0.2604
  791TIP3    H123864   6.548   2.259  13.782 -1.8227  0.6351  1.0153
  791TIP3    H223865   6.510   2.354  13.671  2.0013 -1.1438 -2.0284
  792TIP3   OH223866   2.844   3.838   1.178 -0.3570  0.2822 -0.2395
  792TIP3    H123867   2.800   3.886   1.247  0.2455  1.5127 -0.6845
  792TIP3    H223868   2.877   3.759   1.221 -0.0684  0.9759  0.8514
  793TIP3   OH223869   1.795   5.769  16.352  0.5649  1.1060  0.8227
  793TIP3    H123870   1.775   5.783  16.259 -0.7137  0.2393  0.9531
  793TIP3    H223871   1.817   5.857  16.384 -1.5153  1.8922  0.2816
  794TIP3   OH223872   4.876   2.603  13.082 -0.3898  0.4949  0.1435
  794TIP3    H123873   4.960   2.610  13.036 -0.9010 -2.4725 -1.5476
  794TIP3    H223874   4.900   2.592  13.174  0.9330  1.8879  0.0032
  795TIP3   OH223875   6.710   2.518   1.588 -0.3284 -0.3106  0.2112
  795TIP3    H123876   6.640   2.559   1.538  0.8612 -0.6580 -1.8972
  795TIP3    H223877   6.703   2.555   1.676 -2.3398  0.5959 -0.2851
  796TIP3   OH223878   2.908   0.950  11.671 -0.3087  0.1600  0.5986
  796TIP3    H123879   2.963   0.874  11.685 -0.5139 -0.1060  0.0048
  796TIP3    H223880   2.881   0.944  11.579 -0.6138  0.7534  0.6404
  797TIP3   OH223881   3.569   5.809   0.224  0.1500  0.7021  0.0303
  797TIP3    H123882   3.478   5.811   0.191  0.5908  1.3078 -1.2278
  797TIP3    H223883   3.560   5.794   0.318 -1.2080 -0.6958 -0.2740
  798TIP3   OH223884   2.042   1.100  15.202 -0.2909 -0.1015 -0.6613
  798TIP3    H123885   1.965   1.157  15.204  0.7451  1.3425  1.2116
  798TIP3    H223886   2.024   1.033  15.268  0.1367  0.3869 -0.0366
  799TIP3   OH223887   6.470   5.798   4.051  0.1180  0.1279  0.1162
  799TIP3    H123888   6.456   5.881   4.097  0.0462 -0.3863  1.0251
  799TIP3    H223889   6.562   5.800   4.026 -0.0386  0.7687 -0.4472
  800TIP3   OH223890   6.330   4.552   0.474  0.1549 -0.0169  0.4600
  800TIP3    H123891   6.398   4.515   0.416  0.0848  1.7808 -0.8516
  800TIP3    H223892   6.256   4.569   0.415 -0.2198  1.1032  1.2421
  801TIP3   OH223893   2.171   4.667   2.379 -0.4159  0.1814  0.7226
  801TIP3    H123894   2.101   4.642   2.439 -1.2863 -1.6664 -0.9555
  801TIP3    H223895   2.248   4.621   2.413 -0.4827  0.5589  1.4031
  802TIP3   OH223896   5.154   3.968   2.319 -0.3004 -0.3258 -0.0504
  802TIP3    H123897   5.213   3.957   2.394 -0.1094 -0.9477 -0.2854
  802TIP3    H223898   5.090   3.897   2.329  0.6810 -1.4478 -1.3542
  803TIP3   OH223899   2.687   2.594   0.121 -0.0527  0.4209 -0.3377
  803TIP3    H123900   2.632   2.602   0.199  1.8280  0.1649  1.0888
  803TIP3    H223901   2.646   2.652   0.057 -2.9406 -1.0285  0.0032
  804TIP3   OH223902   5.234   5.246  12.972  0.3120 -0.5559  0.6158
  804TIP3    H123903   5.303   5.299  12.932 -0.5081  0.5674  0.6597
  804TIP3    H223904   5.262   5.235  13.063 -0.7281  2.0554  1.3488
  805TIP3   OH223905   4.589   3.436  13.701 -0.2538 -0.4980 -0.3262
  805TIP3    H123906   4.588   3.464  13.793  4.8903 -2.0787  0.4709
  805TIP3    H223907   4.519   3.371  13.695 -0.6171 -0.4820  2.5039
  806TIP3   OH223908   6.590   0.726   6.077 -1.2626 -0.1314  0.5966
  806TIP3    H123909   6.622   0.785   6.145 -1.4413  0.3026  0.3151
  806TIP3    H223910   6.605   0.774   5.995 -1.3816 -0.4926  0.3597
  807TIP3   OH223911   0.492   0.095  15.914 -0.1167 -0.8122 -0.2752
  807TIP3    H123912   0.475   0.004  15.938 -0.1917 -0.2653  2.0076
  807TIP3    H223913   0.432   0.146  15.968  0.7559  0.6434 -0.6169
  808TIP3   OH223914   1.746   6.308   1.844 -0.2003  0.4766 -0.4435
  808TIP3    H123915   1.829   6.333   1.885 -0.0046 -2.0649  0.9471
  808TIP3    H223916   1.771   6.243   1.778 -1.0194  0.3757 -0.6670
  809TIP3   OH223917   4.835   0.862  15.034 -0.3208 -0.1176  0.6982
  809TIP3    H123918   4.791   0.778  15.041 -0.7444 -0.0011 -0.3892
  809TIP3    H223919   4.783   0.912  14.970 -0.3937  1.1716  1.7251
  810TIP3   OH223920   1.039   2.483  11.366  0.0513 -0.1687 -0.1190
  810TIP3    H123921   1.028   2.550  11.433  1.7390 -0.4848  0.5206
  810TIP3    H223922   0.950   2.454  11.345 -0.6296  1.4573  0.4071
  811TIP3   OH223923   4.489   5.331  13.862  0.5371  0.3813  0.2186
  811TIP3    H123924   4.419   5.388  13.831  0.5967 -0.1905 -1.0146
  811TIP3    H223925   4.443   5.255  13.899  0.4858  0.5179  0.4362
  812TIP3   OH223926   1.655   2.730   2.434  0.2985 -0.2801 -0.3980
  812TIP3    H123927   1.742   2.751   2.398  1.1061 -0.5581  1.2736
  812TIP3    H223928   1.626   2.811   2.475  0.5488 -0.6246  0.4963
  813TIP3   OH223929   3.671   6.229  13.900  1.0336 -0.0825  0.2862
  813TIP3    H123930   3.678   6.135  13.915 -4.0392 -0.8804 -0.5494
  813TIP3    H223931   3.607   6.259  13.965  1.1078  2.3955 -0.6803
  814TIP3   OH223932   1.396   0.243  10.244 -0.2609  0.0449  0.7018
  814TIP3    H123933   1.393   0.335  10.218 -1.8441 -0.3670 -0.7969
  814TIP3    H223934   1.489   0.224  10.254  0.3477  1.0453 -2.0604
  815TIP3   OH223935   1.231   4.566  11.454  0.1118  0.6166  0.4916
  815TIP3    H123936   1.137   4.575  11.472 -0.2823  0.9518 -1.4655
  815TIP3    H223937   1.235   4.532  11.365  1.8692  0.3111  0.6486
  816TIP3   OH223938   6.346   3.640   1.830  0.2625  0.2396 -0.2311
  816TIP3    H123939   6.371   3.575   1.896 -1.6431 -0.0386  0.2827
  816TIP3    H223940   6.262   3.674   1.862 -0.6838  0.1538 -2.4687
  817TIP3   OH223941   1.225   2.281   3.894 -0.2145 -0.1448 -0.2430
  817TIP3    H123942   1.298   2.277   3.955  0.2086  0.4859 -0.6846
  817TIP3    H223943   1.147   2.269   3.948  0.1618  0.1608  0.3853
  818TIP3   OH223944   1.858   1.710   4.145 -0.4320  0.4046 -0.1204
  818TIP3    H123945   1.829   1.748   4.228  0.0625  0.8998 -0.1746
  818TIP3    H223946   1.834   1.617   4.152 -0.6346  0.4980  0.4645
  819TIP3   OH223947   3.282   5.473   0.942  0.2031  0.6364  0.1155
  819TIP3    H123948   3.332   5.413   0.887 -1.7449  0.8955 -2.1067
  819TIP3    H223949   3.197   5.481   0.898 -0.8951  2.1961  2.3035
  820TIP3   OH223950   6.820   5.644  15.080  0.2190  0.4721 -0.3519
  820TIP3    H123951   6.821   5.725  15.030  0.3486  2.7903  3.0456
  820TIP3    H223952   6.909   5.637  15.116 -0.1218 -0.5137  0.3550
  821TIP3   OH223953   1.607   3.314   1.672 -0.0704 -0.0356 -0.1452
  821TIP3    H123954   1.640   3.291   1.585 -2.0077  0.6556 -1.1346
  821TIP3    H223955   1.525   3.360   1.654  0.1581  1.3331  2.0132
  822TIP3   OH223956   0.932   3.507   2.958 -0.2360  0.4114  0.0648
  822TIP3    H123957   0.996   3.569   2.992 -0.0763  0.5665 -0.5136
  822TIP3    H223958   0.945   3.428   3.011  0.1276  0.5915  0.2462
  823TIP3   OH223959   3.131   2.995  11.503  0.0166 -0.1764 -0.3018
  823TIP3    H123960   3.171   3.029  11.583  0.8104  0.2345 -0.8525
  823TIP3    H223961   3.119   3.073  11.448 -0.8975 -0.3983 -0.4215
  824TIP3   OH223962   3.065   2.461  15.170 -0.3486 -0.5190 -0.1856
  824TIP3    H123963   3.116   2.513  15.231  0.6647 -1.9251  0.2011
  824TIP3    H223964   3.050   2.377  15.215 -0.8038 -1.0632 -1.2979
  825TIP3   OH223965   5.573   1.589   1.203 -0.0131  0.1588  0.1716
  825TIP3    H123966   5.507   1.522   1.224 -0.0821 -0.0623 -0.7051
  825TIP3    H223967   5.651   1.562   1.252  0.0111 -0.6786 -0.3071
  826TIP3   OH223968   0.711   4.594  10.918 -0.2549 -0.0418  0.5282
  826TIP3    H123969   0.676   4.509  10.942 -0.1864 -0.5967 -1.2005
  826TIP3    H223970   0.655   4.657  10.964 -0.4316 -0.9916  1.6601
  827TIP3   OH223971   2.022   6.109  14.276 -0.3068  0.2813  0.4337
  827TIP3    H123972   2.093   6.157  14.233  0.0907 -0.3238  0.4091
  827TIP3    H223973   1.943   6.138  14.230  0.0661 -0.0240 -0.4111
  828TIP3   OH223974   3.887   6.215   4.370 -0.1418  0.1032 -0.2084
  828TIP3    H123975   3.926   6.170   4.445 -2.5345  0.2026  1.1581
  828TIP3    H223976   3.922   6.167   4.294  1.7984 -0.4218  0.9299
  829TIP3   OH223977   0.505   4.905   0.745 -0.1158  0.0698 -0.2486
  829TIP3    H123978   0.573   4.889   0.810  0.0339 -0.5983 -0.5633
  829TIP3    H223979   0.502   5.001   0.736  0.3553  0.1296  0.2113
  830TIP3   OH223980   2.041   4.275   0.387 -0.4849  0.7953  0.1977
  830TIP3    H123981   2.068   4.194   0.343  0.1575  1.0418  0.1299
  830TIP3    H223982   2.027   4.337   0.315 -0.3812  0.9188  0.2840
  831TIP3   OH223983   3.547   5.669  13.246 -0.0081  0.2724  0.6547
  831TIP3    H123984   3.588   5.725  13.312  0.5751  0.5172  0.0941
  831TIP3    H223985   3.615   5.607  13.222  0.1399  0.8585 -0.4899
  832TIP3   OH223986   2.000   0.639   4.002  0.8469 -0.2897  0.0722
  832TIP3    H123987   1.944   0.697   3.952  0.6023 -0.8945 -0.3755
  832TIP3    H223988   1.951   0.556   4.006  1.7345 -0.8504 -0.3964
  833TIP3   OH223989   5.167   1.333  10.959  0.1635 -0.7166  0.3239
  833TIP3    H123990   5.222   1.254  10.952 -0.6708 -1.6428  3.1955
  833TIP3    H223991   5.134   1.346  10.870  0.8113 -3.2607 -0.3824
  834TIP3   OH223992   4.930   2.892  11.754 -0.6912 -0.3621 -0.2166
  834TIP3    H123993   4.978   2.850  11.683 -0.1797  1.2803 -0.8706
  834TIP3    H223994   4.942   2.833  11.829 -0.2529 -1.5206 -1.1670
  835TIP3   OH223995   5.644   6.781  13.455  0.5818  0.4132  0.2972
  835TIP3    H123996   5.554   6.750  13.469  0.6655 -0.1110 -0.2674
  835TIP3    H223997   5.699   6.720  13.505  0.6695  0.3164  0.0846
  836TIP3   OH223998   4.901   3.442  16.769 -0.0112  0.2672  0.2822
  836TIP3    H123999   4.834   3.510  16.773  1.2733  1.9443 -3.2272
  836TIP3    H224000   4.859   3.371  16.720  0.1899  0.6096 -0.3995
  837TIP3   OH224001   1.620   2.988  16.687 -0.6386 -0.1629 -0.8573
  837TIP3    H124002   1.706   3.008  16.650 -0.1447 -3.6599 -1.9738
  837TIP3    H224003   1.633   2.992  16.781  0.1235  1.4194 -0.9884
  838TIP3   OH224004   1.549   6.525   5.166 -0.6473  0.2264 -0.4983
  838TIP3    H124005   1.554   6.606   5.116  5.4976 -1.5235 -3.6847
  838TIP3    H224006   1.531   6.457   5.101  2.5831 -1.6467  0.3223
  839TIP3   OH224007   4.006   5.405   0.161 -0.4122 -0.1053  0.4748
  839TIP3    H124008   4.028   5.418   0.068 -0.4406 -0.7108  0.3758
  839TIP3    H224009   3.939   5.336   0.159  0.3733 -0.8932  1.0145
  840TIP3   OH224010   6.749   0.531   4.427  0.7649  0.4890 -0.6059
  840TIP3    H124011   6.683   0.557   4.362 -0.5355 -1.8233 -0.3318
  840TIP3    H224012   6.808   0.473   4.379  0.6461 -0.0721 -0.0872
  841TIP3   OH224013   4.311   0.061  16.336  0.3170  0.6793  0.0006
  841TIP3    H124014   4.395   0.015  16.344  0.5432  1.2148  0.8583
  841TIP3    H224015   4.261   0.033  16.413  0.1175  1.1882  0.0572
  842TIP3   OH224016   0.195   3.562  11.441  0.3589  0.3079 -0.2613
  842TIP3    H124017   0.197   3.617  11.519 -1.1156 -0.6549  0.5037
  842TIP3    H224018   0.212   3.623  11.368 -0.3407  1.6202  0.6302
  843TIP3   OH224019   2.603   3.535  12.353  0.1678 -0.5531  0.0494
  843TIP3    H124020   2.563   3.622  12.359  1.2778 -0.0050 -0.3970
  843TIP3    H224021   2.695   3.549  12.374  0.5906 -1.4325 -1.1178
  844TIP3   OH224022   1.566   1.012   6.024 -0.2476  0.1821  0.2314
  844TIP3    H124023   1.553   0.943   6.088 -0.4778  0.8472  0.9247
  844TIP3    H224024   1.588   1.089   6.077  0.4164  0.5363 -0.5481
  845TIP3   OH224025   5.445   0.699  15.035 -0.5268  0.5516 -0.4396
  845TIP3    H124026   5.499   0.656  14.970  0.1092  1.0504 -0.2492
  845TIP3    H224027   5.457   0.793  15.018 -1.4694  0.6712 -0.5114
  846TIP3   OH224028   0.871   4.139   5.141  0.5055 -0.0160  0.6087
  846TIP3    H124029   0.788   4.106   5.106 -0.0931  0.6829  1.3378
  846TIP3    H224030   0.854   4.153   5.234  1.5710 -0.2498  0.8539
  847TIP3   OH224031   4.146   1.884   5.355 -0.2830  0.6974 -0.4957
  847TIP3    H124032   4.168   1.960   5.301 -0.5795  0.7197 -0.5865
  847TIP3    H224033   4.224   1.828   5.350 -0.0721  0.9807 -0.4484
  848TIP3   OH224034   4.093   3.693  15.854 -0.1364  0.0593  0.2250
  848TIP3    H124035   4.018   3.731  15.810  0.1841 -0.3686 -0.7227
  848TIP3    H224036   4.128   3.764  15.908 -0.9055  0.4066  0.2798
  849TIP3   OH224037   3.027   5.509  15.923 -0.1770  0.0185 -0.1017
  849TIP3    H124038   2.989   5.564  15.991  1.2030  2.8758 -1.4535
  849TIP3    H224039   3.092   5.455  15.969  1.9926  3.1072  0.8045
  850TIP3   OH224040   3.390   2.386  14.497 -0.3730  0.5821 -0.6265
  850TIP3    H124041   3.335   2.319  14.538  1.9582 -2.7296 -2.4154
  850TIP3    H224042   3.335   2.422  14.427 -0.8084 -1.6227 -1.4979
  851TIP3   OH224043   0.042   3.654  15.434 -0.4097  0.2345  0.0370
  851TIP3    H124044   0.032   3.585  15.500 -0.5392 -1.3122 -1.5123
  851TIP3    H224045   0.098   3.719  15.474  0.8392 -1.4334  1.0947
  852TIP3   OH224046   2.794   6.302   3.920 -0.0882  0.4345 -0.4062
  852TIP3    H124047   2.786   6.213   3.953 -0.2655  0.3428 -0.7003
  852TIP3    H224048   2.885   6.325   3.934 -0.2000  0.4577  0.3212
  853TIP3   OH224049   1.503   3.338   5.424  0.3620  0.0608  0.6988
  853TIP3    H124050   1.529   3.304   5.338  0.9999 -1.0635  1.3128
  853TIP3    H224051   1.583   3.336   5.476 -0.4036 -1.1146  1.8961
  854TIP3   OH224052   2.488   4.667  11.506 -0.2797 -0.0078  0.0639
  854TIP3    H124053   2.542   4.735  11.465 -1.4787  1.4213  0.7161
  854TIP3    H224054   2.494   4.684  11.600  0.6158 -1.8123  0.3730
  855TIP3   OH224055   2.354   0.599  13.255  0.2210  0.2874  0.0369
  855TIP3    H124056   2.360   0.504  13.249 -0.8380  0.0456  2.1315
  855TIP3    H224057   2.446   0.628  13.256  0.5905 -0.8326  0.8402
  856TIP3   OH224058   1.785   0.643  14.552  0.4664  1.0362 -0.2594
  856TIP3    H124059   1.812   0.603  14.469 -0.5980  2.4013 -1.3215
  856TIP3    H224060   1.851   0.614  14.615  0.8299 -0.7322 -1.3759
  857TIP3   OH224061   1.564   6.307   2.064 -0.2086  0.2111  0.0739
  857TIP3    H124062   1.601   6.326   1.977  2.8604  1.8409  1.5852
  857TIP3    H224063   1.517   6.387   2.088  0.8777  0.6468  0.7970
  858TIP3   OH224064   3.983   5.768  14.615 -0.4038  0.1411  0.0725
  858TIP3    H124065   3.957   5.681  14.587  0.0829  0.3275 -0.9825
  858TIP3    H224066   3.939   5.827  14.554 -0.2147  0.6064  0.3796
  859TIP3   OH224067   2.664   4.611  10.879  0.0943  0.4209 -0.5997
  859TIP3    H124068   2.597   4.559  10.835  0.4494 -1.7513  1.2441
  859TIP3    H224069   2.644   4.603  10.972  2.4905  0.2493 -0.0259
  860TIP3   OH224070   3.525   3.854   3.993  0.1097  0.2194 -0.7948
  860TIP3    H124071   3.513   3.930   4.050 -0.2512  1.3523 -2.3335
  860TIP3    H224072   3.598   3.878   3.936 -0.8049 -0.0627 -2.1214
  861TIP3   OH224073   2.372   2.940   5.476  0.2583 -0.2181 -0.4384
  861TIP3    H124074   2.372   2.846   5.458 -1.0342 -0.2297 -0.4479
  861TIP3    H224075   2.348   2.947   5.568  1.7368  0.0680 -0.0426
  862TIP3   OH224076   5.427   0.703  15.858 -0.7046 -0.1781 -0.0576
  862TIP3    H124077   5.333   0.687  15.855 -0.5876 -0.8001 -0.6115
  862TIP3    H224078   5.445   0.759  15.782 -0.5877 -0.2927 -0.1163
  863TIP3   OH224079   4.174   2.495  11.032 -0.2405  0.2386 -0.5632
  863TIP3    H124080   4.218   2.576  11.056  0.9609 -1.1656  2.4560
  863TIP3    H224081   4.240   2.445  10.984 -0.3695  0.2684 -0.7765
  864TIP3   OH224082   4.712   2.896   2.985  0.5936  0.0543 -0.1588
  864TIP3    H124083   4.736   2.987   3.003 -0.3849  0.2238  0.3230
  864TIP3    H224084   4.767   2.845   3.044 -0.4871  0.4560  1.2279
  865TIP3   OH224085   4.165   3.562   1.295 -0.0273 -0.4545 -0.5830
  865TIP3    H124086   4.075   3.534   1.311  1.2555 -4.0695  1.5172
  865TIP3    H224087   4.195   3.596   1.380  0.8064  0.0905 -1.0775
  866TIP3   OH224088   4.561   0.783   2.083  0.3349 -0.5037  0.1013
  866TIP3    H124089   4.617   0.721   2.035  1.0711  0.6284 -0.5482
  866TIP3    H224090   4.472   0.756   2.062  0.5421 -2.7500  1.6585
  867TIP3   OH224091   5.244   5.559   5.740 -0.2915 -0.1343 -0.2351
  867TIP3    H124092   5.245   5.548   5.835  0.1168 -0.9014 -0.3159
  867TIP3    H224093   5.333   5.536   5.712 -0.3430  0.2902 -0.7874
  868TIP3   OH224094   2.990   0.363  12.686  0.5460 -0.0062  0.1502
  868TIP3    H124095   2.989   0.267  12.679 -2.1304 -0.1057  0.8108
  868TIP3    H224096   3.034   0.380  12.769 -1.2250 -0.8569  1.3180
  869TIP3   OH224097   3.900   3.114  13.403 -0.5069  0.1419  0.2195
  869TIP3    H124098   3.978   3.159  13.370  0.6392 -2.5502 -1.0269
  869TIP3    H224099   3.928   3.077  13.487 -0.9648  0.4709  0.5241
  870TIP3   OH224100   5.385   2.444   5.937 -0.0994 -1.2423  0.3516
  870TIP3    H124101   5.439   2.384   5.989  3.1311  1.9907  1.1459
  870TIP3    H224102   5.391   2.411   5.848  4.9102 -0.2787  0.0430
  871TIP3   OH224103   0.247   2.964  14.430 -0.3297 -0.2496 -0.3045
  871TIP3    H124104   0.318   2.962  14.494 -1.1547 -1.7043  0.6303
  871TIP3    H224105   0.205   3.049  14.443 -0.4806 -0.5151  1.1411
  872TIP3   OH224106   4.176   0.796  14.208 -0.3909  0.2339  0.1417
  872TIP3    H124107   4.198   0.871  14.152 -0.2748 -0.0713 -0.2244
  872TIP3    H224108   4.089   0.770  14.179  0.4650 -1.2038 -1.3289
  873TIP3   OH224109   2.273   1.107  16.768 -0.4886 -0.3052 -0.4322
  873TIP3    H124110   2.318   1.145  16.844  0.4923 -0.4294 -0.9335
  873TIP3    H224111   2.342   1.060  16.721 -1.3111 -1.1476 -0.8192
  874TIP3   OH224112   1.438   4.037   2.048 -0.5360  0.4674  0.3620
  874TIP3    H124113   1.354   3.994   2.062 -0.6228  0.6531  0.4224
  874TIP3    H224114   1.484   3.982   1.985 -2.2820  2.4532 -2.8617
  875TIP3   OH224115   6.739   3.865   1.353  0.0951  0.5512 -0.0219
  875TIP3    H124116   6.665   3.874   1.413  1.7856  0.3981  2.2196
  875TIP3    H224117   6.771   3.776   1.369 -0.3452 -0.1134 -2.3961
  876TIP3   OH224118   1.516   4.118   0.314 -0.3890  0.1593 -0.1664
  876TIP3    H124119   1.556   4.204   0.325  0.3659 -0.1238 -0.6523
  876TIP3    H224120   1.515   4.103   0.219  0.7275 -0.9279 -0.0386
  877TIP3   OH224121   5.652   1.737   6.691 -0.0318 -0.6768 -0.1353
  877TIP3    H124122   5.612   1.821   6.716  1.4270  0.7363 -2.1839
  877TIP3    H224123   5.577   1.682   6.668 -0.9814  0.6492 -0.3688
  878TIP3   OH224124   0.817   0.543   0.836  0.9372 -0.3447 -0.2754
  878TIP3    H124125   0.840   0.635   0.825  0.9515 -0.0348  1.8908
  878TIP3    H224126   0.893   0.503   0.878  0.1835 -0.8687  0.6411
  879TIP3   OH224127   5.771   3.562  13.294 -0.1901 -0.5471  0.6337
  879TIP3    H124128   5.866   3.574  13.296 -0.3981  1.1459  1.3837
  879TIP3    H224129   5.760   3.468  13.275  1.6238 -0.9173  1.1815
  880TIP3   OH224130   3.741   0.859   3.753  0.2795 -0.1592  0.2155
  880TIP3    H124131   3.804   0.787   3.759 -0.6546 -1.2148 -1.8518
  880TIP3    H224132   3.787   0.933   3.794  1.0061 -2.0047  3.0138
  881TIP3   OH224133   5.041   0.071  16.260 -0.1692 -0.4126  0.5759
  881TIP3    H124134   5.124   0.034  16.232 -0.7225 -0.6937 -0.8106
  881TIP3    H224135   4.976   0.005  16.234 -1.1921  1.4765 -2.0654
  882TIP3   OH224136   5.651   6.158   0.791 -0.0268  0.2268  0.0218
  882TIP3    H124137   5.660   6.223   0.720 -0.0585 -1.2136 -1.3583
  882TIP3    H224138   5.718   6.093   0.772 -0.4956 -0.5392  0.9415
  883TIP3   OH224139   3.345   3.389   5.189  0.1939  0.0789 -0.3190
  883TIP3    H124140   3.341   3.422   5.099  0.7921  0.6651 -0.1409
  883TIP3    H224141   3.435   3.406   5.216  0.3919 -1.2981 -0.0541
  884TIP3   OH224142   1.298   3.874  17.098  0.1047  0.6740  0.3824
  884TIP3    H124143   1.237   3.801  17.088 -1.3576  1.8912 -0.2120
  884TIP3    H224144   1.383   3.840  17.071 -1.0755 -0.0534 -2.8551
  885TIP3   OH224145   4.486   3.680  15.834 -0.7555 -0.5205  0.1287
  885TIP3    H124146   4.483   3.774  15.846  1.4137 -0.5383  1.3691
  885TIP3    H224147   4.490   3.644  15.923  0.5800 -1.6153 -0.3295
  886TIP3   OH224148   6.415   6.142   2.667 -0.4817 -0.0770 -0.4158
  886TIP3    H124149   6.501   6.145   2.625 -0.0200  1.7086  0.5769
  886TIP3    H224150   6.432   6.112   2.756 -0.8782  0.2451 -0.2253
  887TIP3   OH224151   4.930   1.333   3.154 -0.4502  0.3524 -0.0286
  887TIP3    H124152   4.963   1.409   3.106  1.5738 -1.1561 -1.1669
  887TIP3    H224153   4.860   1.298   3.099  0.6832 -0.3422 -1.0891
  888TIP3   OH224154   4.923   4.399  14.204  0.4363 -0.2231 -0.1445
  888TIP3    H124155   4.840   4.437  14.175  0.5454  0.7500  0.7389
  888TIP3    H224156   4.935   4.322  14.148 -0.1367  0.6635 -1.5546
  889TIP3   OH224157   4.639   3.061  12.428 -0.1002  0.7586 -0.3644
  889TIP3    H124158   4.627   2.966  12.422 -1.1711  0.9488 -1.9432
  889TIP3    H224159   4.728   3.077  12.397  0.2624  0.2425  0.3895
  890TIP3   OH224160   2.077   0.059  13.604 -0.1600  0.1102  0.1808
  890TIP3    H124161   2.077  -0.001  13.678 -1.0372  0.6371  0.6268
  890TIP3    H224162   1.985   0.064  13.577  0.0903  0.2278 -0.6966
  891TIP3   OH224163   0.227   3.835  15.464  0.5337  0.1185 -0.0287
  891TIP3    H124164   0.297   3.832  15.398 -0.7238  0.9387 -1.4921
  891TIP3    H224165   0.160   3.892  15.424 -1.4471 -1.4935  0.8157
  892TIP3   OH224166   6.817   4.494  16.735 -0.2541 -0.2301  0.3054
  892TIP3    H124167   6.732   4.485  16.780  0.7940 -2.2032  2.0643
  892TIP3    H224168   6.832   4.409  16.695  0.8360  0.1458 -0.1196
  893TIP3   OH224169   4.340   5.062  13.674 -0.1370 -0.2605 -0.0010
  893TIP3    H124170   4.402   5.049  13.603 -1.7501 -1.3039 -1.2712
  893TIP3    H224171   4.371   5.004  13.744 -0.5186 -1.9893 -1.2029
  894TIP3   OH224172   3.336   0.994   5.591 -0.0595  0.2713 -0.0538
  894TIP3    H124173   3.248   1.030   5.581 -0.1844 -0.4295 -1.8303
  894TIP3    H224174   3.394   1.066   5.566 -0.2379 -0.0272 -1.4037
  895TIP3   OH224175   1.682   3.476  16.973 -0.3237  0.3938  0.3974
  895TIP3    H124176   1.705   3.434  16.890 -1.4658  1.5634 -0.5646
  895TIP3    H224177   1.608   3.425  17.006 -0.7748  0.7673 -0.0284
  896TIP3   OH224178   4.072   1.129  17.269  0.2451  0.0900 -0.3706
  896TIP3    H124179   3.981   1.157  17.259  0.8162  1.2192 -3.2994
  896TIP3    H224180   4.112   1.198  17.322 -0.3970 -0.0049  0.2548
  897TIP3   OH224181   1.768   4.838  15.975 -0.2276 -0.1584 -0.5108
  897TIP3    H124182   1.785   4.923  15.934 -0.3205 -0.6031 -1.5113
  897TIP3    H224183   1.726   4.786  15.906 -0.8270 -0.7901  0.3039
  898TIP3   OH224184   6.157   3.034  13.091 -0.1307 -0.3721  0.0541
  898TIP3    H124185   6.074   3.056  13.134  0.0510 -0.5301  0.4887
  898TIP3    H224186   6.138   3.044  12.998 -0.1607  1.2634  0.2002
  899TIP3   OH224187   6.056   3.792  13.730  0.5202 -0.6685  0.4267
  899TIP3    H124188   5.966   3.824  13.722  0.8538  0.6366  1.5113
  899TIP3    H224189   6.107   3.850  13.674  0.6524 -1.6646 -0.5129
  900TIP3   OH224190   5.316   0.789   2.895  0.2470 -0.2233 -0.0698
  900TIP3    H124191   5.278   0.703   2.876  0.2846 -0.0216 -1.1354
  900TIP3    H224192   5.280   0.813   2.980 -1.0642 -0.5645 -0.5121
  901TIP3   OH224193   5.072   4.032   4.393  0.8563  0.4696 -0.1666
  901TIP3    H124194   5.042   4.109   4.440 -1.4062 -0.8419  0.7187
  901TIP3    H224195   5.132   3.989   4.454 -1.1792 -0.6176  1.2194
  902TIP3   OH224196   1.389   5.444  13.792 -0.1882  0.4896 -0.2676
  902TIP3    H124197   1.380   5.511  13.860 -1.3114 -0.0439  0.1372
  902TIP3    H224198   1.480   5.452  13.762  0.5231  0.3855  1.6922
  903TIP3   OH224199   1.265   1.192  15.261 -0.1484  0.1201 -0.1971
  903TIP3    H124200   1.319   1.188  15.340  0.2951  2.9013 -0.2661
  903TIP3    H224201   1.175   1.198  15.294 -0.3386 -2.4240 -0.0508
  904TIP3   OH224202   6.659   0.383   3.390 -0.7001 -0.0211 -0.8230
  904TIP3    H124203   6.638   0.459   3.337  2.2987  1.1322 -0.5450
  904TIP3    H224204   6.667   0.418   3.479 -0.9478 -1.0081 -0.3993
  905TIP3   OH224205   2.709   4.286   0.685 -0.0015  0.1342 -0.4161
  905TIP3    H124206   2.702   4.372   0.728  0.7779 -0.3166  0.6700
  905TIP3    H224207   2.792   4.289   0.638  0.9290 -0.6141  1.0925
  906TIP3   OH224208   3.965   0.068  14.152 -0.0239 -0.0014  0.3797
  906TIP3    H124209   3.982   0.104  14.238  0.5924  1.1515 -0.2008
  906TIP3    H224210   3.879   0.028  14.159  0.0306  0.0513  1.5256
  907TIP3   OH224211   4.851   4.039  11.048  0.2509  0.2311 -0.0363
  907TIP3    H124212   4.764   4.009  11.022  0.0559  3.1663 -3.7270
  907TIP3    H224213   4.837   4.088  11.129 -1.2061 -0.6705  0.2904
  908TIP3   OH224214   4.464   0.289  11.833 -0.2081 -0.2495  0.0420
  908TIP3    H124215   4.407   0.299  11.756 -1.2142  0.1311  0.8045
  908TIP3    H224216   4.536   0.350  11.818  0.9982 -1.9843 -1.7673
  909TIP3   OH224217   5.919   3.182  13.139 -0.6744 -0.1373 -0.3988
  909TIP3    H124218   5.843   3.151  13.091 -0.7714 -0.0004 -0.3330
  909TIP3    H224219   5.903   3.157  13.230 -0.9104  0.3986 -0.2860
  910TIP3   OH224220   1.945   4.713   5.940  0.5368 -0.3607 -0.0564
  910TIP3    H124221   1.923   4.760   6.020 -0.4801 -0.6720 -0.1343
  910TIP3    H224222   1.862   4.675   5.911  1.0752 -1.0646 -0.7291
  911TIP3   OH224223   3.413   0.144   1.152 -0.0699  0.1549  0.2884
  911TIP3    H124224   3.468   0.213   1.189  1.5242 -0.0684 -1.5182
  911TIP3    H224225   3.342   0.190   1.109  1.0958  0.7402 -1.0837
  912TIP3   OH224226   6.389   5.088  11.026 -0.2192  0.1696 -0.2824
  912TIP3    H124227   6.355   5.098  11.115 -1.0653 -1.5789 -0.3785
  912TIP3    H224228   6.482   5.111  11.034 -0.6848  1.9521  0.6182
  913TIP3   OH224229   0.219   1.215   1.051 -0.1014 -0.0803 -0.5894
  913TIP3    H124230   0.290   1.202   1.114 -1.7816 -1.4695  1.1268
  913TIP3    H224231   0.246   1.165   0.974  1.7398  1.2107 -0.8727
  914TIP3   OH224232   5.037   4.820  15.082  0.0244 -0.2782 -0.0817
  914TIP3    H124233   4.950   4.853  15.057 -0.4156 -1.2164  0.1911
  914TIP3    H224234   5.098   4.885  15.047 -0.7092 -0.3599 -1.5848
  915TIP3   OH224235   2.720   0.839   3.646  0.5141 -0.3370 -0.0873
  915TIP3    H124236   2.807   0.798   3.644  0.5910 -0.4786  2.5295
  915TIP3    H224237   2.662   0.773   3.683 -0.0548  0.7152  1.0105
  916TIP3   OH224238   4.023   2.286  15.971 -0.4234 -0.2549 -0.1430
  916TIP3    H124239   4.035   2.200  16.013  0.5577 -0.3313 -0.5725
  916TIP3    H224240   4.022   2.348  16.044 -0.1637 -0.5320  0.0978
  917TIP3   OH224241   6.777   2.029   3.729 -0.6186  0.2613  0.1417
  917TIP3    H124242   6.740   2.118   3.731  0.0622  0.6536 -1.9642
  917TIP3    H224243   6.777   2.006   3.636 -0.4954 -1.8517  0.6301
  918TIP3   OH224244   2.784   6.179   5.711 -0.2016  0.4974  0.3307
  918TIP3    H124245   2.860   6.168   5.768  0.8717 -0.6833 -1.2343
  918TIP3    H224246   2.739   6.256   5.745  1.5541  1.0788  1.4647
  919TIP3   OH224247   4.736   2.444   6.545  0.1526  0.1259  0.0852
  919TIP3    H124248   4.812   2.472   6.494  0.2973  0.2284  0.3510
  919TIP3    H224249   4.750   2.484   6.631  0.5014 -0.9829  0.5551
  920TIP3   OH224250   4.565   5.348  11.417  0.5569  0.0183  0.1047
  920TIP3    H124251   4.505   5.329  11.489  1.4750  0.3808  0.9970
  920TIP3    H224252   4.526   5.422  11.372  0.0327 -0.1344  0.3010
  921TIP3   OH224253   5.313   2.744  12.273  0.2515  0.3990  0.0868
  921TIP3    H124254   5.346   2.770  12.359  0.3553  0.9927 -0.1305
  921TIP3    H224255   5.367   2.669  12.249 -0.6283 -0.5964  1.1045
  922TIP3   OH224256   6.810   5.470  15.692 -0.0872 -0.4034 -0.2257
  922TIP3    H124257   6.789   5.385  15.654  0.8602 -0.6076 -0.3237
  922TIP3    H224258   6.834   5.450  15.783 -0.8927 -0.1014  0.0648
  923TIP3   OH224259   4.598   6.670  17.164  0.4256  0.3087 -0.1450
  923TIP3    H124260   4.661   6.601  17.183 -0.4786 -0.5819 -0.3059
  923TIP3    H224261   4.602   6.682  17.069 -0.1917 -0.2962 -0.2537
  924TIP3   OH224262   5.023   5.596   2.484  0.0857  0.2956  0.2240
  924TIP3    H124263   5.056   5.506   2.486 -1.2462 -0.2110  0.6494
  924TIP3    H224264   5.050   5.634   2.567  1.0254  0.4451 -0.1368
  925TIP3   OH224265   1.409   1.937   1.072  0.4500  0.6467 -0.0703
  925TIP3    H124266   1.330   1.930   1.018 -0.1048 -0.0948  0.8246
  925TIP3    H224267   1.466   1.867   1.040  0.5840  0.9205 -0.4389
  926TIP3   OH224268   0.863   4.249   0.396 -0.0950 -0.4989 -0.1349
  926TIP3    H124269   0.809   4.186   0.443  1.4809 -2.6878 -1.1277
  926TIP3    H224270   0.824   4.254   0.308  0.2482 -0.6737 -0.2960
  927TIP3   OH224271   1.914   2.008   3.016 -0.5721  0.0435  0.7893
  927TIP3    H124272   1.983   1.965   3.067 -0.4118 -1.2730 -0.4509
  927TIP3    H224273   1.941   2.100   3.012  0.4845 -0.2276  1.3309
  928TIP3   OH224274   3.261   5.131   5.350  0.2843  0.6632  0.0083
  928TIP3    H124275   3.339   5.187   5.348  1.1066 -0.4495  0.1340
  928TIP3    H224276   3.249   5.105   5.259  0.7410 -0.0717  0.1525
  929TIP3   OH224277   1.490   3.180  15.584  0.6371  0.0480 -0.0337
  929TIP3    H124278   1.544   3.201  15.659  0.7404 -2.0973  0.5676
  929TIP3    H224279   1.446   3.262  15.561  0.1986  0.6471  2.6887
  930TIP3   OH224280   2.617   6.013  12.163  0.0379  0.2160 -0.3218
  930TIP3    H124281   2.585   6.046  12.246  0.9780  0.0980  0.1091
  930TIP3    H224282   2.705   6.051  12.154  0.0411  0.0444 -1.1476
  931TIP3   OH224283   6.643   1.435   1.653 -0.0969  0.5408 -0.0836
  931TIP3    H124284   6.706   1.363   1.662  0.9797  1.5393  0.6730
  931TIP3    H224285   6.587   1.427   1.731  0.2738  0.7555  0.2070
  932TIP3   OH224286   2.275   5.624   4.508 -0.1234  0.2808  0.4133
  932TIP3    H124287   2.293   5.598   4.417 -2.8592 -1.7978  0.3390
  932TIP3    H224288   2.270   5.719   4.504  0.6977  0.3034 -1.4305
  933TIP3   OH224289   3.342   2.643  13.295 -0.7135  0.3896 -0.3744
  933TIP3    H124290   3.395   2.654  13.216 -2.6154  0.2633 -1.7604
  933TIP3    H224291   3.402   2.606  13.360  0.9222  0.5174 -1.7467
  934TIP3   OH224292   2.313   6.228   3.285  0.0726  0.2562  0.0723
  934TIP3    H124293   2.231   6.188   3.314 -0.1537 -0.4128 -1.3810
  934TIP3    H224294   2.377   6.202   3.351 -0.2330 -1.9788 -0.4069
  935TIP3   OH224295   6.542   1.071   2.038 -0.4433 -0.3018  0.1625
  935TIP3    H124296   6.602   0.999   2.016  3.8740  2.1810  2.4909
  935TIP3    H224297   6.570   1.143   1.982 -0.9197  1.1166  1.6865
  936TIP3   OH224298   6.272   6.728  15.018 -0.1307 -0.9648 -0.5231
  936TIP3    H124299   6.177   6.718  15.013 -0.2677 -0.3908  0.7546
  936TIP3    H224300   6.290   6.811  14.974 -0.2685 -0.8620 -0.3843
  937TIP3   OH224301   1.287   3.149   4.112  0.1752 -0.3818 -0.9914
  937TIP3    H124302   1.307   3.070   4.062 -0.2824 -0.7639 -0.5785
  937TIP3    H224303   1.238   3.118   4.187  0.7686  0.1992 -0.3488
  938TIP3   OH224304   0.547   1.140   4.902  0.4677 -0.1487  0.7274
  938TIP3    H124305   0.532   1.225   4.859 -1.5813 -1.9508 -2.5624
  938TIP3    H224306   0.479   1.135   4.969 -0.5650  0.1401 -0.2607
  939TIP3   OH224307   2.942   1.588  13.389  0.2261  0.1373  0.0599
  939TIP3    H124308   3.029   1.557  13.364  0.8558 -0.0962  2.2586
  939TIP3    H224309   2.882   1.543  13.330  1.5298 -0.5288 -0.8017
  940TIP3   OH224310   5.797   0.269   4.179  0.0779  0.6622 -0.1806
  940TIP3    H124311   5.730   0.300   4.119 -0.7734  0.0439  0.4134
  940TIP3    H224312   5.873   0.324   4.162  0.2008 -0.1068 -2.4921
  941TIP3   OH224313   4.825   4.976   5.058  0.2533 -0.1869  0.3638
  941TIP3    H124314   4.787   4.901   5.102 -0.1679  1.3062  2.7156
  941TIP3    H224315   4.757   5.007   4.999 -0.4556 -0.2763  1.1255
  942TIP3   OH224316   1.540   5.948  16.370 -0.0672  0.2346 -0.2127
  942TIP3    H124317   1.466   5.990  16.327  0.1860  0.1367 -0.7540
  942TIP3    H224318   1.535   5.856  16.343  0.5343  0.3266 -0.6515
  943TIP3   OH224319   1.862   0.276  12.346 -0.1436  0.0381 -0.8120
  943TIP3    H124320   1.844   0.282  12.440 -1.4396 -0.7354 -0.9715
  943TIP3    H224321   1.915   0.352  12.326 -1.1080  1.0353  0.2837
  944TIP3   OH224322   4.481   6.485   4.251  0.1368 -0.0408 -0.1144
  944TIP3    H124323   4.544   6.453   4.316  0.3598  3.6047  1.7641
  944TIP3    H224324   4.535   6.516   4.179  0.2053 -0.3067 -0.1782
  945TIP3   OH224325   3.905   3.865   2.225 -0.5151  0.5236 -0.1480
  945TIP3    H124326   3.879   3.957   2.218  0.7693  0.9888  0.6941
  945TIP3    H224327   3.846   3.828   2.290 -1.5513  0.5346 -1.0662
  946TIP3   OH224328   0.915   0.727  15.181 -0.0006  0.0704  0.2405
  946TIP3    H124329   0.929   0.802  15.240  1.2458 -1.4831  2.0243
  946TIP3    H224330   1.002   0.707  15.147 -0.5129  0.0985 -1.1332
  947TIP3   OH224331   1.563   2.488   1.273  0.2013 -0.0865 -0.2070
  947TIP3    H124332   1.506   2.564   1.279 -0.3274 -0.1743 -3.0030
  947TIP3    H224333   1.529   2.427   1.339 -0.9834  1.0813  0.2896
  948TIP3   OH224334   2.054   1.684  13.358 -0.2999  0.6102 -0.3635
  948TIP3    H124335   2.040   1.609  13.415 -2.1134  0.7895 -0.5142
  948TIP3    H224336   2.143   1.673  13.325  0.3057 -0.1945  1.4506
  949TIP3   OH224337   0.208   4.821   1.783  0.0043  0.2644  0.2110
  949TIP3    H124338   0.240   4.911   1.793  3.6355 -0.9527  1.1788
  949TIP3    H224339   0.202   4.788   1.873  0.9026 -1.0803 -0.1931
  950TIP3   OH224340   4.815   3.802   2.731  0.2365 -0.0915  0.0922
  950TIP3    H124341   4.769   3.750   2.797  0.3464  1.1182  1.1550
  950TIP3    H224342   4.785   3.767   2.647 -0.2294 -1.3788  0.7730
  951TIP3   OH224343   2.445   2.340  16.903  0.0144 -0.2782 -0.6197
  951TIP3    H124344   2.484   2.341  16.991 -2.4607 -1.6074  0.6087
  951TIP3    H224345   2.453   2.429  16.871 -1.3877  0.9515  2.1500
  952TIP3   OH224346   3.568   2.475   4.146  0.1872  0.1711 -0.1038
  952TIP3    H124347   3.663   2.467   4.141  0.0799 -1.7941  0.0222
  952TIP3    H224348   3.535   2.392   4.110 -1.4138  0.1363  1.2967
  953TIP3   OH224349   0.732   4.559   5.760 -0.3827 -0.4397  0.1988
  953TIP3    H124350   0.754   4.651   5.748 -0.1694 -0.0137  3.0171
  953TIP3    H224351   0.641   4.559   5.789 -0.8353 -1.2765 -1.1338
  954TIP3   OH224352   2.934   3.518   3.921  0.7217 -0.3027 -0.4220
  954TIP3    H124353   3.006   3.506   3.859  1.2273 -1.3492  0.3323
  954TIP3    H224354   2.946   3.448   3.986 -1.6222 -1.2712 -0.8980
  955TIP3   OH224355   3.427   2.762   0.473  0.0761 -0.3832  0.0557
  955TIP3    H124356   3.483   2.688   0.449  0.3371  0.3741 -1.8107
  955TIP3    H224357   3.473   2.805   0.545  0.1909 -1.6969  0.7931
  956TIP3   OH224358   0.409   1.550   0.500  0.6953 -0.0999  0.6281
  956TIP3    H124359   0.497   1.513   0.507  1.1116  0.3822 -1.3809
  956TIP3    H224360   0.422   1.645   0.505  0.2194 -0.0495  0.9710
  957TIP3   OH224361   1.243   0.054   0.304 -0.3882  0.0524  0.4039
  957TIP3    H124362   1.232  -0.019   0.244  0.7060  1.0992 -1.1559
  957TIP3    H224363   1.315   0.028   0.361  1.2793  0.5659 -1.3415
  958TIP3   OH224364   1.403   3.635  15.248  0.5296 -0.2747 -0.6438
  958TIP3    H124365   1.416   3.718  15.294 -0.9274 -0.1690 -0.3817
  958TIP3    H224366   1.492   3.599  15.239  0.9903  0.2807  1.1716
  959TIP3   OH224367   5.580   5.571   5.926  0.6125 -0.1851 -0.2391
  959TIP3    H124368   5.496   5.583   5.970  0.4930  0.3011 -0.5995
  959TIP3    H224369   5.557   5.532   5.842  0.9545 -2.7563  0.7619
  960TIP3   OH224370   5.075   5.260  13.473 -0.2287  0.3153 -0.0209
  960TIP3    H124371   5.079   5.352  13.446 -0.4932  0.0283 -1.0776
  960TIP3    H224372   5.165   5.230  13.472 -0.1765  0.4713 -0.0077
  961TIP3   OH224373   4.614   5.412  12.651 -0.1605  0.3640  0.4186
  961TIP3    H124374   4.670   5.389  12.577 -2.2613  1.0572 -1.5120
  961TIP3    H224375   4.618   5.507  12.656 -1.4118  0.4591 -0.0191
  962TIP3   OH224376   0.061   1.391  11.780 -0.8894  0.1559  0.2992
  962TIP3    H124377  -0.024   1.346  11.779 -0.3969 -0.7863 -0.3991
  962TIP3    H224378   0.044   1.473  11.827 -2.6271  0.8727 -1.4457
  963TIP3   OH224379   5.323   1.279   5.362 -0.3451  0.1368  0.4021
  963TIP3    H124380   5.323   1.315   5.274  0.8048 -0.9519 -0.0649
  963TIP3    H224381   5.254   1.213   5.362 -0.7656  0.5733  0.5111
  964TIP3   OH224382   5.526   0.588   6.301 -0.1782 -0.0479  0.4457
  964TIP3    H124383   5.458   0.655   6.305 -1.9843 -1.8170  0.5509
  964TIP3    H224384   5.490   0.519   6.245  1.7095 -0.8613  0.1346
  965TIP3   OH224385   5.502   5.902   0.811  0.0977 -0.0544 -0.1300
  965TIP3    H124386   5.411   5.880   0.833  0.2951 -2.0870 -1.0960
  965TIP3    H224387   5.495   5.978   0.753 -1.2025 -1.4391 -1.9052
  966TIP3   OH224388   1.109   2.252   2.345 -0.3951  0.3186 -0.2956
  966TIP3    H124389   1.105   2.319   2.277  1.0711  2.3524  1.4730
  966TIP3    H224390   1.203   2.244   2.364 -0.6266 -1.5994  0.1771
  967TIP3   OH224391   1.863   3.524   5.397  0.6605  0.3713  0.0274
  967TIP3    H124392   1.851   3.473   5.317 -2.7108  0.0447  0.5976
  967TIP3    H224393   1.907   3.465   5.457  2.4112  0.3143 -1.2497
  968TIP3   OH224394   2.008   6.222   4.475  0.3456  0.1950 -0.4789
  968TIP3    H124395   2.002   6.264   4.561 -0.2412  0.5936 -0.7088
  968TIP3    H224396   2.046   6.136   4.493 -1.3059 -0.4003  0.4282
  969TIP3   OH224397   1.349   0.195  13.274  0.4222  0.6029  0.3113
  969TIP3    H124398   1.265   0.151  13.286  0.4104  0.3402 -0.6566
  969TIP3    H224399   1.327   0.287  13.265 -0.0482  0.2997 -2.4255
  970TIP3   OH224400   6.518   3.208  13.630  0.5511  0.3541  0.1564
  970TIP3    H124401   6.570   3.288  13.634  0.4955  0.4259 -0.4602
  970TIP3    H224402   6.428   3.237  13.641  0.3792  0.5747 -1.5787
  971TIP3   OH224403   2.530   1.336   5.626  0.0481 -0.4912 -0.2353
  971TIP3    H124404   2.572   1.266   5.576 -0.9820 -1.4214  0.1697
  971TIP3    H224405   2.436   1.317   5.621 -0.2023  0.4266  0.5319
  972TIP3   OH224406   5.253   1.109  13.401  0.1957 -0.1816  0.2235
  972TIP3    H124407   5.206   1.186  13.371 -1.0429 -1.1551 -0.4539
  972TIP3    H224408   5.341   1.118  13.365 -0.2291  0.4327 -0.6900
  973TIP3   OH224409   3.677   2.326  14.351 -0.0252 -0.0039 -0.2055
  973TIP3    H124410   3.718   2.411  14.370 -1.1783  0.3056  1.0728
  973TIP3    H224411   3.583   2.341  14.365 -0.3236 -1.3175 -0.6584
  974TIP3   OH224412   0.805   2.647  11.478  0.1782  0.0682  0.1189
  974TIP3    H124413   0.805   2.571  11.536  0.3253  0.7249  1.0034
  974TIP3    H224414   0.732   2.701  11.510  0.2703  0.4424 -0.2987
  975TIP3   OH224415   2.690   5.990   6.241 -0.3599  0.3463  0.1793
  975TIP3    H124416   2.609   6.040   6.253 -0.9885 -0.4988 -0.3935
  975TIP3    H224417   2.699   5.940   6.323 -1.2403 -0.6654 -0.3054
  976TIP3   OH224418   2.428   3.362   2.560  0.4394  0.7212  0.2151
  976TIP3    H124419   2.345   3.408   2.546  0.2290  0.7423  1.3768
  976TIP3    H224420   2.455   3.389   2.648  1.5084  0.4473 -0.0197
  977TIP3   OH224421   2.886   4.027   0.451 -0.2206 -0.1945  0.2462
  977TIP3    H124422   2.922   3.943   0.423  0.2430  0.3146 -0.7560
  977TIP3    H224423   2.960   4.087   0.445 -1.1775  0.8717 -1.7905
  978TIP3   OH224424   6.140   5.153   3.879  0.2564  0.2142  0.0116
  978TIP3    H124425   6.136   5.101   3.799 -0.8293  0.7772 -0.3171
  978TIP3    H224426   6.141   5.244   3.848  2.3217  0.4290  0.5679
  979TIP3   OH224427   2.099   1.204   1.631 -0.2783  0.3360  0.1254
  979TIP3    H124428   2.075   1.277   1.689 -0.9458  0.9112 -0.8514
  979TIP3    H224429   2.021   1.187   1.579  0.2837 -0.2184 -0.5645
  980TIP3   OH224430   5.342   5.031  15.634 -0.1075 -0.1029 -0.6898
  980TIP3    H124431   5.395   4.976  15.577 -0.0868  0.8598 -1.6429
  980TIP3    H224432   5.285   4.970  15.681 -1.7480 -0.8438 -3.3908
  981TIP3   OH224433   2.230   2.426   3.392  0.4664 -0.1346  0.4800
  981TIP3    H124434   2.176   2.474   3.455  2.2392  0.7133  1.4282
  981TIP3    H224435   2.311   2.407   3.439  0.2653 -3.2135 -0.2137
  982TIP3   OH224436   2.155   2.082  16.130 -0.9646  0.6483  0.0115
  982TIP3    H124437   2.207   2.102  16.052 -0.6816 -0.9169 -0.2321
  982TIP3    H224438   2.069   2.117  16.111 -0.7782  0.6745 -0.8254
  983TIP3   OH224439   3.561   0.885  15.466  0.3094 -0.3675 -0.0911
  983TIP3    H124440   3.527   0.800  15.439  2.3022 -1.0803 -0.5061
  983TIP3    H224441   3.603   0.869  15.551 -0.9818  0.6507  0.7816
  984TIP3   OH224442   4.930   2.595   5.798  0.3947 -0.8354  0.0195
  984TIP3    H124443   4.889   2.517   5.762  0.2369 -0.7546  0.0232
  984TIP3    H224444   4.976   2.634   5.724 -0.3985 -0.3609 -0.2367
  985TIP3   OH224445   2.866   0.733   2.793  0.0308  0.2010 -0.7680
  985TIP3    H124446   2.792   0.693   2.747  1.5163 -2.4090 -1.0750
  985TIP3    H224447   2.904   0.794   2.729 -1.1665  0.7480 -0.9845
  986TIP3   OH224448   4.127   1.462   3.724  0.6099 -0.0247  0.1801
  986TIP3    H124449   4.119   1.480   3.631  1.0187 -0.1723  0.1141
  986TIP3    H224450   4.057   1.399   3.742 -0.7065  1.4458  0.3793
  987TIP3   OH224451   5.966   0.606   3.413  0.3527  0.2219  0.1977
  987TIP3    H124452   6.028   0.601   3.340 -1.0235 -1.7638 -0.9322
  987TIP3    H224453   6.021   0.602   3.491  1.6994 -2.1267 -0.7530
  988TIP3   OH224454   2.092   5.439   0.721 -0.5701 -0.2688  0.4574
  988TIP3    H124455   2.068   5.525   0.687 -1.0250  0.7387  3.0981
  988TIP3    H224456   2.040   5.377   0.669 -1.7215  1.1836 -0.1951
  989TIP3   OH224457   2.633   4.743  13.204  0.5408 -0.4967  0.2117
  989TIP3    H124458   2.592   4.707  13.126  1.1416 -1.8714  0.4987
  989TIP3    H224459   2.713   4.786  13.172 -0.7528  1.7051 -0.2756
  990TIP3   OH224460   0.937   4.273  16.301  0.2074  0.6283 -0.2099
  990TIP3    H124461   0.882   4.267  16.379  2.5866  1.4257  1.6821
  990TIP3    H224462   0.903   4.348  16.253 -1.6165 -0.1747 -0.2423
  991TIP3   OH224463   3.133   0.522   5.032  0.6022 -0.2687  0.0791
  991TIP3    H124464   3.096   0.478   4.956 -0.1395  0.2366  0.1363
  991TIP3    H224465   3.062   0.522   5.096  1.5563 -1.7050  1.2206
  992TIP3   OH224466   2.194   5.558  11.137  0.6274 -0.7174 -0.5385
  992TIP3    H124467   2.116   5.613  11.152  0.6151 -0.5870 -1.0359
  992TIP3    H224468   2.159   5.469  11.130  0.4154 -0.5666 -1.5532
  993TIP3   OH224469   1.042   5.021  10.612 -0.5890  0.0830 -0.2919
  993TIP3    H124470   1.110   4.966  10.573 -0.3939  1.1899 -1.5682
  993TIP3    H224471   0.961   4.974  10.598 -0.1241 -1.3774  1.4602
  994TIP3   OH224472   3.445   4.434   4.868 -0.9706 -0.1539  0.4148
  994TIP3    H124473   3.431   4.432   4.773  0.7324 -0.4133  0.1337
  994TIP3    H224474   3.473   4.345   4.890 -1.1762 -0.0441  1.1454
  995TIP3   OH224475   5.137   0.316   2.754 -0.0293  0.3978  0.1267
  995TIP3    H124476   5.202   0.265   2.706  2.0306 -0.0943  3.1637
  995TIP3    H224477   5.063   0.323   2.693  1.9296 -0.9790 -2.6596
  996TIP3   OH224478   2.706   6.464   3.159 -0.0340  0.1221  0.2447
  996TIP3    H124479   2.726   6.379   3.196 -0.1223  0.2130  0.5024
  996TIP3    H224480   2.685   6.446   3.067  0.3005 -0.0872  0.2081
  997TIP3   OH224481   5.634   0.403   2.387  0.1602  0.0094 -0.6532
  997TIP3    H124482   5.642   0.366   2.475  0.6764  0.4123 -0.5246
  997TIP3    H224483   5.651   0.496   2.399  0.7947 -0.0215 -1.2589
  998TIP3   OH224484   4.155   3.262  12.229  0.2132  0.3118 -0.1395
  998TIP3    H124485   4.086   3.223  12.175 -1.0687  2.3647 -0.1191
  998TIP3    H224486   4.128   3.244  12.319  1.2003 -1.2314 -0.1168
  999TIP3   OH224487   6.063   4.236   1.807 -0.0073 -0.1455 -0.6620
  999TIP3    H124488   6.046   4.303   1.741  0.1473  1.4915  0.8908
  999TIP3    H224489   6.125   4.176   1.765  0.4724  1.1151 -1.8174
 1000TIP3   OH224490   1.573   1.012   1.113 -0.3029 -0.5780  0.4368
 1000TIP3    H124491   1.631   1.035   1.040 -1.2270 -0.1949 -0.2043
 1000TIP3    H224492   1.534   0.929   1.087 -0.9450 -0.2384  0.2882
 1001TIP3   OH224493   2.775   3.951  16.737  0.5012  0.3879 -0.2779
 1001TIP3    H124494   2.812   3.908  16.661  3.6212  1.9880  0.1536
 1001TIP3    H224495   2.787   4.045  16.720 -0.5259  0.8652  1.3406
 1002TIP3   OH224496   0.872   5.997  15.337 -0.0251  0.0163 -0.0083
 1002TIP3    H124497   0.917   5.987  15.421 -1.4659 -1.3781  0.6716
 1002TIP3    H224498   0.907   6.077  15.300  1.2152  0.2631  1.5737
 1003TIP3   OH224499   2.844   0.053   3.287  0.1492 -0.6367  0.4363
 1003TIP3    H124500   2.847  -0.042   3.292 -1.5334 -0.6928  1.0607
 1003TIP3    H224501   2.759   0.077   3.325  0.2780  1.0700 -0.2338
 1004TIP3   OH224502   1.946   1.974  15.686  0.5516  0.7297  0.2150
 1004TIP3    H124503   1.865   2.025  15.692 -0.2586 -0.4316 -0.4574
 1004TIP3    H224504   1.960   1.942  15.775 -0.9941 -0.8882 -0.0521
 1005TIP3   OH224505   6.263   1.673   2.730 -0.0897  0.1478  0.0667
 1005TIP3    H124506   6.229   1.677   2.640 -2.3538  0.4287  0.8503
 1005TIP3    H224507   6.269   1.764   2.758  0.8509  0.0717  0.1222
 1006TIP3   OH224508   1.736   0.018  13.552 -0.3146  0.3257 -0.3844
 1006TIP3    H124509   1.641   0.019  13.560 -0.3010 -0.1844 -0.1414
 1006TIP3    H224510   1.762   0.109  13.562 -0.5369  0.1497  2.3256
 1007TIP3   OH224511   0.442   4.394  13.038  0.4603 -0.0331 -0.4867
 1007TIP3    H124512   0.403   4.311  13.063  2.4521 -1.2527 -1.1698
 1007TIP3    H224513   0.512   4.370  12.977  1.4988  2.1005 -0.2238
 1008TIP3   OH224514   4.139   4.290  15.669 -0.6587  0.0710 -0.5878
 1008TIP3    H124515   4.125   4.198  15.648  1.2918 -0.0139 -1.8419
 1008TIP3    H224516   4.133   4.295  15.764  0.2269 -1.5790 -0.4103
 1009TIP3   OH224517   0.748   4.266   1.981  0.1543  0.5117 -0.3151
 1009TIP3    H124518   0.692   4.203   2.027  0.7316  0.8943  0.9577
 1009TIP3    H224519   0.688   4.337   1.957 -0.2310  0.1289 -0.5083
 1010TIP3   OH224520   2.439   1.836  12.240  0.0105  0.0452  0.1877
 1010TIP3    H124521   2.441   1.908  12.302  0.1276 -0.1487  0.4097
 1010TIP3    H224522   2.377   1.774  12.277  0.1550 -0.1151  0.1635
 1011TIP3   OH224523   4.204   5.071  16.131 -0.7049 -0.0907 -0.2406
 1011TIP3    H124524   4.230   5.003  16.070  0.9320 -1.5802  1.9343
 1011TIP3    H224525   4.258   5.147  16.108  0.4631 -0.8842 -0.2115
 1012TIP3   OH224526   1.778   0.098  11.655  0.0872  0.5636 -0.5600
 1012TIP3    H124527   1.759   0.032  11.588 -0.7100  1.5219 -1.2838
 1012TIP3    H224528   1.718   0.078  11.726 -0.4624  0.7827 -0.9619
 1013TIP3   OH224529   5.070   6.762   4.912 -0.3815 -0.2182 -0.1746
 1013TIP3    H124530   4.995   6.812   4.944  0.4114 -0.2758  1.9436
 1013TIP3    H224531   5.041   6.671   4.916 -0.5046 -0.1800 -0.1942
 1014TIP3   OH224532   6.396   1.614   3.378 -0.5481  0.3109 -0.7184
 1014TIP3    H124533   6.442   1.656   3.451 -0.4437 -1.2578  0.1624
 1014TIP3    H224534   6.466   1.593   3.315 -0.5438  1.0123 -0.9585
 1015TIP3   OH224535   4.823   3.662   4.726  0.3801 -0.4614 -0.0799
 1015TIP3    H124536   4.763   3.711   4.783  2.0646 -0.3200  1.6620
 1015TIP3    H224537   4.800   3.570   4.741  1.7864 -0.5309  2.1231
 1016TIP3   OH224538   1.465   5.044   3.789  0.1038 -0.0749  0.2162
 1016TIP3    H124539   1.554   5.017   3.765  0.2932  0.5820  0.1797
 1016TIP3    H224540   1.434   4.974   3.846  0.1809 -0.9417 -0.7711
 1017TIP3   OH224541   2.338   6.289   3.798 -0.1387  0.0864 -0.0087
 1017TIP3    H124542   2.339   6.234   3.877 -1.7634 -2.1008 -1.3995
 1017TIP3    H224543   2.421   6.336   3.802  0.1241 -0.4044  2.6700
 1018TIP3   OH224544   1.486   2.756  11.608 -0.4726 -0.1707  0.1066
 1018TIP3    H124545   1.513   2.740  11.518  0.6280  0.5904  0.2631
 1018TIP3    H224546   1.424   2.687  11.628  1.5717 -2.2519 -0.2488
 1019TIP3   OH224547   1.541   3.667   2.292 -0.1745  0.4199  0.6671
 1019TIP3    H124548   1.583   3.753   2.287 -0.7935  0.6795 -0.4409
 1019TIP3    H224549   1.447   3.687   2.296 -0.3160 -0.2056  0.4967
 1020TIP3   OH224550   4.539   0.611   2.353  0.2096  0.2024  0.0462
 1020TIP3    H124551   4.581   0.696   2.369  1.0903 -0.6270  2.8453
 1020TIP3    H224552   4.458   0.632   2.308  0.4935  2.5127  0.4881
 1021TIP3   OH224553   1.239   0.740  15.800  0.0913 -0.7519 -0.2096
 1021TIP3    H124554   1.174   0.765  15.865  0.0049 -1.0800 -0.1690
 1021TIP3    H224555   1.195   0.752  15.716  0.5938  0.8696 -0.2951
 1022TIP3   OH224556   1.190   3.140   5.301 -0.2030  0.2884  0.2955
 1022TIP3    H124557   1.126   3.071   5.314 -0.3965  0.6010  1.0512
 1022TIP3    H224558   1.188   3.158   5.207  0.8889 -1.7159 -0.1637
 1023TIP3   OH224559   2.564   3.512  14.363  0.2483 -0.2206  0.1692
 1023TIP3    H124560   2.629   3.488  14.297 -0.2905  1.9302 -1.2640
 1023TIP3    H224561   2.494   3.555  14.312 -1.4381 -0.8202  1.8608
 1024TIP3   OH224562   2.721   5.644   2.110  0.1195 -0.4424 -0.1559
 1024TIP3    H124563   2.648   5.626   2.051 -0.5846 -1.0160  0.8552
 1024TIP3    H224564   2.796   5.654   2.053 -0.4605 -1.4031 -1.1286
 1025TIP3   OH224565   3.395   1.980   1.919  0.1124  0.2808 -0.1496
 1025TIP3    H124566   3.381   1.909   1.982  1.2930  0.8942  0.8421
 1025TIP3    H224567   3.472   1.952   1.869  0.3013  0.6487 -0.0644
 1026TIP3   OH224568   1.793   3.195   0.932  0.0385 -0.4822 -0.2601
 1026TIP3    H124569   1.865   3.229   0.985 -0.9069  0.8148  0.2622
 1026TIP3    H224570   1.723   3.179   0.995 -0.2952 -1.2518 -0.8190
 1027TIP3   OH224571   0.930   6.193   3.827 -0.4158  0.2989  0.5424
 1027TIP3    H124572   0.889   6.246   3.759  1.8240  0.9142 -0.4147
 1027TIP3    H224573   0.905   6.103   3.806  0.3975  0.4573 -1.2469
 1028TIP3   OH224574   4.579   1.311   5.306  0.2408  0.1614 -0.4560
 1028TIP3    H124575   4.515   1.379   5.288 -0.6622 -0.6268 -0.2753
 1028TIP3    H224576   4.605   1.278   5.220  0.2252  0.3123 -0.5181
 1029TIP3   OH224577   1.961   3.622  14.296  0.1131  0.2769 -0.0712
 1029TIP3    H124578   1.974   3.599  14.388  0.6987  0.5902 -0.0721
 1029TIP3    H224579   1.866   3.628  14.286  0.0571  0.8475  0.6708
 1030TIP3   OH224580   1.295   6.154  15.368 -0.1888 -0.8110  0.2896
 1030TIP3    H124581   1.353   6.181  15.439  0.9933 -0.1872 -0.8745
 1030TIP3    H224582   1.210   6.142  15.411  0.5725 -0.8521  1.8713
 1031TIP3   OH224583   5.423   1.250  14.247 -0.1006 -0.6200 -0.0235
 1031TIP3    H124584   5.432   1.244  14.342 -0.5285  0.2145  0.0741
 1031TIP3    H224585   5.335   1.216  14.229 -0.4876  0.3595  0.0042
 1032TIP3   OH224586   6.679   1.455  14.300 -0.0085  0.1774 -0.3191
 1032TIP3    H124587   6.774   1.443  14.313 -0.3015 -0.2242  1.8228
 1032TIP3    H224588   6.671   1.545  14.267  1.2510 -0.6367 -3.2400
 1033TIP3   OH224589   5.080   2.825   3.366 -0.0881 -0.4110 -0.2623
 1033TIP3    H124590   4.984   2.831   3.368 -0.0442  1.4642 -1.2144
 1033TIP3    H224591   5.106   2.835   3.458 -0.7922 -1.1625  0.0366
 1034TIP3   OH224592   2.631   4.616  16.563 -0.0480 -0.5748  0.0212
 1034TIP3    H124593   2.674   4.636  16.480  1.1277 -0.6531  0.5879
 1034TIP3    H224594   2.542   4.589  16.539  0.0800 -0.0008 -1.1524
 1035TIP3   OH224595   2.811   2.577   2.706  0.2040  0.1202  0.0088
 1035TIP3    H124596   2.904   2.568   2.728  0.4851  0.0729 -1.1379
 1035TIP3    H224597   2.800   2.671   2.690 -0.0604  0.1950  0.6213
 1036TIP3   OH224598   4.156   6.045   1.375 -0.0900 -0.3340 -0.5769
 1036TIP3    H124599   4.085   6.029   1.313 -0.2132  0.6671 -0.7087
 1036TIP3    H224600   4.234   6.057   1.320  0.2235 -1.4895 -0.4320
 1037TIP3   OH224601   0.238   5.731  15.607  0.0378 -0.5780  0.7764
 1037TIP3    H124602   0.267   5.647  15.644 -1.0799 -0.9707  0.8062
 1037TIP3    H224603   0.319   5.773  15.578  0.5760 -1.9301  0.2082
 1038TIP3   OH224604   2.124   1.329  11.469  0.2570 -0.1900  0.0350
 1038TIP3    H124605   2.068   1.333  11.392 -1.1051 -1.1040  0.9323
 1038TIP3    H224606   2.194   1.268  11.444  0.6778  0.6644 -0.9602
 1039TIP3   OH224607   6.602   3.532  12.919  0.0921 -0.4105  0.0303
 1039TIP3    H124608   6.683   3.489  12.890 -0.7880 -1.8550 -0.4355
 1039TIP3    H224609   6.533   3.487  12.869 -1.0915  0.0228  1.2356
 1040TIP3   OH224610   2.951   0.946   5.284  0.5107 -0.7351  0.5513
 1040TIP3    H124611   3.014   1.014   5.261  1.1462 -1.0735  1.2424
 1040TIP3    H224612   2.884   0.951   5.216  0.5204  0.6103  0.6201
 1041TIP3   OH224613   0.384   2.032  13.076  0.6488 -0.2765 -0.1069
 1041TIP3    H124614   0.327   2.099  13.113  1.4075  0.0160  0.5668
 1041TIP3    H224615   0.363   2.031  12.983 -0.1973  0.0755  0.0755
 1042TIP3   OH224616   0.194   3.102  10.216  0.3334 -0.2630 -0.3445
 1042TIP3    H124617   0.128   3.169  10.197 -1.0899 -1.6368 -0.4665
 1042TIP3    H224618   0.248   3.140  10.285 -0.0531  1.2223 -0.8052
 1043TIP3   OH224619   2.190   5.608   2.653  0.0819  0.2144 -0.1836
 1043TIP3    H124620   2.276   5.567   2.646 -0.1574 -1.0773  2.8090
 1043TIP3    H224621   2.128   5.534   2.648 -0.6904  0.8370 -0.0252
 1044TIP3   OH224622   1.013   6.310  14.935 -0.0778  0.2757  0.0151
 1044TIP3    H124623   1.095   6.272  14.967  0.0255  0.0697 -0.4826
 1044TIP3    H224624   0.955   6.234  14.927  0.2489  0.1492 -1.3575
 1045TIP3   OH224625   1.639   6.225  15.318 -0.0768  0.2441 -0.4324
 1045TIP3    H124626   1.712   6.194  15.264 -0.0935 -0.3118 -0.1414
 1045TIP3    H224627   1.562   6.214  15.262  0.3964  4.7001 -2.4079
 1046TIP3   OH224628   1.536   1.917  13.915  0.2235 -0.4871  0.1634
 1046TIP3    H124629   1.476   1.850  13.948 -1.0638  0.0563 -0.9791
 1046TIP3    H224630   1.481   1.974  13.861  1.3503  1.2594  0.7604
 1047TIP3   OH224631   5.523   1.274   6.693  0.2018  0.2238  0.2816
 1047TIP3    H124632   5.617   1.289   6.707 -0.1603 -0.0628  3.8833
 1047TIP3    H224633   5.519   1.202   6.629  2.4124  0.1242  0.1866
 1048TIP3   OH224634   0.674   1.010   6.654  0.6764  0.3221  0.3484
 1048TIP3    H124635   0.749   0.959   6.624 -0.6221 -0.3616 -2.0388
 1048TIP3    H224636   0.684   1.095   6.613  0.5315  0.4788  0.6350
 1049TIP3   OH224637   2.567   2.910   2.748  0.4903  0.1554 -0.5115
 1049TIP3    H124638   2.563   3.005   2.738  0.0199  0.4378  1.7021
 1049TIP3    H224639   2.476   2.884   2.765  0.8399 -0.4388  0.5310
 1050TIP3   OH224640   4.254   4.898   5.194 -0.6165 -0.1987  0.6563
 1050TIP3    H124641   4.230   4.893   5.102 -0.3106 -0.7173  0.6022
 1050TIP3    H224642   4.185   4.952   5.234 -0.7544  0.0149  0.1305
 1051TIP3   OH224643   4.349   1.188   3.067  0.0757 -0.1773  0.6684
 1051TIP3    H124644   4.318   1.100   3.047 -0.0982  0.1029 -0.3721
 1051TIP3    H224645   4.392   1.217   2.986  0.7014  0.4540  1.2105
 1052TIP3   OH224646   2.572   5.615  12.911 -0.6320  0.4096  0.2880
 1052TIP3    H124647   2.638   5.683  12.916  0.4727 -0.5566 -0.4752
 1052TIP3    H224648   2.495   5.658  12.874 -0.6101  1.6622  1.6337
 1053TIP3   OH224649   1.470   4.357   3.222  0.2630  0.4653  0.2978
 1053TIP3    H124650   1.399   4.398   3.271 -0.3429 -2.8109  2.4990
 1053TIP3    H224651   1.536   4.336   3.288  1.2107 -0.6463 -0.9388
 1054TIP3   OH224652   2.574   0.184  13.750 -0.0679 -0.2211 -0.2704
 1054TIP3    H124653   2.597   0.100  13.708  0.2217 -1.5034  2.2859
 1054TIP3    H224654   2.479   0.189  13.743  0.0259  0.1316 -1.9166
 1055TIP3   OH224655   0.987   5.350   4.339 -0.2261  0.0830  0.2758
 1055TIP3    H124656   1.066   5.387   4.378  0.4486 -0.2208 -0.7825
 1055TIP3    H224657   0.995   5.256   4.353  0.3049 -0.0924 -1.0531
 1056TIP3   OH224658   4.906   6.253  13.648  0.4276 -0.3478  0.0436
 1056TIP3    H124659   4.905   6.178  13.588 -0.1248  0.8442 -1.5051
 1056TIP3    H224660   4.953   6.321  13.600  2.2734 -0.1136  2.0118
 1057TIP3   OH224661   2.960   5.928  11.319  0.4118 -0.4015  0.7413
 1057TIP3    H124662   2.918   6.009  11.289 -1.1681 -1.1104  0.9241
 1057TIP3    H224663   3.025   5.909  11.251  0.2522  0.5912  0.2849
 1058TIP3   OH224664   6.235   3.622   2.770 -0.4402 -0.0223  0.1278
 1058TIP3    H124665   6.268   3.583   2.851 -2.4031 -0.9207  0.5568
 1058TIP3    H224666   6.257   3.557   2.702 -2.6940 -1.4962  0.6749
 1059TIP3   OH224667   0.477   3.194  11.857  0.1317  0.1753 -0.3428
 1059TIP3    H124668   0.538   3.189  11.784  0.5582 -0.6425  0.0658
 1059TIP3    H224669   0.498   3.277  11.900 -0.0180  0.5842 -1.0370
 1060TIP3   OH224670   5.517   2.961  16.797  0.5444 -0.4047  0.0813
 1060TIP3    H124671   5.465   2.884  16.775 -1.0874  0.7068 -0.1584
 1060TIP3    H224672   5.470   3.001  16.870  0.1975  1.4054 -1.0546
 1061TIP3   OH224673   3.782   3.117   5.816 -0.1948 -0.3101 -0.7848
 1061TIP3    H124674   3.790   3.212   5.827 -0.8524 -0.3194 -0.1650
 1061TIP3    H224675   3.848   3.081   5.876 -1.0635 -0.2734  0.2091
 1062TIP3   OH224676   3.132   4.846   3.656  0.3744 -0.4511  0.2319
 1062TIP3    H124677   3.165   4.758   3.636  0.3889 -0.1411 -1.2572
 1062TIP3    H224678   3.038   4.840   3.636  0.7335  0.4003 -1.9806
 1063TIP3   OH224679   0.672   5.982   4.021 -0.2623 -0.2464 -0.7746
 1063TIP3    H124680   0.714   6.004   3.937 -0.0146  1.0189 -0.3326
 1063TIP3    H224681   0.579   5.999   4.006 -0.5181 -1.9202 -1.3808
 1064TIP3   OH224682   0.856   3.716   5.093 -0.1081  0.1308 -0.0136
 1064TIP3    H124683   0.931   3.755   5.049  0.3958 -0.2966  0.4493
 1064TIP3    H224684   0.781   3.740   5.039  0.1092  2.1339  0.4947
 1065TIP3   OH224685   4.981   2.022  12.975 -0.2897 -0.4006  0.4057
 1065TIP3    H124686   4.931   2.001  12.895  0.3605  0.2250 -0.1800
 1065TIP3    H224687   4.997   2.116  12.969  1.8709 -0.7439  0.0183
 1066TIP3   OH224688   6.338   6.688   1.130 -0.1290  0.2000 -0.0498
 1066TIP3    H124689   6.403   6.706   1.198  0.6267  1.9267 -1.1437
 1066TIP3    H224690   6.285   6.767   1.126 -0.2347  0.0964 -1.3411
 1067TIP3   OH224691   1.003   0.591   2.598 -0.3230 -0.3177 -0.1088
 1067TIP3    H124692   1.034   0.674   2.560 -1.3980  0.8588  1.4722
 1067TIP3    H224693   1.043   0.524   2.543  1.1792  1.2198 -1.0076
 1068TIP3   OH224694   3.922   2.494  13.697 -0.3495  0.0258 -0.3853
 1068TIP3    H124695   3.896   2.422  13.755 -1.8364  1.6081  1.0011
 1068TIP3    H224696   3.989   2.541  13.746 -1.1612  1.0115 -0.2032
 1069TIP3   OH224697   1.485   5.949   0.495 -0.2683 -0.4349 -0.5612
 1069TIP3    H124698   1.396   5.982   0.488 -0.0245  0.1233 -1.1306
 1069TIP3    H224699   1.520   5.989   0.575 -0.4383 -0.4314 -0.4901
 1070TIP3   OH224700   4.178   0.409   2.680 -0.0942  0.1864  0.5931
 1070TIP3    H124701   4.092   0.434   2.713 -0.0271 -1.5339  2.2466
 1070TIP3    H224702   4.186   0.317   2.704  1.9171  0.1218 -0.1970
 1071TIP3   OH224703   2.940   0.075  14.950  0.5228  0.0132 -0.7456
 1071TIP3    H124704   2.848   0.102  14.957  0.0933 -1.6205  0.3613
 1071TIP3    H224705   2.954   0.066  14.856 -0.0913  1.3574 -1.0040
 1072TIP3   OH224706   4.035   2.411  14.530  0.3605  0.2232  0.4141
 1072TIP3    H124707   3.971   2.340  14.530 -1.0890  1.4539  1.4583
 1072TIP3    H224708   4.089   2.395  14.607  2.1225 -1.4507 -1.0932
 1073TIP3   OH224709   4.218   5.877  12.659 -0.3612  0.4637  0.3183
 1073TIP3    H124710   4.258   5.935  12.594 -1.4417  1.4989  0.5364
 1073TIP3    H224711   4.125   5.876  12.637 -0.6369  0.2457  1.3992
 1074TIP3   OH224712   1.886   5.513   5.161 -0.2728 -0.1005 -0.6906
 1074TIP3    H124713   1.860   5.601   5.133  3.5266  1.5371  0.1885
 1074TIP3    H224714   1.970   5.498   5.117  0.3051 -2.2957  0.9818
 1075TIP3   OH224715   1.989   1.102  14.354  0.1018 -0.7939 -0.1910
 1075TIP3    H124716   2.012   1.023  14.304 -0.6192  0.0245 -1.9254
 1075TIP3    H224717   1.905   1.130  14.315 -0.2997  0.1059  1.2669
 1076TIP3   OH224718   0.797   2.857  15.573  0.2164  0.2012 -0.9956
 1076TIP3    H124719   0.839   2.893  15.651  0.5264 -0.6141 -0.7714
 1076TIP3    H224720   0.758   2.932  15.529  0.3371  0.7152 -0.2339
 1077TIP3   OH224721   2.228   5.304   0.232  0.1418 -0.7934 -0.5271
 1077TIP3    H124722   2.309   5.347   0.204 -0.6794  0.8987 -0.4105
 1077TIP3    H224723   2.230   5.309   0.328 -0.4341 -0.0543 -0.5414
 1078TIP3   OH224724   1.861   3.616   1.808  0.0469 -0.6304 -0.0322
 1078TIP3    H124725   1.890   3.662   1.887  3.6160 -0.0929 -1.4814
 1078TIP3    H224726   1.822   3.684   1.753  1.5554 -0.1011 -0.4816
 1079TIP3   OH224727   1.528   6.181   3.121  0.1476  0.6552 -0.3500
 1079TIP3    H124728   1.594   6.238   3.161 -0.1741  1.3721 -0.8136
 1079TIP3    H224729   1.515   6.110   3.184 -0.7660  2.0388  1.0898
 1080TIP3   OH224730   3.291   3.067  14.479 -0.2947 -0.3652 -0.1250
 1080TIP3    H124731   3.291   3.025  14.393 -0.6972 -0.4900 -0.0714
 1080TIP3    H224732   3.319   2.997  14.539  0.1032 -0.2439 -0.1697
 1081TIP3   OH224733   3.566   0.930  14.633  0.0213 -0.3171  0.0594
 1081TIP3    H124734   3.569   0.914  14.728 -1.0503  0.7335  0.2869
 1081TIP3    H224735   3.477   0.907  14.608  0.6743 -1.9269 -0.9857
 1082TIP3   OH224736   5.854   5.595   2.095  0.1475 -0.6219 -0.0525
 1082TIP3    H124737   5.769   5.639   2.092  1.4383  2.1817  0.6849
 1082TIP3    H224738   5.890   5.606   2.007 -0.0206 -1.3114 -0.2092
 1083TIP3   OH224739   5.333   6.434   4.823  0.0935  0.5874 -0.0387
 1083TIP3    H124740   5.243   6.426   4.792  1.0439 -0.4603 -2.7985
 1083TIP3    H224741   5.330   6.508   4.884 -2.1598  2.2545 -1.9790
 1084TIP3   OH224742   6.703   3.185   1.682  0.3705  0.5657  0.2575
 1084TIP3    H124743   6.666   3.257   1.631 -0.0841  0.2249  0.0924
 1084TIP3    H224744   6.775   3.224   1.731 -0.5564  1.3796  1.0135
 1085TIP3   OH224745   2.105   1.883  11.863 -0.2526 -0.3124 -0.0404
 1085TIP3    H124746   2.198   1.859  11.863 -0.1065  0.2510 -0.1202
 1085TIP3    H224747   2.071   1.846  11.781  0.1097  0.2649 -0.4609
 1086TIP3   OH224748   5.667   0.044   0.711 -0.1480 -0.2715  0.4233
 1086TIP3    H124749   5.694  -0.036   0.756 -1.2678  0.1418  1.9134
 1086TIP3    H224750   5.578   0.025   0.682 -0.1896  0.2172  0.2393
 1087TIP3   OH224751   5.107   2.321   1.497 -0.3455  0.9968  0.9040
 1087TIP3    H124752   5.106   2.280   1.583  1.3161 -0.5256  0.2567
 1087TIP3    H224753   5.129   2.412   1.514 -1.7641  1.1415  2.1927
 1088TIP3   OH224754   1.419   1.920   3.369 -0.0066 -0.6657 -0.2984
 1088TIP3    H124755   1.478   1.927   3.294 -0.3676 -0.0367 -0.5259
 1088TIP3    H224756   1.373   2.004   3.372 -0.0780 -0.7244  0.5575
 1089TIP3   OH224757   2.698   2.027  11.375  0.4121 -0.0199  0.7208
 1089TIP3    H124758   2.703   1.963  11.304 -0.6494 -0.5173  1.0791
 1089TIP3    H224759   2.677   2.110  11.331  0.4537 -0.1845  0.3899
 1090TIP3   OH224760   1.448   5.812  14.131  0.1248  0.0219  0.0716
 1090TIP3    H124761   1.371   5.818  14.187 -1.1909 -1.0639 -1.5590
 1090TIP3    H224762   1.496   5.894  14.148 -2.4041  1.7011 -0.3639
 1091TIP3   OH224763   0.163   0.854  12.504 -0.5242  0.2622 -0.0862
 1091TIP3    H124764   0.229   0.792  12.471 -2.0741 -1.8379  0.5482
 1091TIP3    H224765   0.179   0.934  12.453  1.8869 -0.4429 -0.6004
 1092TIP3   OH224766   5.260   4.622  15.981 -0.1137 -0.4431  0.1459
 1092TIP3    H124767   5.251   4.691  16.047 -0.2141  0.4475 -0.7736
 1092TIP3    H224768   5.355   4.609  15.973 -0.1057 -0.7381  0.6300
 1093TIP3   OH224769   5.064   4.945  14.386 -0.4571 -0.5763 -0.4415
 1093TIP3    H124770   5.122   4.911  14.318  0.5595  1.1809 -0.4993
 1093TIP3    H224771   5.122   4.992  14.446 -1.5988 -0.3380  0.5137
 1094TIP3   OH224772   0.229   1.370   1.674 -0.8751  0.2102  0.3043
 1094TIP3    H124773   0.270   1.327   1.748 -2.6208  1.8342  2.3288
 1094TIP3    H224774   0.163   1.307   1.643 -0.2777 -0.3939  0.2351
 1095TIP3   OH224775   5.096   2.217  14.249  0.1317  0.5114 -0.3324
 1095TIP3    H124776   5.157   2.200  14.178  0.4553 -0.3207  0.1289
 1095TIP3    H224777   5.058   2.302  14.228  0.3527  0.3621 -1.3990
 1096TIP3   OH224778   6.205   6.339   5.493  0.1458 -0.3196 -0.0730
 1096TIP3    H124779   6.148   6.359   5.418 -0.6833  0.5841  0.7807
 1096TIP3    H224780   6.275   6.405   5.488 -0.3429  0.2349  0.4002
 1097TIP3   OH224781   3.892   3.672   1.271  0.4667 -0.0044  0.9135
 1097TIP3    H124782   3.871   3.764   1.288  0.1228  0.2742 -0.7993
 1097TIP3    H224783   3.821   3.623   1.312 -0.4597  0.6296  0.1258
 1098TIP3   OH224784   5.293   1.473   5.103  0.0620  0.5435  0.1902
 1098TIP3    H124785   5.218   1.528   5.080 -1.2648 -0.9894  0.5973
 1098TIP3    H224786   5.369   1.518   5.068 -1.0860  2.0397 -0.4556
 1099TIP3   OH224787   3.383   5.853  13.113 -0.1790 -0.0433 -0.0055
 1099TIP3    H124788   3.419   5.931  13.157 -2.2797  1.0909 -0.1704
 1099TIP3    H224789   3.425   5.779  13.157 -0.1176  1.1136  2.0209
 1100TIP3   OH224790   6.791   1.167   0.400  0.1262 -0.2640  0.1546
 1100TIP3    H124791   6.807   1.086   0.352 -1.9780 -0.6794  0.0451
 1100TIP3    H224792   6.804   1.236   0.335  1.1080 -0.5435  0.0337
 1101TIP3   OH224793   1.273   0.766   3.308  0.4342 -0.0859 -0.3140
 1101TIP3    H124794   1.365   0.751   3.289  1.1687  1.7856  1.3203
 1101TIP3    H224795   1.253   0.851   3.268 -0.5668 -0.4468 -0.6157
 1102TIP3   OH224796   4.829   2.012  12.747 -0.0788 -0.1696  0.3354
 1102TIP3    H124797   4.865   1.986  12.662  1.1157 -0.8000  0.9992
 1102TIP3    H224798   4.778   2.091  12.728 -0.2866 -0.5997 -1.0485
 1103TIP3   OH224799   5.651   0.827   4.499 -0.1682 -0.4361 -0.1877
 1103TIP3    H124800   5.586   0.850   4.433 -1.0790 -2.3024  0.0173
 1103TIP3    H224801   5.664   0.908   4.549 -2.5943 -0.1037 -0.0127
 1104TIP3   OH224802   6.811   5.851  17.195  0.1324 -0.2268  0.6137
 1104TIP3    H124803   6.900   5.875  17.170  0.0931 -0.7149 -0.0312
 1104TIP3    H224804   6.821   5.773  17.250  0.0064 -1.9140 -1.5939
 1105TIP3   OH224805   5.342   1.745  11.652 -0.6204  0.3844  0.1192
 1105TIP3    H124806   5.309   1.715  11.567 -1.4868 -0.9430  0.9026
 1105TIP3    H224807   5.437   1.741  11.643 -0.6844  0.7089 -0.9283
 1106TIP3   OH224808   0.227   2.141   5.063 -0.3638  0.9626  0.2752
 1106TIP3    H124809   0.227   2.046   5.068 -0.6181  0.8833 -0.9198
 1106TIP3    H224810   0.313   2.167   5.097  2.1941 -0.0721 -4.5589
 1107TIP3   OH224811   4.237   1.027   5.121 -0.0767  0.9792 -0.3605
 1107TIP3    H124812   4.275   0.949   5.162 -0.1887  0.1981 -1.6703
 1107TIP3    H224813   4.143   1.017   5.133 -0.0383  1.4010  0.2998
 1108TIP3   OH224814   0.678   5.699  17.065  0.3009  0.0085 -0.7039
 1108TIP3    H124815   0.743   5.632  17.086 -1.2478 -1.4787 -0.4870
 1108TIP3    H224816   0.707   5.776  17.115 -0.2342 -1.7974  2.7241
 1109TIP3   OH224817   2.774   0.529  13.281  0.5189 -0.2306 -0.2272
 1109TIP3    H124818   2.719   0.529  13.359  0.9427  0.8897  0.0935
 1109TIP3    H224819   2.863   0.515  13.314  0.5366 -1.2182 -0.6617
 1110TIP3   OH224820   1.500   5.402   4.918 -0.2135  0.3659 -0.4115
 1110TIP3    H124821   1.469   5.313   4.930 -1.1560  0.7223 -0.1583
 1110TIP3    H224822   1.446   5.455   4.975  0.9060  1.0070  0.0972
 1111TIP3   OH224823   4.339   6.402  15.095  0.0632 -0.0012 -0.1133
 1111TIP3    H124824   4.248   6.415  15.122  0.1132  0.2990 -0.0861
 1111TIP3    H224825   4.388   6.471  15.140  0.1755  0.3854 -0.8095
 1112TIP3   OH224826   2.752   5.508   5.069  0.1369 -0.1928 -0.2333
 1112TIP3    H124827   2.711   5.423   5.053  0.3320 -0.2039 -0.7011
 1112TIP3    H224828   2.846   5.491   5.060  0.1583  0.1425 -0.7022
 1113TIP3   OH224829   4.404   5.607   0.124 -0.0770  0.0971  0.3219
 1113TIP3    H124830   4.491   5.629   0.157 -1.2081  0.3524  3.3980
 1113TIP3    H224831   4.347   5.674   0.160 -1.5746  0.1914 -1.9959
 1114TIP3   OH224832   3.006   1.437   0.275  0.8371 -0.0273 -0.0324
 1114TIP3    H124833   3.053   1.492   0.337  0.3802  1.4576 -0.9629
 1114TIP3    H224834   2.979   1.496   0.205 -1.2451 -1.0604 -0.1924
 1115TIP3   OH224835   5.238   4.658  16.434  0.2085  0.7146  0.1008
 1115TIP3    H124836   5.294   4.669  16.511  0.9861 -0.7934 -0.2081
 1115TIP3    H224837   5.300   4.652  16.361 -0.2873 -1.1141 -0.2306
 1116TIP3   OH224838   0.746   3.769  14.631 -0.3949 -0.0370 -0.6140
 1116TIP3    H124839   0.800   3.804  14.702 -0.4280 -0.1529 -0.5317
 1116TIP3    H224840   0.788   3.800  14.551  0.0111 -0.4366 -0.5618
 1117TIP3   OH224841   2.801   2.084  11.637  0.0294 -0.2550 -0.3616
 1117TIP3    H124842   2.777   2.073  11.545 -1.5611 -0.0159  0.0014
 1117TIP3    H224843   2.727   2.048  11.686 -0.9105  2.9374  0.8238
 1118TIP3   OH224844   4.742   6.633  11.260  0.3964  0.2895  0.0800
 1118TIP3    H124845   4.748   6.720  11.299  0.0973  0.0719  0.6201
 1118TIP3    H224846   4.805   6.579  11.308  0.5954  0.2108 -0.2647
 1119TIP3   OH224847   0.941   2.888   1.291 -0.0005 -0.1468  0.3695
 1119TIP3    H124848   0.946   2.977   1.257  1.3265 -0.4697 -0.3365
 1119TIP3    H224849   0.864   2.850   1.248  1.9257 -0.7400 -2.8805
 1120TIP3   OH224850   3.307   2.174  12.453  0.1571  0.0249 -0.3733
 1120TIP3    H124851   3.384   2.215  12.414  0.2891  1.4343  1.2605
 1120TIP3    H224852   3.339   2.093  12.492  0.7842  0.5030  0.1197
 1121TIP3   OH224853   0.500   0.363  11.540  0.4416  0.5920  0.6057
 1121TIP3    H124854   0.406   0.376  11.525  0.3699 -1.2756 -0.9130
 1121TIP3    H224855   0.509   0.270  11.560  1.8649  0.9578  1.8396
 1122TIP3   OH224856   6.571   4.192  12.195  0.6162  0.3168 -0.0538
 1122TIP3    H124857   6.488   4.217  12.154  1.1470  0.8204 -0.8455
 1122TIP3    H224858   6.621   4.150  12.125  1.1980  0.4145  0.2989
 1123TIP3   OH224859   5.629   6.367  13.263  0.5322 -0.0373  0.2541
 1123TIP3    H124860   5.685   6.290  13.278 -0.1882 -0.8243 -0.9247
 1123TIP3    H224861   5.624   6.374  13.167 -1.6604 -0.2101  0.3112
 1124TIP3   OH224862   3.824   2.171  12.925  0.5208  0.0969  0.3953
 1124TIP3    H124863   3.745   2.226  12.929  1.3811  1.4222 -0.0470
 1124TIP3    H224864   3.792   2.083  12.941 -1.1387  0.5287 -0.2375
 1125TIP3   OH224865   4.792   6.055   2.649  0.7397 -0.4469 -0.3464
 1125TIP3    H124866   4.808   6.102   2.567  1.0825 -0.4466 -0.2821
 1125TIP3    H224867   4.698   6.064   2.664  0.7028 -0.3035 -0.6520
 1126TIP3   OH224868   6.342   2.760   0.815 -0.1160  0.2113 -0.2977
 1126TIP3    H124869   6.420   2.733   0.766 -0.5551  2.2693 -2.3130
 1126TIP3    H224870   6.269   2.724   0.765 -0.5570 -2.1226  1.8481
 1127TIP3   OH224871   4.775   5.641   3.030 -0.5972 -0.4359 -0.1710
 1127TIP3    H124872   4.703   5.624   2.969 -0.9251 -1.6881  0.5339
 1127TIP3    H224873   4.843   5.577   3.007  1.0652  1.8112 -1.9417
 1128TIP3   OH224874   2.560   6.050  15.018 -0.1146 -0.1784 -0.9136
 1128TIP3    H124875   2.573   6.105  15.095 -1.4397  1.3022 -1.6660
 1128TIP3    H224876   2.648   6.025  14.990  0.3816 -0.8838  1.1286
 1129TIP3   OH224877   4.783   6.749   1.260  0.1956 -0.2913  0.6812
 1129TIP3    H124878   4.879   6.758   1.264  0.1020  0.6685  1.0308
 1129TIP3    H224879   4.760   6.713   1.346  0.2338 -0.4177  0.6385
 1130TIP3   OH224880   5.960   3.463   2.383  0.2088 -0.3536 -0.6298
 1130TIP3    H124881   5.972   3.553   2.353  0.8814  0.1315  1.0290
 1130TIP3    H224882   6.027   3.450   2.450 -1.3263 -1.3256  0.8036
 1131TIP3   OH224883   4.371   5.169  11.204  0.1703 -0.0825 -0.3898
 1131TIP3    H124884   4.452   5.145  11.250 -0.5906 -2.5050 -0.1369
 1131TIP3    H224885   4.313   5.094  11.219 -2.9299  2.4282  1.2441
 1132TIP3   OH224886   2.641   4.191  12.230  0.4593  1.3616 -0.2081
 1132TIP3    H124887   2.628   4.280  12.197  2.2299  2.1300  0.9966
 1132TIP3    H224888   2.661   4.203  12.323  1.2272 -0.2547 -0.1359
 1133TIP3   OH224889   6.047   6.143   6.135 -0.2436 -0.3576  0.3265
 1133TIP3    H124890   6.035   6.223   6.186 -0.9620 -1.0626  1.2821
 1133TIP3    H224891   5.960   6.104   6.130 -0.6182  0.5904 -3.0225
 1134TIP3   OH224892   1.858   5.732  14.033 -0.5005 -0.3774 -0.4559
 1134TIP3    H124893   1.904   5.654  14.002 -1.4301 -0.7086 -1.0445
 1134TIP3    H224894   1.781   5.739  13.977 -0.8571  0.5124  0.1110
 1135TIP3   OH224895   6.816   1.866  13.129  0.0308  0.6064  0.1660
 1135TIP3    H124896   6.815   1.778  13.166 -1.3119  0.8229  0.6933
 1135TIP3    H224897   6.838   1.853  13.036  2.1782 -0.0452  0.7062
 1136TIP3   OH224898   1.364   0.169  10.727 -0.5213  0.1363  0.2192
 1136TIP3    H124899   1.329   0.161  10.638  0.2370  0.1601 -0.0905
 1136TIP3    H224900   1.294   0.137  10.784 -0.5614 -1.0399 -0.4641
 1137TIP3   OH224901   3.528   4.005   0.025 -0.3344  0.6394 -0.4592
 1137TIP3    H124902   3.570   3.935  -0.026  2.0448  0.7474  1.2010
 1137TIP3    H224903   3.598   4.040   0.080 -2.6526  0.7147  2.7158
 1138TIP3   OH224904   6.512   4.040   5.738  0.0471  0.1925  0.0244
 1138TIP3    H124905   6.571   4.004   5.671 -0.3796  1.3304 -0.9841
 1138TIP3    H224906   6.454   3.967   5.761  1.5908 -0.8559  0.7892
 1139TIP3   OH224907   4.468   4.801   1.219 -0.0596 -0.0313 -0.7888
 1139TIP3    H124908   4.450   4.892   1.198  0.3584  0.1335 -0.4403
 1139TIP3    H224909   4.389   4.754   1.190 -0.1121  0.3819 -1.3343
 1140TIP3   OH224910   3.094   3.530   0.490 -0.2155  0.4845  0.4247
 1140TIP3    H124911   3.119   3.438   0.473  0.2838  0.8149 -0.7960
 1140TIP3    H224912   3.041   3.526   0.569  1.2521 -0.6470  1.4249
 1141TIP3   OH224913   4.349   2.442  17.085  0.7621  0.4562 -0.2800
 1141TIP3    H124914   4.405   2.507  17.044  0.5770 -0.2537 -1.7071
 1141TIP3    H224915   4.346   2.369  17.023 -0.4053 -0.2061  0.5055
 1142TIP3   OH224916   6.765   0.787  12.627  0.2021 -0.3013  0.0841
 1142TIP3    H124917   6.696   0.848  12.601 -0.6462 -1.2774 -0.0316
 1142TIP3    H224918   6.836   0.803  12.566 -0.2975  0.0573 -0.4127
 1143TIP3   OH224919   1.860   5.261   2.468  0.4302  0.2105 -0.2408
 1143TIP3    H124920   1.825   5.321   2.402 -0.6824 -0.1030  0.0480
 1143TIP3    H224921   1.833   5.174   2.438  2.0233 -0.1741 -0.6532
 1144TIP3   OH224922   4.126   1.508   3.421 -0.1620 -0.2165  0.0194
 1144TIP3    H124923   4.150   1.592   3.381 -0.4850 -0.8218 -1.4813
 1144TIP3    H224924   4.166   1.442   3.365 -3.6873 -1.2254 -1.5479
 1145TIP3   OH224925   0.068   1.590   1.798  0.5278  0.2514  0.1637
 1145TIP3    H124926   0.119   1.608   1.877  0.3010  0.2786  0.3055
 1145TIP3    H224927   0.122   1.530   1.747  0.7507  0.3699  0.2610
 1146TIP3   OH224928   5.255   3.151   3.008  0.0937  0.1615  0.0276
 1146TIP3    H124929   5.255   3.245   2.993  0.1427  0.2962  0.8058
 1146TIP3    H224930   5.224   3.141   3.098  1.9477 -0.4462  0.6403
 1147TIP3   OH224931   0.163   5.751  16.758 -0.1023  0.0947 -0.2587
 1147TIP3    H124932   0.150   5.706  16.674  0.8715 -0.0734 -0.3256
 1147TIP3    H224933   0.083   5.803  16.769  0.3124  1.1741 -1.9474
 1148TIP3   OH224934   3.472   6.483  12.725 -0.7698  0.5783  0.0558
 1148TIP3    H124935   3.403   6.549  12.731  0.7707  2.3332 -0.5702
 1148TIP3    H224936   3.552   6.529  12.752  0.5764 -0.6738 -1.5280
 1149TIP3   OH224937   6.552   1.260   6.041 -0.4922 -0.1113 -0.2374
 1149TIP3    H124938   6.642   1.246   6.014 -0.8383 -1.4285 -0.7896
 1149TIP3    H224939   6.534   1.190   6.103 -1.0713  0.2702  0.0383
 1150TIP3   OH224940   4.590   4.653   3.818  0.5901  0.2712 -0.1293
 1150TIP3    H124941   4.570   4.741   3.788 -0.1735  0.0805 -0.2237
 1150TIP3    H224942   4.634   4.665   3.902  0.4319  0.7384 -0.1113
 1151TIP3   OH224943   4.494   5.843  15.120  0.4662 -0.4649 -0.4702
 1151TIP3    H124944   4.510   5.938  15.116  0.5796 -0.4662 -0.0545
 1151TIP3    H224945   4.431   5.827  15.050  1.5419 -0.3018 -1.5202
 1152TIP3   OH224946   1.096   4.856   6.118 -0.3409 -0.0641 -0.4645
 1152TIP3    H124947   1.172   4.908   6.143 -1.4221  2.3615 -1.8449
 1152TIP3    H224948   1.089   4.789   6.186  2.8049 -0.1893 -0.1497
 1153TIP3   OH224949   4.544   4.870  12.264  0.0143 -0.7188  0.3227
 1153TIP3    H124950   4.515   4.883  12.355  0.2205 -0.4454  0.3520
 1153TIP3    H224951   4.587   4.785  12.265 -3.1947 -2.5015 -0.3226
 1154TIP3   OH224952   6.635   1.742  12.421  0.0487  0.4128 -0.1741
 1154TIP3    H124953   6.596   1.825  12.393 -0.5160 -0.4688 -2.1337
 1154TIP3    H224954   6.601   1.677  12.360 -0.9829 -1.6359  2.3747
 1155TIP3   OH224955   2.764   0.069   0.287 -0.3313  0.4146  0.2115
 1155TIP3    H124956   2.824   0.064   0.362 -0.2184  1.5624  0.2242
 1155TIP3    H224957   2.801   0.008   0.223 -0.0317 -0.0547  0.8211
 1156TIP3   OH224958   2.981   1.547  16.794  0.4530  0.6755 -0.0391
 1156TIP3    H124959   3.040   1.506  16.731  0.4357 -0.2991  0.5537
 1156TIP3    H224960   3.036   1.610  16.841  0.7435  0.5730 -0.2400
 1157TIP3   OH224961   5.890   4.262  13.542 -0.2695  0.4026  0.0242
 1157TIP3    H124962   5.895   4.272  13.637 -1.6447 -0.6280  0.2303
 1157TIP3    H224963   5.982   4.256  13.515  0.2189  2.2031  1.0706
 1158TIP3   OH224964   6.630   0.055  11.194 -0.1018 -0.2047 -0.0080
 1158TIP3    H124965   6.679  -0.005  11.137 -1.1203  0.9223 -2.1918
 1158TIP3    H224966   6.577   0.107  11.134 -0.5730  1.6977  1.9378
 1159TIP3   OH224967   3.428   4.657   1.747  0.4923 -0.5853 -0.1514
 1159TIP3    H124968   3.500   4.639   1.687 -2.2926 -2.5346 -3.2065
 1159TIP3    H224969   3.363   4.589   1.729 -1.4249 -0.0743  3.7518
 1160TIP3   OH224970   4.974   0.959   0.289 -0.1432  0.4789  0.0473
 1160TIP3    H124971   4.997   0.980   0.379  2.1879  0.4450 -0.4596
 1160TIP3    H224972   4.926   1.036   0.258  0.6385  1.2945  0.7846
 1161TIP3   OH224973   0.575   0.298  10.184  0.1635  0.1948  0.7935
 1161TIP3    H124974   0.527   0.218  10.205 -1.5566  0.0259 -2.8167
 1161TIP3    H224975   0.524   0.368  10.225 -0.9862 -0.2927  0.2453
 1162TIP3   OH224976   0.237   4.330  10.982  0.4106 -0.0828  0.1439
 1162TIP3    H124977   0.332   4.335  10.973  0.2020  0.6312 -3.0398
 1162TIP3    H224978   0.208   4.286  10.902 -1.9828  0.1482  0.8072
 1163TIP3   OH224979   4.839   6.288   1.757  0.2605  0.0144 -0.1667
 1163TIP3    H124980   4.819   6.221   1.822  1.4947  0.4314  0.6989
 1163TIP3    H224981   4.769   6.282   1.692 -0.5007 -1.0350  0.7264
 1164TIP3   OH224982   3.501   5.731   4.539 -0.4885  0.6218  0.4210
 1164TIP3    H124983   3.515   5.659   4.600  1.1874  0.1737 -0.4200
 1164TIP3    H224984   3.456   5.692   4.464 -1.9299  1.0257  1.0572
 1165TIP3   OH224985   1.018   2.509   0.913 -0.1986  0.4082 -0.0392
 1165TIP3    H124986   1.105   2.501   0.954  0.2333  1.2433 -0.7522
 1165TIP3    H224987   1.015   2.437   0.850 -0.2500  0.0530  0.3600
 1166TIP3   OH224988   6.169   5.013  15.523 -0.2606  0.0625  1.0181
 1166TIP3    H124989   6.197   5.057  15.604 -1.2268  0.5032  1.1327
 1166TIP3    H224990   6.245   4.962  15.496  0.1401  0.0344  2.1191
 1167TIP3   OH224991   4.253   5.770  10.251 -0.2945 -0.9087 -0.1764
 1167TIP3    H124992   4.319   5.839  10.245  0.1196 -1.1834  0.8761
 1167TIP3    H224993   4.302   5.688  10.241 -0.6164 -1.0851 -0.3319
 1168TIP3   OH224994   3.848   6.085   5.920  0.2152  0.3801  0.0995
 1168TIP3    H124995   3.927   6.095   5.974 -0.1688  2.2051  0.3943
 1168TIP3    H224996   3.786   6.148   5.956  0.4137  2.7935 -3.2728
 1169TIP3   OH224997   0.610   0.726  12.684  0.6448 -0.3929  0.1027
 1169TIP3    H124998   0.548   0.797  12.703 -0.6507 -0.1681 -3.9438
 1169TIP3    H224999   0.663   0.760  12.612  0.8719 -3.0115 -1.0717
 1170TIP3   OH225000   0.638   5.391  11.300  0.0449 -0.4823  0.7918
 1170TIP3    H125001   0.674   5.361  11.217  1.0166  0.1467  0.9609
 1170TIP3    H225002   0.594   5.314  11.337  1.2723 -1.3157  0.5887
 1171TIP3   OH225003   0.573   6.470  16.656 -0.1545 -0.0511 -0.3340
 1171TIP3    H125004   0.639   6.504  16.716  0.6546 -0.9574 -0.6822
 1171TIP3    H225005   0.504   6.436  16.714 -0.4628  1.1572  0.0291
 1172TIP3   OH225006   2.497   3.036  11.140 -0.6108 -0.1653 -0.0374
 1172TIP3    H125007   2.487   2.985  11.221  2.4424  0.2963  0.7424
 1172TIP3    H225008   2.438   2.993  11.078 -3.4213 -0.2917  2.4601
 1173TIP3   OH225009   3.628   3.316  14.200  0.3962  0.3073 -0.2596
 1173TIP3    H125010   3.672   3.310  14.284  1.6517 -0.5460 -0.9497
 1173TIP3    H225011   3.549   3.262  14.210 -0.9007  2.3243  1.1687
 1174TIP3   OH225012   2.115   1.049   3.561  0.5082  0.2478 -0.4065
 1174TIP3    H125013   2.190   1.102   3.588  0.9289 -0.8154  0.6107
 1174TIP3    H225014   2.038   1.096   3.595  0.8812  0.1639  0.5780
 1175TIP3   OH225015   5.027   1.014   2.647  0.0753  0.1251  0.4755
 1175TIP3    H125016   5.020   1.018   2.742 -1.5344  2.9221  0.3526
 1175TIP3    H225017   5.095   0.949   2.631  0.6898 -0.1466  3.5409
 1176TIP3   OH225018   4.852   2.877   2.560 -0.1075  0.1454 -0.2581
 1176TIP3    H125019   4.758   2.893   2.550 -0.6576  0.6052  3.7779
 1176TIP3    H225020   4.891   2.911   2.480 -3.2262  1.6011 -1.3351
 1177TIP3   OH225021   2.550   4.004   4.447 -0.4654  0.4259  0.0030
 1177TIP3    H125022   2.563   4.012   4.542 -0.1511  0.3103 -0.0310
 1177TIP3    H225023   2.638   3.995   4.411 -0.5306  1.2707 -0.3779
 1178TIP3   OH225024   4.936   3.798   3.930 -0.6569 -0.1634 -0.0129
 1178TIP3    H125025   4.903   3.778   4.018  0.9216 -0.6810  0.4920
 1178TIP3    H225026   4.941   3.893   3.928 -0.9124 -0.1371  0.3798
 1179TIP3   OH225027   5.154   0.121   2.355  0.3869  0.0246 -0.0307
 1179TIP3    H125028   5.245   0.102   2.379  0.6751  1.3438 -0.0318
 1179TIP3    H225029   5.147   0.216   2.360 -1.2727 -0.1119  0.9734
 1180TIP3   OH225030   5.325   6.699   6.074  0.0408 -0.0792  0.0131
 1180TIP3    H125031   5.378   6.621   6.057 -2.0637 -2.0030  1.5221
 1180TIP3    H225032   5.299   6.690   6.166 -0.7591  2.1105  0.0530
 1181TIP3   OH225033   6.823   3.796   2.823  0.2660 -0.3954  0.2854
 1181TIP3    H125034   6.736   3.826   2.795  0.9020 -0.4662 -1.9540
 1181TIP3    H225035   6.879   3.873   2.811  1.0840 -1.2101 -1.3101
 1182TIP3   OH225036   6.787   0.330  14.807 -0.1545  1.0349  0.2118
 1182TIP3    H125037   6.695   0.357  14.801 -0.4813  0.4489  1.9304
 1182TIP3    H225038   6.803   0.281  14.727 -1.8863 -0.3059  0.6298
 1183TIP3   OH225039   2.622   4.214   6.185  0.5729 -0.2379 -0.3424
 1183TIP3    H125040   2.649   4.274   6.255  2.2722 -0.6969 -0.5653
 1183TIP3    H225041   2.598   4.271   6.112  2.8323  0.2297 -0.7897
 1184TIP3   OH225042   1.338   1.138   1.127  0.1346 -0.4743 -0.7757
 1184TIP3    H125043   1.352   1.228   1.097 -0.9834  0.2703  0.8045
 1184TIP3    H225044   1.425   1.098   1.123  0.5097  0.4109 -2.2727
 1185TIP3   OH225045   3.889   4.281   2.926  0.2310 -0.1788 -0.2156
 1185TIP3    H125046   3.947   4.340   2.974  1.6479 -1.1033 -0.7384
 1185TIP3    H225047   3.818   4.262   2.988  0.4443  1.0036  0.4189
 1186TIP3   OH225048   5.403   5.604  11.372 -0.4904  0.7518  0.1766
 1186TIP3    H125049   5.406   5.557  11.455  2.3126  0.3962 -0.0403
 1186TIP3    H225050   5.309   5.617  11.355 -1.1712 -0.2780  2.7254
 1187TIP3   OH225051   2.955   2.594   5.434  0.1827 -0.4693 -0.2683
 1187TIP3    H125052   2.887   2.655   5.407  1.5889  0.5508 -1.6300
 1187TIP3    H225053   2.912   2.508   5.434 -1.0895  0.1479 -1.0659
 1188TIP3   OH225054   2.658   3.302  17.080 -0.3746  0.7946  0.4797
 1188TIP3    H125055   2.679   3.214  17.109 -1.5689  0.4800  0.4718
 1188TIP3    H225056   2.730   3.356  17.111  2.1194 -0.6396 -2.3614
 1189TIP3   OH225057   4.538   3.159   0.080 -0.1972  0.4382 -0.0179
 1189TIP3    H125058   4.542   3.220   0.006  0.5137  2.4652  1.5817
 1189TIP3    H225059   4.466   3.193   0.134 -1.2967 -1.5267 -0.1367
 1190TIP3   OH225060   2.793   2.566   3.461 -0.0599  0.2746  0.0283
 1190TIP3    H125061   2.785   2.478   3.496  1.9406 -0.2569 -0.7137
 1190TIP3    H225062   2.863   2.606   3.514 -0.2398  1.0519 -0.3175
 1191TIP3   OH225063   5.101   1.403  10.714  0.4887  0.1352  0.0589
 1191TIP3    H125064   5.114   1.494  10.688  3.1138  0.1250  1.0030
 1191TIP3    H225065   5.180   1.358  10.683  0.5661 -1.2148  2.0077
 1192TIP3   OH225066   2.738   1.793  14.679 -0.4464  0.2307 -0.2599
 1192TIP3    H125067   2.810   1.852  14.701  0.7169 -1.7007  1.5613
 1192TIP3    H225068   2.771   1.740  14.607 -0.7319  0.4843 -0.5800
 1193TIP3   OH225069   3.735   0.043   1.561  0.1369 -0.0432  0.1320
 1193TIP3    H125070   3.794   0.045   1.636  0.3348  0.8460 -0.0339
 1193TIP3    H225071   3.792   0.058   1.485 -0.0033 -1.3367 -0.2486
 1194TIP3   OH225072   2.377   1.438   5.374  0.3642  0.3930  0.1629
 1194TIP3    H125073   2.381   1.400   5.462  1.4349  1.8256  0.7743
 1194TIP3    H225074   2.363   1.363   5.316 -2.0882 -0.4136  1.6558
 1195TIP3   OH225075   5.684   5.799   5.391  0.2812 -0.0238  0.1368
 1195TIP3    H125076   5.591   5.816   5.407  0.2503 -0.6804  0.6915
 1195TIP3    H225077   5.694   5.807   5.296 -0.3523  0.0104  0.0713
 1196TIP3   OH225078   3.177   4.572  15.200 -0.3519 -0.3838 -0.3217
 1196TIP3    H125079   3.208   4.484  15.178 -0.9972 -0.4937 -0.8546
 1196TIP3    H225080   3.253   4.628  15.190 -0.1665 -0.7376 -0.9797
 1197TIP3   OH225081   5.365   0.921  11.817 -0.0651 -0.5538  0.0026
 1197TIP3    H125082   5.419   0.842  11.809 -1.0747 -1.2781  0.1152
 1197TIP3    H225083   5.391   0.976  11.744  1.2694 -0.6075  0.4137
 1198TIP3   OH225084   2.885   6.522  16.836  0.7942  0.1160 -0.6504
 1198TIP3    H125085   2.801   6.493  16.801  0.6124  2.0245 -1.9183
 1198TIP3    H225086   2.944   6.448  16.820 -0.3421 -0.7815 -0.8563
 1199TIP3   OH225087   5.441   0.572   5.222  0.1627 -0.2794  0.1277
 1199TIP3    H125088   5.400   0.493   5.258  1.1158 -0.6777  0.3910
 1199TIP3    H225089   5.445   0.556   5.128  0.5463 -0.6487  0.2031
 1200TIP3   OH225090   5.502   4.385  10.025 -0.3934 -0.4848  0.2706
 1200TIP3    H125091   5.437   4.326   9.987 -0.1772  0.1306 -1.1387
 1200TIP3    H225092   5.458   4.425  10.100 -1.1753 -1.0384  0.1196
 1201TIP3   OH225093   3.868   3.009  13.011 -0.0689  0.1617  0.3385
 1201TIP3    H125094   3.800   3.011  13.078 -0.1342 -1.4109  0.3660
 1201TIP3    H225095   3.842   2.938  12.953  1.4002 -0.2931  0.1866
 1202TIP3   OH225096   3.009   6.535   0.061 -0.7317 -0.7717 -0.2573
 1202TIP3    H125097   3.101   6.509   0.071 -0.8229 -0.6947  0.9556
 1202TIP3    H225098   2.985   6.505  -0.026  0.2931 -1.2814 -0.3789
 1203TIP3   OH225099   6.706   6.182   1.176  0.3458  0.2851  0.0595
 1203TIP3    H125100   6.614   6.156   1.167  0.3336  0.4680 -0.3527
 1203TIP3    H225101   6.724   6.173   1.270  0.8780 -2.9802 -0.2637
 1204TIP3   OH225102   2.437   3.304  12.952  0.3118  0.0141 -0.3267
 1204TIP3    H125103   2.380   3.242  12.906  0.0843  0.0586 -0.1012
 1204TIP3    H225104   2.524   3.263  12.948  0.4783  0.4309 -1.5831
 1205TIP3   OH225105   6.387   0.388   0.541 -0.0142 -0.3669  0.2020
 1205TIP3    H125106   6.373   0.309   0.490 -2.2351  0.1995 -0.1733
 1205TIP3    H225107   6.321   0.383   0.611  0.4700  0.6857  0.7566
 1206TIP3   OH225108   0.968   1.408   3.233  0.0910 -0.4068  0.2317
 1206TIP3    H125109   0.982   1.318   3.263  0.3078 -0.5538 -0.3021
 1206TIP3    H225110   0.969   1.402   3.138 -2.1979 -0.1874  0.1475
 1207TIP3   OH225111   3.414   2.846   3.825 -0.6329 -0.4366  0.5230
 1207TIP3    H125112   3.339   2.899   3.855  0.3575  1.1079  0.3969
 1207TIP3    H225113   3.423   2.778   3.891 -0.5236  0.9552  2.0130
 1208TIP3   OH225114   3.274   5.760  11.590 -0.1180  0.4549 -0.2456
 1208TIP3    H125115   3.243   5.833  11.537 -1.0943  0.5490  0.4450
 1208TIP3    H225116   3.314   5.801  11.667  0.5678  0.2899 -0.4989
 1209TIP3   OH225117   0.146   2.748   0.027  0.4873  0.4754 -0.2601
 1209TIP3    H125118   0.156   2.689   0.103  2.8022 -0.4401 -1.1939
 1209TIP3    H225119   0.061   2.724  -0.010  0.5916 -1.0838  0.4072
 1210TIP3   OH225120   0.510   1.978   3.979 -0.4563 -0.3234  0.0158
 1210TIP3    H125121   0.553   1.893   3.982 -1.4803 -0.8522  0.6350
 1210TIP3    H225122   0.418   1.958   3.959 -0.5423  0.7091 -0.7000
 1211TIP3   OH225123   4.151   0.049   4.790 -0.7803  0.1638 -0.0136
 1211TIP3    H125124   4.205  -0.009   4.845  0.0809  1.6937  0.8446
 1211TIP3    H225125   4.210   0.076   4.719 -1.2907 -0.2922 -0.6149
 1212TIP3   OH225126   4.325   3.404  12.076 -0.3000 -0.0922 -0.3244
 1212TIP3    H125127   4.355   3.332  12.021  0.0227  0.5862 -1.0520
 1212TIP3    H225128   4.281   3.361  12.150 -0.6159 -1.0226 -1.0317
 1213TIP3   OH225129   5.648   4.804   5.116  0.1097  0.5684 -0.3176
 1213TIP3    H125130   5.716   4.867   5.137 -0.8566  1.6554 -0.3499
 1213TIP3    H225131   5.574   4.828   5.173 -0.4874 -0.1491 -0.7649
 1214TIP3   OH225132   0.151   0.015   0.964 -0.4273  0.0253 -0.1274
 1214TIP3    H125133   0.061   0.046   0.962 -0.1089  1.0403  0.2980
 1214TIP3    H225134   0.196   0.077   1.023  0.4895 -0.5916 -0.1563
 1215TIP3   OH225135   2.882   4.907  13.296  0.2033  0.6290 -0.5474
 1215TIP3    H125136   2.877   5.002  13.283  0.7002  0.5922 -1.0938
 1215TIP3    H225137   2.921   4.874  13.214  2.1473  0.2051  0.4706
 1216TIP3   OH225138   0.898   3.974  12.285 -0.3210  0.2758 -0.1797
 1216TIP3    H125139   0.863   3.896  12.329  0.2282  0.1186 -0.0052
 1216TIP3    H225140   0.853   3.976  12.201 -0.2287 -0.3283 -0.2516
 1217TIP3   OH225141   1.868   6.522   3.444  0.2064 -0.4083 -0.1810
 1217TIP3    H125142   1.794   6.544   3.500  1.0802  2.6905 -0.0494
 1217TIP3    H225143   1.944   6.558   3.490  1.4986 -1.3882 -1.4462
 1218TIP3   OH225144   5.207   6.239  15.993  0.0653 -0.3832 -0.5017
 1218TIP3    H125145   5.278   6.300  15.975 -1.6585  2.2730  0.9750
 1218TIP3    H225146   5.134   6.271  15.939 -0.5653 -1.8959 -0.5954
 1219TIP3   OH225147   1.471   3.797   0.648 -0.4164  0.3896  0.4057
 1219TIP3    H125148   1.411   3.865   0.677 -0.9946  0.4901 -0.9532
 1219TIP3    H225149   1.418   3.737   0.596  0.4825 -0.0065 -0.0911
 1220TIP3   OH225150   5.814   3.410  13.564  0.2691  0.6058 -0.4889
 1220TIP3    H125151   5.745   3.465  13.602 -0.9131 -1.2609  0.1769
 1220TIP3    H225152   5.808   3.426  13.470 -1.9005 -0.3945 -0.5644
 1221TIP3   OH225153   4.069   6.204  15.210  0.0257 -0.2898 -0.3386
 1221TIP3    H125154   4.121   6.276  15.243  0.6006  0.2635 -2.3278
 1221TIP3    H225155   4.016   6.242  15.139 -0.1141 -1.6669 -1.0133
 1222TIP3   OH225156   1.919   4.979   5.666 -0.2982  0.2099  0.1144
 1222TIP3    H125157   1.948   5.070   5.679 -0.5965  0.0456  2.2903
 1222TIP3    H225158   1.840   4.972   5.719 -1.7272 -0.6751 -1.9981
 1223TIP3   OH225159   5.844   6.734  12.289  0.0196  0.3625 -0.2001
 1223TIP3    H125160   5.789   6.710  12.214  0.9874 -0.3780 -0.6927
 1223TIP3    H225161   5.931   6.700  12.267  0.4669  0.6951  0.9811
 1224TIP3   OH225162   5.453   0.619   4.148 -0.1982  0.0151  0.6519
 1224TIP3    H125163   5.542   0.629   4.115 -0.2023 -0.8242  0.3657
 1224TIP3    H225164   5.444   0.525   4.165 -0.7257  0.2113  1.5429
 1225TIP3   OH225165   3.869   2.834  12.809 -0.0515 -0.1666 -0.2708
 1225TIP3    H125166   3.880   2.903  12.744  0.7325  0.3784  0.4270
 1225TIP3    H225167   3.952   2.787  12.810  0.3526  0.5464  1.1413
 1226TIP3   OH225168   3.100   1.794  10.898 -0.1947  0.6989 -0.0574
 1226TIP3    H125169   3.115   1.831  10.986 -0.3929  0.5079  0.0563
 1226TIP3    H225170   3.114   1.868  10.839  2.1156  0.3507 -0.0369
 1227TIP3   OH225171   3.045   1.311  14.045 -0.1646 -0.1692  0.2715
 1227TIP3    H125172   3.063   1.267  13.962  0.1156  0.5330 -0.0503
 1227TIP3    H225173   3.027   1.402  14.020 -0.6133 -0.0692  0.9305
 1228TIP3   OH225174   2.623   2.135   2.776  0.0998  0.3718 -0.3548
 1228TIP3    H125175   2.638   2.222   2.738  0.9871 -0.1532 -1.2665
 1228TIP3    H225176   2.711   2.104   2.799 -0.0432 -0.8048 -1.2683
 1229TIP3   OH225177   2.995   3.907   6.333  0.0845  0.1936  0.0129
 1229TIP3    H125178   2.968   3.876   6.419  0.4793 -1.8477 -0.5555
 1229TIP3    H225179   3.037   3.831   6.292 -0.0373  1.1348 -1.9563
 1230TIP3   OH225180   5.245   2.436   3.645 -0.3166 -0.1348  0.1401
 1230TIP3    H125181   5.250   2.381   3.724  0.1941  0.6466  0.6697
 1230TIP3    H225182   5.316   2.499   3.655 -2.1650  2.0217  0.6481
 1231TIP3   OH225183   6.087   2.183  12.638  0.3564 -0.2809  0.4064
 1231TIP3    H125184   6.026   2.153  12.705 -1.5376  0.1220 -1.0749
 1231TIP3    H225185   6.149   2.111  12.628 -0.2596 -0.9835  1.4539
 1232TIP3   OH225186   4.256   2.266  10.832 -0.1308  0.2505  0.2029
 1232TIP3    H125187   4.274   2.175  10.855 -0.8348 -0.4779 -1.8600
 1232TIP3    H225188   4.204   2.260  10.751  2.3285  2.5040 -1.7284
 1233TIP3   OH225189   2.011   2.320   5.285  0.4953 -0.1058 -0.4414
 1233TIP3    H125190   2.102   2.345   5.300 -0.0378  0.6424  2.1093
 1233TIP3    H225191   2.014   2.227   5.263  2.0752  0.6448 -4.1442
 1234TIP3   OH225192   1.193   1.788   5.995  0.1047  0.1974 -0.4674
 1234TIP3    H125193   1.235   1.850   5.935  0.2341  1.6372  1.0457
 1234TIP3    H225194   1.108   1.828   6.014  1.0647  1.1558  2.2829
 1235TIP3   OH225195   6.052   1.905   4.412  0.3261  0.1115  0.0402
 1235TIP3    H125196   5.977   1.847   4.423 -0.9702  1.5464 -0.8156
 1235TIP3    H225197   6.028   1.963   4.340  3.2647 -0.8732 -1.9147
 1236TIP3   OH225198   4.004   5.997   2.378  0.4321  0.2776  0.6628
 1236TIP3    H125199   3.967   5.941   2.310 -0.2624  0.9880  0.4429
 1236TIP3    H225200   3.943   5.991   2.451  1.4528 -0.9126  1.4688
 1237TIP3   OH225201   3.841   5.747   2.245  0.0797  0.3556  0.4333
 1237TIP3    H125202   3.766   5.798   2.277 -0.5317 -1.5061  2.1656
 1237TIP3    H225203   3.804   5.665   2.214  1.3005 -0.2797  0.5619
 1238TIP3   OH225204   5.348   1.939   5.623 -0.2789 -0.6117  0.2701
 1238TIP3    H125205   5.276   1.921   5.684 -1.4628  0.1894 -0.8345
 1238TIP3    H225206   5.343   1.867   5.560 -0.0164 -0.6148  0.2518
 1239TIP3   OH225207   2.756   5.112  15.814 -0.3256 -0.0063  0.0148
 1239TIP3    H125208   2.733   5.199  15.845  3.0889  0.7541  0.8955
 1239TIP3    H225209   2.799   5.127  15.730 -1.7469 -1.1381 -0.9533
 1240TIP3   OH225210   3.306   3.659  14.365 -0.0465  0.0739  0.0666
 1240TIP3    H125211   3.342   3.576  14.396 -0.0504  0.7836  2.1750
 1240TIP3    H225212   3.322   3.659  14.271  1.1374 -1.7269  0.2202
 1241TIP3   OH225213   0.022   1.101  14.733  0.6521  0.2046  0.3852
 1241TIP3    H125214   0.094   1.129  14.678 -0.8725  0.2499 -1.6895
 1241TIP3    H225215   0.046   1.013  14.761  2.0735  0.7044  0.8263
 1242TIP3   OH225216   0.052   3.488  15.680  0.3000  0.0426  0.7722
 1242TIP3    H125217   0.037   3.395  15.697 -1.2247  0.0578 -0.3078
 1242TIP3    H225218   0.147   3.498  15.685  0.7883 -2.1551 -1.7653
 1243TIP3   OH225219   2.508   5.154   2.666  0.6142 -0.1320 -0.6034
 1243TIP3    H125220   2.579   5.178   2.607  1.4899 -2.8747 -0.8502
 1243TIP3    H225221   2.458   5.088   2.618 -0.9981  0.3910  0.2811
 1244TIP3   OH225222   2.317   6.093  11.121 -0.2936 -0.8018 -0.7413
 1244TIP3    H125223   2.383   6.109  11.053 -1.3189  0.4518 -1.4785
 1244TIP3    H225224   2.279   6.008  11.098  0.1223 -0.8937 -1.0933
 1245TIP3   OH225225   1.112   6.530  15.553  0.2286  0.7919  0.6645
 1245TIP3    H125226   1.036   6.480  15.582 -0.0525  1.3528  0.8947
 1245TIP3    H225227   1.179   6.511  15.619  0.9517 -1.2644 -0.5684
 1246TIP3   OH225228   5.363   2.439  11.873  0.2613 -0.0528 -0.0599
 1246TIP3    H125229   5.324   2.368  11.923 -1.1822  1.1858  0.6599
 1246TIP3    H225230   5.308   2.447  11.795  1.5430 -0.9249 -1.0860
 1247TIP3   OH225231   5.822   0.318   1.775 -0.5050  0.0871 -0.6102
 1247TIP3    H125232   5.883   0.246   1.792 -2.5641 -1.3830  1.2532
 1247TIP3    H225233   5.847   0.386   1.837 -1.2756 -0.9253  0.8969
 1248TIP3   OH225234   4.813   1.319   3.400 -0.2257  0.4877 -0.0622
 1248TIP3    H125235   4.829   1.307   3.307 -0.1813 -1.1848  0.1375
 1248TIP3    H225236   4.836   1.411   3.416  0.4047  0.6231 -1.5556
 1249TIP3   OH225237   5.527   6.304   5.303  0.3106  0.3095  0.1883
 1249TIP3    H125238   5.556   6.264   5.222 -1.3487  2.1254 -1.4098
 1249TIP3    H225239   5.583   6.381   5.314 -1.2134  1.6256 -0.8071
 1250TIP3   OH225240   2.338   3.965   2.634  0.7450 -0.2272 -0.1159
 1250TIP3    H125241   2.346   3.876   2.599  1.4399 -0.8200  1.4814
 1250TIP3    H225242   2.429   3.993   2.649  0.5067  0.5355 -0.0501
 1251TIP3   OH225243   4.989   2.847   1.552  0.4080  0.1830 -0.2588
 1251TIP3    H125244   5.084   2.837   1.547  0.3409 -0.4872 -0.2710
 1251TIP3    H225245   4.973   2.891   1.635  0.7174  0.1367 -0.1759
 1252TIP3   OH225246   0.406   0.210   5.244 -0.1446 -0.0354  0.4380
 1252TIP3    H125247   0.493   0.241   5.218 -0.7421  0.8727 -0.5901
 1252TIP3    H225248   0.405   0.217   5.340  0.5165  1.0690  0.3807
 1253TIP3   OH225249   1.954   4.444   1.681 -0.5522 -0.3038  0.4258
 1253TIP3    H125250   1.928   4.479   1.596  0.1195 -0.9196 -0.0534
 1253TIP3    H225251   1.873   4.442   1.732 -1.0064 -0.1204 -0.2683
 1254TIP3   OH225252   0.435   1.829   0.517 -0.1254  0.0984  0.5190
 1254TIP3    H125253   0.471   1.854   0.602  0.6024  0.8487 -0.0043
 1254TIP3    H225254   0.372   1.899   0.496  1.2169  1.0467 -0.5041
 1255TIP3   OH225255   2.901   3.188   3.160 -0.4187  0.2335 -0.4568
 1255TIP3    H125256   2.972   3.167   3.100 -0.6438 -0.0746 -0.6151
 1255TIP3    H225257   2.857   3.105   3.177  1.1637 -0.2035  2.1292
 1256TIP3   OH225258   5.631   1.432  15.548 -0.3512 -0.0901  0.3746
 1256TIP3    H125259   5.726   1.438  15.536 -0.2776 -0.4111  0.7744
 1256TIP3    H225260   5.603   1.364  15.486 -0.4361  0.5307 -0.2923
 1257TIP3   OH225261   6.335   0.200   0.104 -0.2846  0.0040 -0.2286
 1257TIP3    H125262   6.374   0.256   0.036 -0.3171 -1.2155 -1.2873
 1257TIP3    H225263   6.260   0.252   0.136 -0.9558  0.1766 -1.9313
 1258TIP3   OH225264   4.977   6.368  16.237 -0.4177  0.3306 -0.4088
 1258TIP3    H125265   4.994   6.333  16.149 -1.6956  0.1965 -0.6225
 1258TIP3    H225266   4.882   6.380  16.240 -0.2879  1.2179  0.6308
 1259TIP3   OH225267   0.519   3.757   5.255 -0.5719  0.2178 -0.4863
 1259TIP3    H125268   0.553   3.841   5.286 -0.9380  0.9463 -1.9686
 1259TIP3    H225269   0.583   3.693   5.285 -0.4695  0.9609  0.9818
 1260TIP3   OH225270   2.816   6.292   1.257  0.4494  0.4959 -0.2778
 1260TIP3    H125271   2.829   6.354   1.329  0.0641  0.4380 -0.1584
 1260TIP3    H225272   2.785   6.346   1.184 -0.5925  0.3436  0.0433
 1261TIP3   OH225273   6.380   4.922   5.154 -0.2875 -0.5880  0.1833
 1261TIP3    H125274   6.293   4.887   5.175 -0.4631 -0.6837 -0.6690
 1261TIP3    H225275   6.362   5.001   5.103  0.1229 -0.1612  0.6937
 1262TIP3   OH225276   4.659   1.798   3.612  0.3067 -0.4190  0.0390
 1262TIP3    H125277   4.578   1.808   3.563 -0.4329 -0.1893  1.2753
 1262TIP3    H225278   4.727   1.835   3.554 -0.4772 -0.4318 -0.9167
 1263TIP3   OH225279   4.851   0.992  12.210 -0.3399 -0.4673  0.0511
 1263TIP3    H125280   4.832   0.904  12.242  0.4936 -0.9277 -0.7050
 1263TIP3    H225281   4.938   1.012  12.244 -0.8219  0.3774  0.8446
 1264TIP3   OH225282   1.585   3.522   1.397  0.2597 -0.9723 -0.2245
 1264TIP3    H125283   1.496   3.488   1.397  0.4188 -1.5046  1.7684
 1264TIP3    H225284   1.633   3.463   1.339 -1.2132  1.1722 -4.0148
 1265TIP3   OH225285   1.284   4.026  11.707 -0.3424  0.6876  0.4363
 1265TIP3    H125286   1.331   3.946  11.731 -2.2999 -0.7206 -0.2248
 1265TIP3    H225287   1.276   4.022  11.612  0.8804  2.5053  0.2013
 1266TIP3   OH225288   2.251   0.411  11.966  0.4244  0.2759  0.2487
 1266TIP3    H125289   2.207   0.353  12.029 -1.2465 -0.8982 -1.8578
 1266TIP3    H225290   2.221   0.499  11.989 -0.5030 -0.1758  0.8248
 1267TIP3   OH225291   1.496   1.594   1.919  0.2376 -0.1859 -0.1941
 1267TIP3    H125292   1.421   1.581   1.977 -0.2536 -0.6756 -0.9226
 1267TIP3    H225293   1.558   1.646   1.971 -0.4391 -0.1054  0.5501
 1268TIP3   OH225294   5.326   5.121  16.285  0.4841 -0.4534  0.6710
 1268TIP3    H125295   5.369   5.196  16.326  1.6379 -1.0248  0.5577
 1268TIP3    H225296   5.234   5.146  16.279  0.7750  0.7677  1.0361
 1269TIP3   OH225297   0.737   5.855  14.776  0.2174 -0.0891  0.2547
 1269TIP3    H125298   0.718   5.865  14.869  1.1493 -0.3359  0.4810
 1269TIP3    H225299   0.761   5.763  14.766  1.2243  0.1963 -0.0114
 1270TIP3   OH225300   1.281   5.115   2.702 -0.7827  0.4297  0.5873
 1270TIP3    H125301   1.332   5.187   2.665  1.0949 -1.0413  0.1488
 1270TIP3    H225302   1.324   5.095   2.785 -0.4656 -0.9756  0.1201
 1271TIP3   OH225303   0.915   5.825  15.146 -0.7410  0.4982  0.2489
 1271TIP3    H125304   0.868   5.748  15.178  0.8581 -0.2447  0.8924
 1271TIP3    H225305   0.902   5.890  15.216 -0.8403  0.3177  0.4018
 1272TIP3   OH225306   2.796   2.054   1.154 -0.5308  0.0527  0.0943
 1272TIP3    H125307   2.723   2.093   1.203 -0.9361  0.0156 -0.4712
 1272TIP3    H225308   2.762   1.970   1.124 -0.8872  0.7705 -1.6541
 1273TIP3   OH225309   6.434   6.096  11.310 -0.5065 -0.6415 -0.1219
 1273TIP3    H125310   6.451   6.171  11.367 -1.4624  0.0896 -0.7785
 1273TIP3    H225311   6.521   6.069  11.281 -0.1917  0.7337 -0.5366
 1274TIP3   OH225312   3.741   2.302   1.345 -0.3686 -0.3444 -0.2047
 1274TIP3    H125313   3.755   2.273   1.255 -0.3693 -1.3383  0.0987
 1274TIP3    H225314   3.737   2.221   1.396  1.1080  0.2257  0.9088
 1275TIP3   OH225315   4.000   6.555   4.103 -0.5567 -0.0027 -0.1288
 1275TIP3    H125316   4.050   6.475   4.118  0.0430  0.6007  1.3371
 1275TIP3    H225317   4.067   6.623   4.092 -1.0539  0.2810 -1.5892
 1276TIP3   OH225318   3.650   4.407  14.535  0.3284 -0.2864 -0.1021
 1276TIP3    H125319   3.685   4.323  14.566  1.2355 -0.2988 -1.1079
 1276TIP3    H225320   3.727   4.463  14.527 -0.4258  1.1359  1.9448
 1277TIP3   OH225321   2.498   2.480  12.196  0.4423 -0.4944  0.1495
 1277TIP3    H125322   2.503   2.442  12.284  2.3140 -2.1282 -0.5986
 1277TIP3    H225323   2.489   2.405  12.138  3.1616  0.2038 -1.3189
 1278TIP3   OH225324   6.286   0.406   2.493 -0.2115 -0.3190 -0.1620
 1278TIP3    H125325   6.288   0.310   2.499 -1.0056 -0.3658 -0.5310
 1278TIP3    H225326   6.265   0.435   2.582 -0.4862 -0.5080 -0.1642
 1279TIP3   OH225327   0.720   4.132   4.227 -0.1342  0.0346  0.1182
 1279TIP3    H125328   0.694   4.224   4.232  0.6254  0.4484 -2.1509
 1279TIP3    H225329   0.813   4.132   4.248 -0.2188 -0.2850  0.5065
 1280TIP3   OH225330   5.731   1.962  11.690 -0.0696 -0.1803 -0.6609
 1280TIP3    H125331   5.664   1.976  11.624 -1.9263 -0.2466  1.1284
 1280TIP3    H225332   5.811   1.948  11.640 -1.0597  1.3808 -2.8554
 1281TIP3   OH225333   5.854   6.558   1.144  0.1531 -0.1521  0.6202
 1281TIP3    H125334   5.902   6.569   1.226  2.1123  0.9649 -0.6185
 1281TIP3    H225335   5.921   6.561   1.076 -1.5539  0.1597 -1.1280
 1282TIP3   OH225336   0.768   3.691   0.825 -0.1251  0.0676 -0.0687
 1282TIP3    H125337   0.821   3.769   0.844  2.1303 -1.2150 -0.6599
 1282TIP3    H225338   0.822   3.618   0.856 -1.1677 -1.3870 -1.5276
 1283TIP3   OH225339   3.017   1.987  15.963 -0.6026 -0.2198  0.5100
 1283TIP3    H125340   2.924   1.989  15.943 -0.4336 -1.5571 -0.5237
 1283TIP3    H225341   3.021   2.000  16.058 -1.7499  0.9488  0.4283
 1284TIP3   OH225342   1.714   4.044  11.223  0.2647  0.7690 -0.2487
 1284TIP3    H125343   1.695   4.011  11.135  0.3477  1.4140 -0.5183
 1284TIP3    H225344   1.791   4.100  11.212 -0.0140  1.2477  0.1371
 1285TIP3   OH225345   0.258   6.551   2.838  0.2380 -0.3010 -0.0557
 1285TIP3    H125346   0.236   6.499   2.761  1.1955 -0.9630  0.1026
 1285TIP3    H225347   0.261   6.642   2.806 -0.1757 -0.4816 -0.6154
 1286TIP3   OH225348   4.458   3.131  13.962 -0.2546 -0.3257 -0.1846
 1286TIP3    H125349   4.393   3.069  13.930  1.9503 -2.3546 -1.0513
 1286TIP3    H225350   4.472   3.191  13.888 -1.6312  0.6241  0.2847
 1287TIP3   OH225351   0.632   6.229   1.738 -0.2125 -0.0332  0.4852
 1287TIP3    H125352   0.566   6.294   1.718 -1.6449 -2.0474 -1.9737
 1287TIP3    H225353   0.709   6.257   1.688 -0.3380  0.4844  0.5753
 1288TIP3   OH225354   3.244   1.568   4.522 -0.1509  0.6881  0.3820
 1288TIP3    H125355   3.183   1.525   4.582 -0.0944 -0.2927 -0.2427
 1288TIP3    H225356   3.322   1.513   4.525  0.1370  1.0751  0.0069
 1289TIP3   OH225357   2.947   0.586  17.217  0.0784 -0.4572  0.5301
 1289TIP3    H125358   2.954   0.494  17.191  0.6920 -0.0698 -0.7447
 1289TIP3    H225359   3.032   0.624  17.194 -1.4644  1.3695 -3.0504
 1290TIP3   OH225360   3.674   5.914   3.707 -0.2066  0.0700  0.3271
 1290TIP3    H125361   3.641   5.902   3.618 -1.7016 -0.0967  0.8661
 1290TIP3    H225362   3.757   5.868   3.709  0.3067  0.8716 -1.2422
 1291TIP3   OH225363   6.584   2.982  17.315  0.7693 -0.2436  0.2113
 1291TIP3    H125364   6.627   2.903  17.282 -1.4974 -2.1621  1.5062
 1291TIP3    H225365   6.493   2.956  17.327  0.2310  2.1593  2.0461
 1292TIP3   OH225366   6.629   5.555  14.871  0.7847  0.1252  0.3329
 1292TIP3    H125367   6.645   5.589  14.959 -0.7147  1.3797  0.1701
 1292TIP3    H225368   6.636   5.632  14.814 -1.3545 -0.0317 -0.2208
 1293TIP3   OH225369   1.734   5.491   5.505 -0.6528 -0.0757  0.4435
 1293TIP3    H125370   1.767   5.565   5.455 -0.7199  0.3912  1.0804
 1293TIP3    H225371   1.653   5.523   5.545 -0.7547 -0.5380  0.6169
 1294TIP3   OH225372   6.792   0.517   0.743 -0.0190  0.5498 -0.4660
 1294TIP3    H125373   6.860   0.497   0.808  0.1692 -2.1948 -1.3931
 1294TIP3    H225374   6.730   0.573   0.790  0.7390 -0.3331  1.7007
 1295TIP3   OH225375   3.013   4.476   2.785 -0.4311 -0.4658 -0.2381
 1295TIP3    H125376   3.087   4.475   2.846  0.0946 -0.7114 -0.8751
 1295TIP3    H225377   2.945   4.525   2.832  1.1940  2.6470 -0.8583
 1296TIP3   OH225378   5.711   6.139  11.877  0.8648 -0.2996 -0.4540
 1296TIP3    H125379   5.753   6.093  11.950 -0.5978  0.5262  0.9956
 1296TIP3    H225380   5.627   6.096  11.867  0.5971  0.3146 -0.9027
 1297TIP3   OH225381   4.309   6.377   4.042  0.2830  0.3841 -0.0844
 1297TIP3    H125382   4.344   6.417   4.122 -2.4390  0.9991  0.9178
 1297TIP3    H225383   4.316   6.283   4.058 -0.4771  0.4961  1.0359
 1298TIP3   OH225384   2.371   6.555   3.603  0.4690 -0.1448 -0.3858
 1298TIP3    H125385   2.406   6.532   3.517 -0.3486 -3.4589  0.0343
 1298TIP3    H225386   2.443   6.537   3.663  0.6006  0.8822 -0.2148
 1299TIP3   OH225387   5.729   0.504   3.349  1.0780  0.0796  0.1258
 1299TIP3    H125388   5.807   0.558   3.359  1.4236 -0.2816 -0.6058
 1299TIP3    H225389   5.762   0.415   3.339  0.6270  0.0426 -1.1722
 1300TIP3   OH225390   0.475   3.465   3.462 -0.6020  0.2544 -0.2336
 1300TIP3    H125391   0.398   3.410   3.449 -1.5720  1.6472 -0.5905
 1300TIP3    H225392   0.514   3.473   3.375  0.1011 -0.6207 -0.0189
 1301TIP3   OH225393   4.672   4.701  13.407  0.0060  0.2472  0.0778
 1301TIP3    H125394   4.607   4.650  13.357 -0.4249  1.6864 -0.9160
 1301TIP3    H225395   4.646   4.689  13.498 -0.6748 -0.5165 -0.1956
 1302TIP3   OH225396   5.956   4.344  13.836  0.1581 -0.2267  0.1806
 1302TIP3    H125397   5.942   4.313  13.926  0.4455  2.2016  1.1377
 1302TIP3    H225398   6.039   4.392  13.840 -0.0627  0.3182 -1.2683
 1303TIP3   OH225399   5.712   4.273   2.056 -0.0932 -0.2521 -0.3353
 1303TIP3    H125400   5.643   4.333   2.085 -0.3772 -0.5096 -0.4715
 1303TIP3    H225401   5.698   4.266   1.961 -1.5170 -2.3317 -0.0340
 1304TIP3   OH225402   1.609   2.017  15.306 -0.1024 -0.0914 -0.0079
 1304TIP3    H125403   1.652   1.987  15.225 -1.3377 -0.7288 -0.4553
 1304TIP3    H225404   1.651   2.101  15.325 -0.1890  0.3666 -1.6565
 1305TIP3   OH225405   1.350   0.908  11.340  0.2158 -0.5206 -0.2370
 1305TIP3    H125406   1.286   0.966  11.380  0.1196  0.4336 -1.7012
 1305TIP3    H225407   1.433   0.930  11.383 -0.0789 -0.3812  0.2702
 1306TIP3   OH225408   0.740   5.634   2.766  0.0663 -0.1416 -0.1950
 1306TIP3    H125409   0.773   5.548   2.741  1.0680 -0.0264  0.6791
 1306TIP3    H225410   0.777   5.694   2.702  1.5507 -0.0203  0.7457
 1307TIP3   OH225411   3.630   2.085   3.878 -0.1774 -0.6391 -0.1159
 1307TIP3    H125412   3.626   2.176   3.848  0.1552 -1.0151 -1.3926
 1307TIP3    H225413   3.624   2.090   3.973 -0.7676  0.6722 -0.2062
 1308TIP3   OH225414   0.342   6.136  13.421  0.0331  0.0450  0.7095
 1308TIP3    H125415   0.329   6.190  13.500  0.7702 -0.0886  0.9340
 1308TIP3    H225416   0.420   6.084  13.441  1.4805  1.4841 -0.8963
 1309TIP3   OH225417   4.905   0.166  12.774 -0.2708  0.3372 -0.1158
 1309TIP3    H125418   4.843   0.216  12.828  0.4198  0.1830  0.8532
 1309TIP3    H225419   4.869   0.077  12.773 -0.5831  0.4666 -0.3781
 1310TIP3   OH225420   5.120   2.172  15.022 -0.7457 -0.1048 -0.6210
 1310TIP3    H125421   5.196   2.221  15.053 -2.5662  1.7217  1.2451
 1310TIP3    H225422   5.125   2.088  15.068 -1.3641  1.1230  1.8357
 1311TIP3   OH225423   0.662   2.169  15.175  0.0114 -0.2765 -0.4988
 1311TIP3    H125424   0.754   2.146  15.190 -0.5516 -2.3240  0.1498
 1311TIP3    H225425   0.635   2.115  15.102 -0.5064  0.8888 -1.2002
 1312TIP3   OH225426   3.125   3.330   1.637  0.4299  0.4732 -0.2313
 1312TIP3    H125427   3.178   3.397   1.678  0.3624 -0.2887  1.1556
 1312TIP3    H225428   3.036   3.367   1.635  0.1182 -0.0343  1.7555
 1313TIP3   OH225429   4.649   1.759  15.175  0.1948 -0.1247  0.6059
 1313TIP3    H125430   4.723   1.820  15.169 -0.7499  1.2358  1.9594
 1313TIP3    H225431   4.656   1.704  15.097  0.3177  2.6122 -1.4334
 1314TIP3   OH225432   4.688   3.560   1.814  0.0774 -0.4025  0.6733
 1314TIP3    H125433   4.749   3.621   1.853 -0.9411  0.5578  0.8151
 1314TIP3    H225434   4.725   3.540   1.728 -0.6575  2.2171 -0.3596
 1315TIP3   OH225435   4.182   4.594   2.328  0.3827  0.1320  0.1256
 1315TIP3    H125436   4.097   4.550   2.338  0.2348  0.6651  1.3813
 1315TIP3    H225437   4.212   4.569   2.240 -0.8830 -0.3861 -0.1776
 1316TIP3   OH225438   0.162   4.471   5.278 -0.0672 -0.7669 -0.5656
 1316TIP3    H125439   0.213   4.391   5.267 -0.6425 -1.1538 -0.4512
 1316TIP3    H225440   0.117   4.459   5.362 -1.4035 -1.0367 -1.2884
 1317TIP3   OH225441   1.769   2.445   0.037 -0.1271 -0.1541  0.0270
 1317TIP3    H125442   1.684   2.412   0.008  0.0976 -1.8525  1.1564
 1317TIP3    H225443   1.832   2.407  -0.025 -0.0906  0.2625 -0.1934
 1318TIP3   OH225444   2.360   5.175  13.158  0.1373 -0.2648  0.3171
 1318TIP3    H125445   2.444   5.159  13.201 -0.2007 -1.4996  0.5468
 1318TIP3    H225446   2.369   5.137  13.071  0.9652  2.5920 -0.9694
 1319TIP3   OH225447   3.277   2.291  12.711 -0.6685 -0.9495  0.1111
 1319TIP3    H125448   3.262   2.281  12.617  0.4152  0.9035 -0.3154
 1319TIP3    H225449   3.357   2.241  12.728 -1.4061 -2.0971  0.2612
 1320TIP3   OH225450   1.473   4.546  11.590 -0.1296 -0.0226  0.1006
 1320TIP3    H125451   1.501   4.501  11.511 -0.6487  0.8241 -0.5807
 1320TIP3    H225452   1.378   4.552  11.582 -0.0410  1.5412 -0.0198
 1321TIP3   OH225453   2.380   4.796  16.042 -0.7630  0.1447  0.1726
 1321TIP3    H125454   2.302   4.799  15.988 -0.2096  2.7880 -0.6089
 1321TIP3    H225455   2.442   4.743  15.992 -1.1528  0.3298 -0.5172
 1322TIP3   OH225456   3.944   0.498   3.568  0.8036  0.5269 -0.0064
 1322TIP3    H125457   3.877   0.506   3.500  0.1696  1.1214  0.6733
 1322TIP3    H225458   3.904   0.536   3.646  2.2250  1.6498  0.2181
 1323TIP3   OH225459   4.614   2.374  12.331 -0.0576 -0.7625 -0.1946
 1323TIP3    H125460   4.562   2.445  12.370  0.6776 -0.5710  0.4612
 1323TIP3    H225461   4.619   2.308  12.401 -0.1012 -1.1356 -0.5419
 1324TIP3   OH225462   2.882   3.002   1.034  0.2221  0.2129 -0.1575
 1324TIP3    H125463   2.948   2.955   1.085 -0.4461 -0.4170  0.1462
 1324TIP3    H225464   2.847   3.067   1.095 -1.1647 -1.0862  0.5024
 1325TIP3   OH225465   3.486   1.408  11.406  0.4770 -0.4687 -0.0889
 1325TIP3    H125466   3.521   1.442  11.488  0.8045 -0.4812 -0.2254
 1325TIP3    H225467   3.547   1.437  11.339  0.0083 -0.1370 -0.3784
 1326TIP3   OH225468   1.707   2.998   4.702 -0.0765 -0.2927  0.0021
 1326TIP3    H125469   1.788   3.044   4.680  0.0496  0.4657  1.8877
 1326TIP3    H225470   1.647   3.020   4.630  0.6730  1.0307 -0.2529
 1327TIP3   OH225471   3.896   6.207   6.495 -0.4269  0.0944 -0.3925
 1327TIP3    H125472   3.848   6.124   6.502  0.4891 -0.5538 -1.4765
 1327TIP3    H225473   3.831   6.268   6.460 -0.9728 -0.2808 -0.0687
 1328TIP3   OH225474   0.530   1.570  12.721  0.0538 -0.3421 -0.4351
 1328TIP3    H125475   0.583   1.554  12.799  0.1479 -2.6579 -0.9300
 1328TIP3    H225476   0.587   1.620  12.662  0.8798 -0.8189 -0.0513
 1329TIP3   OH225477   0.850   3.676  13.139  0.1621 -0.2220 -0.2229
 1329TIP3    H125478   0.815   3.720  13.216  1.4901 -0.5984  0.6512
 1329TIP3    H225479   0.923   3.623  13.174  1.2849  0.1930 -1.8458
 1330TIP3   OH225480   0.484   0.335   1.983  0.7080 -0.2126 -0.0538
 1330TIP3    H125481   0.577   0.336   1.960  1.6332 -0.2994  3.1853
 1330TIP3    H225482   0.456   0.426   1.973  0.4033 -0.5324 -3.2174
 1331TIP3   OH225483   1.011   1.213  13.963  0.0200  0.0953 -0.4566
 1331TIP3    H125484   1.070   1.183  14.032 -0.1930 -0.3530 -0.4640
 1331TIP3    H225485   1.051   1.293  13.929 -0.3024  0.8054  0.7687
 1332TIP3   OH225486   6.554   4.344  11.128 -0.1775  0.1049 -0.0818
 1332TIP3    H125487   6.624   4.407  11.114  1.6289 -1.5559  0.9504
 1332TIP3    H225488   6.555   4.289  11.049 -0.6908  0.3922 -0.2937
 1333TIP3   OH225489   3.150   6.468   2.907 -0.2724  0.5241  0.2551
 1333TIP3    H125490   3.187   6.501   2.825  1.2872 -0.0224  0.7123
 1333TIP3    H225491   3.123   6.547   2.955  1.1157  1.0032  0.2725
 1334TIP3   OH225492   5.689   4.589  11.261 -0.8262 -0.3861  0.0369
 1334TIP3    H125493   5.614   4.543  11.222 -0.5712  0.3061 -1.3128
 1334TIP3    H225494   5.660   4.612  11.350 -1.9964 -0.6371 -0.2702
 1335TIP3   OH225495   0.065   5.831   4.493  0.2268 -0.3063  0.1638
 1335TIP3    H125496   0.025   5.897   4.550 -0.5244  0.0759 -0.7768
 1335TIP3    H225497   0.119   5.882   4.432  0.6571 -0.6688  0.2400
 1336TIP3   OH225498   4.614   0.026   4.090  0.3081  0.1284  0.4618
 1336TIP3    H125499   4.669   0.015   4.167 -1.0906 -1.8674  1.2620
 1336TIP3    H225500   4.609  -0.061   4.051  0.2466  0.9118 -1.4108
 1337TIP3   OH225501   2.620   2.831   4.946  0.4796  0.1365 -0.9120
 1337TIP3    H125502   2.562   2.755   4.953  0.2810 -0.1638 -4.1212
 1337TIP3    H225503   2.565   2.905   4.973  0.6575 -0.7605  2.1762
 1338TIP3   OH225504   4.043   6.774  11.411  0.1440 -0.4135  0.0164
 1338TIP3    H125505   4.070   6.691  11.372 -0.8723 -0.4083 -0.7213
 1338TIP3    H225506   4.124   6.812  11.446  0.7254 -1.3835 -0.2555
 1339TIP3   OH225507   0.569   2.574   3.425  0.3061 -0.1310  0.2859
 1339TIP3    H125508   0.530   2.488   3.444  0.4104 -0.0953  0.6680
 1339TIP3    H225509   0.635   2.586   3.493  0.1441  0.3461  0.3651
 1340TIP3   OH225510   2.636   5.699  12.188 -0.5769 -0.4789  0.0989
 1340TIP3    H125511   2.643   5.631  12.122 -1.1675 -1.2961  0.8477
 1340TIP3    H225512   2.588   5.770  12.145 -1.3862 -1.1994 -0.2044
 1341TIP3   OH225513   0.857   1.330  12.148  0.1704  0.2130  0.1158
 1341TIP3    H125514   0.801   1.379  12.209 -1.3363 -2.3303  0.9221
 1341TIP3    H225515   0.945   1.366  12.162 -0.0641 -0.2684  3.9529
 1342TIP3   OH225516   6.434   5.071   0.353 -0.4031 -0.5254  0.1764
 1342TIP3    H125517   6.447   5.139   0.418  0.2744 -0.4351 -0.0410
 1342TIP3    H225518   6.477   4.994   0.390 -0.4509 -0.6096  0.0584
 1343TIP3   OH225519   2.144   6.175   5.651 -0.6727 -0.3092  0.0849
 1343TIP3    H125520   2.119   6.164   5.560 -0.5143  0.8524 -0.1047
 1343TIP3    H225521   2.108   6.098   5.695 -2.3034  0.0126 -0.6329
 1344TIP3   OH225522   1.766   3.098   4.031  0.1583  0.4187 -0.3372
 1344TIP3    H125523   1.692   3.156   4.052 -0.1857  0.7321 -2.2300
 1344TIP3    H225524   1.840   3.136   4.079 -0.0834  2.4078 -1.4210
 1345TIP3   OH225525   4.115   2.059   6.568 -0.2153 -0.0825 -0.0439
 1345TIP3    H125526   4.106   2.081   6.661 -1.4391 -1.7588  0.2947
 1345TIP3    H225527   4.204   2.024   6.561 -0.6561 -1.5170  0.9150
 1346TIP3   OH225528   2.174   1.333   3.145  0.3867 -0.3377 -0.0356
 1346TIP3    H125529   2.166   1.315   3.238 -1.4000  1.5961  0.2541
 1346TIP3    H225530   2.210   1.422   3.140 -2.7891  1.0639 -0.9868
 1347TIP3   OH225531   4.240   5.549  10.992 -0.1521  0.2751 -0.2515
 1347TIP3    H125532   4.183   5.490  10.942 -1.0563  1.3392 -0.5125
 1347TIP3    H225533   4.182   5.593  11.053  0.2080  2.0000 -1.0857
 1348TIP3   OH225534   3.981   2.283  10.986  0.1425  0.1695  0.1076
 1348TIP3    H125535   3.957   2.287  10.893  1.4965  0.3694 -0.2539
 1348TIP3    H225536   4.055   2.343  10.994 -1.1476  1.6367  1.7200
 1349TIP3   OH225537   1.454   1.527  13.734  0.4758  0.5816  0.1502
 1349TIP3    H125538   1.382   1.549  13.675  0.3028  1.7481  0.7737
 1349TIP3    H225539   1.436   1.437  13.761  0.2247  0.2468 -1.0732
 1350TIP3   OH225540   5.112   0.637   0.596 -0.6792  0.1920 -0.1452
 1350TIP3    H125541   5.090   0.678   0.512 -2.0467 -1.4653 -0.6458
 1350TIP3    H225542   5.182   0.576   0.576 -1.2112 -0.4235 -0.1479
 1351TIP3   OH225543   4.585   5.262  15.189  0.3065  0.3337 -0.1344
 1351TIP3    H125544   4.544   5.185  15.151  0.8202  0.2245 -0.4721
 1351TIP3    H225545   4.577   5.250  15.284  1.6318 -0.8240 -0.1424
 1352TIP3   OH225546   1.430   5.661  13.598  0.5960  0.1359  0.2586
 1352TIP3    H125547   1.350   5.621  13.564  0.9536 -1.6052  1.3219
 1352TIP3    H225548   1.486   5.587  13.620  2.4807  1.3151 -0.3653
 1353TIP3   OH225549   6.464   2.033   0.519  0.0632  0.5816  0.1542
 1353TIP3    H125550   6.408   2.076   0.455  0.2384  0.6832  0.0685
 1353TIP3    H225551   6.543   2.009   0.470  1.4985  3.3032  0.9618
 1354TIP3   OH225552   1.154   6.594  14.074 -0.1648 -0.4532  0.2164
 1354TIP3    H125553   1.073   6.635  14.106 -0.8633 -0.1036 -1.8969
 1354TIP3    H225554   1.171   6.524  14.137 -1.6600 -0.0437  1.1417
 1355TIP3   OH225555   2.883   3.159   5.414 -0.2155 -0.0851  0.1930
 1355TIP3    H125556   2.797   3.126   5.442  0.3675 -2.3386 -0.4869
 1355TIP3    H225557   2.917   3.205   5.490 -0.9952 -1.3154  1.3220
 1356TIP3   OH225558   2.277   0.986   5.537 -0.2008  0.4020  0.3579
 1356TIP3    H125559   2.205   0.947   5.586 -0.7484  0.2753 -0.5168
 1356TIP3    H225560   2.340   1.012   5.603 -0.5808 -0.4479  1.0723
 1357TIP3   OH225561   2.391   0.055  11.325 -0.6426 -0.7817  0.6856
 1357TIP3    H125562   2.447   0.080  11.399 -1.3268  0.7628  0.7162
 1357TIP3    H225563   2.447   0.000  11.271  0.9183  0.6642  0.7467
 1358TIP3   OH225564   0.997   5.487  11.531 -0.5580 -0.0363 -0.0866
 1358TIP3    H125565   0.991   5.393  11.515 -2.2339  0.1762 -0.9077
 1358TIP3    H225566   0.965   5.527  11.450  0.7170  1.2588  0.0129
 1359TIP3   OH225567   6.243   5.675  14.956  0.1384  0.2867 -0.0123
 1359TIP3    H125568   6.278   5.602  15.008  0.0252  1.7350  2.2642
 1359TIP3    H225569   6.173   5.636  14.904 -1.0246 -1.0156  2.3315
 1360TIP3   OH225570   1.784   6.797   2.675  0.1860 -0.3177 -0.4504
 1360TIP3    H125571   1.791   6.836   2.588 -2.1807 -0.9916 -1.0137
 1360TIP3    H225572   1.813   6.707   2.664  2.7808  0.3725  0.1887
 1361TIP3   OH225573   1.193   5.433   3.432 -0.1952 -0.1206 -0.2064
 1361TIP3    H125574   1.172   5.358   3.488  0.7563  0.2439  0.6766
 1361TIP3    H225575   1.275   5.408   3.389  0.4749  0.6320  0.5781
 1362TIP3   OH225576   2.856   4.081  15.573 -0.3646  0.3539  0.1596
 1362TIP3    H125577   2.930   4.104  15.630  1.5407 -0.5228 -1.7751
 1362TIP3    H225578   2.781   4.125  15.611  0.9513  0.4730  2.8247
 1363TIP3   OH225579   5.061   2.782   3.919  0.4481 -0.1059  0.4713
 1363TIP3    H125580   4.991   2.841   3.891  1.5431  1.7298  1.4150
 1363TIP3    H225581   5.063   2.790   4.014  2.5180  0.6172  0.4187
 1364TIP3   OH225582   2.128   2.057  16.876 -0.0479  0.3568 -0.1837
 1364TIP3    H125583   2.059   2.012  16.926 -0.8745  2.9065  1.1250
 1364TIP3    H225584   2.092   2.065  16.788 -1.0874  0.9283  0.2778
 1365TIP3   OH225585   6.003   2.831  14.967  0.0785  0.3326 -0.4212
 1365TIP3    H125586   5.954   2.847  15.047  0.3705 -0.5142 -0.0655
 1365TIP3    H225587   5.936   2.834  14.898 -1.1271 -3.6659  0.3056
 1366TIP3   OH225588   2.860   5.719   0.819 -0.6160  0.2983 -0.0531
 1366TIP3    H125589   2.897   5.670   0.893 -0.6934  0.8546  0.3568
 1366TIP3    H225590   2.929   5.781   0.795 -0.5733  0.0902 -0.4836
 1367TIP3   OH225591   3.385   6.656   6.196  0.7493  0.1730  0.0394
 1367TIP3    H125592   3.301   6.693   6.223  0.3190 -0.1414 -0.8343
 1367TIP3    H225593   3.449   6.723   6.219  0.3232  0.2347  1.1176
 1368TIP3   OH225594   0.235   5.680  14.498  0.2782 -0.1544  0.4019
 1368TIP3    H125595   0.323   5.716  14.493 -0.1480  0.8149 -0.6557
 1368TIP3    H225596   0.177   5.756  14.485 -0.7420 -0.6342  1.8287
 1369TIP3   OH225597   5.337   1.166  12.431  0.3475  0.2046 -0.3072
 1369TIP3    H125598   5.375   1.253  12.445  0.2258  0.2199 -0.0605
 1369TIP3    H225599   5.300   1.142  12.516 -1.1426  0.6536 -0.7956
 1370TIP3   OH225600   4.105   1.711  11.310  0.0701  0.2074 -0.5196
 1370TIP3    H125601   4.072   1.788  11.263  0.5386 -0.0082 -1.2223
 1370TIP3    H225602   4.027   1.672  11.349 -0.4215  0.1144 -1.5513
 1371TIP3   OH225603   4.720   6.103  15.018 -0.3618 -0.5221  0.4263
 1371TIP3    H125604   4.659   6.173  14.996 -1.7235 -2.0051 -0.7271
 1371TIP3    H225605   4.747   6.066  14.934  1.1934 -0.7139  0.9651
 1372TIP3   OH225606   6.035   3.041   1.913  0.1652  0.2638 -0.5141
 1372TIP3    H125607   6.014   3.019   2.004  0.0220  1.0736 -0.3353
 1372TIP3    H225608   6.019   2.961   1.864 -2.1041  0.4188 -0.1767
 1373TIP3   OH225609   2.786   0.464   5.598  0.0461  0.2304  0.1293
 1373TIP3    H125610   2.873   0.431   5.575  0.1284  0.3039  0.3298
 1373TIP3    H225611   2.758   0.408   5.670  0.0821  0.4329  0.3061
 1374TIP3   OH225612   0.055   2.782   5.567 -0.5749 -0.0624 -0.0705
 1374TIP3    H125613   0.082   2.799   5.477  1.5558  1.3939  0.7617
 1374TIP3    H225614   0.041   2.870   5.605 -1.1684 -0.6280  1.0882
 1375TIP3   OH225615   2.821   1.003   2.691 -0.2647  0.1680 -0.2246
 1375TIP3    H125616   2.735   1.007   2.733 -0.1804  0.0923 -0.0428
 1375TIP3    H225617   2.802   1.000   2.597 -0.5152 -1.5693 -0.1426
 1376TIP3   OH225618   4.469   0.783  15.592 -0.6025 -0.1479  0.4760
 1376TIP3    H125619   4.403   0.828  15.540 -0.0088 -0.1419 -0.2884
 1376TIP3    H225620   4.490   0.704  15.541  1.6793  1.0136 -0.5036
 1377TIP3   OH225621   3.586   2.703  10.716  0.3224  0.1032  0.3322
 1377TIP3    H125622   3.674   2.734  10.696  0.5118 -1.0110 -0.6936
 1377TIP3    H225623   3.581   2.616  10.675 -0.9004 -0.2981  1.2582
 1378TIP3   OH225624   2.438   0.240   3.228  0.3339  0.1376  0.5095
 1378TIP3    H125625   2.429   0.304   3.156  0.8340 -0.2944  0.0513
 1378TIP3    H225626   2.530   0.246   3.254  0.9091 -1.7503 -0.8537
 1379TIP3   OH225627   3.465   6.400   6.262  0.4750 -0.2636  0.3566
 1379TIP3    H125628   3.457   6.340   6.188  1.8583 -0.5155  0.3745
 1379TIP3    H225629   3.430   6.483   6.231 -1.4349 -1.0322  0.3128
 1380TIP3   OH225630   0.979   3.602  13.440  0.5170 -0.2182  0.3287
 1380TIP3    H125631   1.006   3.690  13.414  0.1740 -0.3584 -0.5301
 1380TIP3    H225632   0.994   3.548  13.362 -2.7435 -0.1875 -0.4615
 1381TIP3   OH225633   4.013   4.997   0.566 -0.0158 -0.2366  0.1122
 1381TIP3    H125634   4.063   5.020   0.487  0.2173 -0.2772  0.2456
 1381TIP3    H225635   3.923   4.989   0.536  0.1977 -1.1460 -0.3385
 1382TIP3   OH225636   0.960   3.322  14.418  0.0223  0.1788  0.1695
 1382TIP3    H125637   1.000   3.264  14.353 -2.0966 -1.1323 -0.0498
 1382TIP3    H225638   0.996   3.292  14.502 -0.7139 -1.2512  0.0192
 1383TIP3   OH225639   0.486   1.114  11.301  0.0140  0.3324  0.2839
 1383TIP3    H125640   0.472   1.207  11.284 -0.4792  0.2791  0.3672
 1383TIP3    H225641   0.520   1.110  11.390  0.2302  0.4479  0.2060
 1384TIP3   OH225642   0.841   3.484   5.588  0.0464 -0.0790 -0.2573
 1384TIP3    H125643   0.881   3.455   5.669  0.4770 -1.1663 -0.8436
 1384TIP3    H225644   0.893   3.560   5.561  0.3015 -0.1142  0.1328
 1385TIP3   OH225645   1.992   3.833  16.208 -0.2542  0.3112 -0.2897
 1385TIP3    H125646   2.055   3.793  16.268  0.3152  1.1330 -0.3173
 1385TIP3    H225647   2.039   3.842  16.125 -0.9796 -0.6557 -0.8242
 1386TIP3   OH225648   5.950   6.267  13.383 -0.0674 -0.1502  0.4551
 1386TIP3    H125649   6.035   6.262  13.426  0.2226 -0.1973 -0.1219
 1386TIP3    H225650   5.890   6.298  13.452  0.1342 -1.4521  1.2394
 1387TIP3   OH225651   2.012   2.139   3.825  0.2411  0.1643 -0.3120
 1387TIP3    H125652   1.943   2.134   3.759  0.9852 -1.3032 -1.0319
 1387TIP3    H225653   2.076   2.074   3.797  1.5756  0.9791  0.7383
 1388TIP3   OH225654   4.066   3.704  16.538 -0.2896 -0.8456 -0.1750
 1388TIP3    H125655   4.095   3.661  16.458  0.6576  1.1953 -1.0228
 1388TIP3    H225656   4.035   3.790  16.508 -1.4251 -0.6399  1.4783
 1389TIP3   OH225657   0.491   3.387   4.437  0.4119 -0.6542  0.3083
 1389TIP3    H125658   0.448   3.320   4.490  0.1118  1.2720  2.6678
 1389TIP3    H225659   0.453   3.470   4.466  0.7287  0.6233 -2.5247
 1390TIP3   OH225660   4.763   2.655   0.982 -0.1881 -0.1356 -0.1568
 1390TIP3    H125661   4.753   2.694   0.895  0.4686 -1.2924 -0.7826
 1390TIP3    H225662   4.857   2.634   0.987 -0.0466  0.7577  1.2110
 1391TIP3   OH225663   4.524   4.822   5.138 -0.6562 -0.1682  0.4932
 1391TIP3    H125664   4.536   4.740   5.186 -0.6711 -1.2670 -1.2683
 1391TIP3    H225665   4.429   4.832   5.132 -0.9400 -2.8135 -3.4947
 1392TIP3   OH225666   4.182   1.103  15.182 -0.4564  0.0127 -0.7671
 1392TIP3    H125667   4.205   1.183  15.229  2.2034 -0.7503 -0.6361
 1392TIP3    H225668   4.102   1.125  15.135  0.3668  2.8598 -0.9885
 1393TIP3   OH225669   6.501   6.635  12.736 -0.0581  0.3510  0.2988
 1393TIP3    H125670   6.528   6.552  12.776 -0.4408  1.1423  2.3183
 1393TIP3    H225671   6.557   6.643  12.659  0.4376 -1.4618  0.4151
 1394TIP3   OH225672   2.410   0.893   2.234  0.2109 -0.1137 -0.9980
 1394TIP3    H125673   2.342   0.833   2.265 -0.2577  0.8050 -0.1776
 1394TIP3    H225674   2.387   0.978   2.273  3.9907 -0.4677  2.8047
 1395TIP3   OH225675   5.455   4.167  13.054  0.3771 -0.3674  0.1702
 1395TIP3    H125676   5.533   4.113  13.059  0.1903 -0.7974 -1.2113
 1395TIP3    H225677   5.474   4.231  12.985  1.1160  2.2604  2.6086
 1396TIP3   OH225678   0.438   1.217  10.487  0.8763  0.6796  0.2224
 1396TIP3    H125679   0.508   1.282  10.484  0.3479  1.2663 -2.7016
 1396TIP3    H225680   0.476   1.138  10.449  0.3625  0.5547 -0.0469
 1397TIP3   OH225681   4.772   4.281   3.486 -0.4678  0.2584  0.4553
 1397TIP3    H125682   4.687   4.250   3.517 -0.6765  0.9102  0.5365
 1397TIP3    H225683   4.818   4.201   3.460 -1.2312 -0.0679  0.0808
 1398TIP3   OH225684   6.026   6.710   0.885  0.3108  0.2453  0.0716
 1398TIP3    H125685   5.932   6.722   0.897  0.5408  0.6858  1.6879
 1398TIP3    H225686   6.035   6.683   0.794 -1.5438 -1.5857  0.3394
 1399TIP3   OH225687   5.117   3.301   3.219 -0.0111  0.3285 -0.1671
 1399TIP3    H125688   5.159   3.379   3.256 -0.5432  0.1239  0.9001
 1399TIP3    H225689   5.029   3.330   3.194  0.2093  0.3649 -0.9376
 1400TIP3   OH225690   6.074   1.998   0.863 -0.2386 -0.6647 -0.7953
 1400TIP3    H125691   6.161   2.037   0.867  0.0160 -1.1505 -1.3730
 1400TIP3    H225692   6.032   2.043   0.789 -0.2241 -0.9239 -0.9622
 1401TIP3   OH225693   1.044   1.910   3.643 -0.0438  0.0333 -0.2426
 1401TIP3    H125694   0.951   1.929   3.657  0.5708  2.7059  0.9141
 1401TIP3    H225695   1.047   1.865   3.558 -2.4262 -0.8313  0.0597
 1402TIP3   OH225696   4.703   2.165   6.469 -0.3192 -0.8509  0.3419
 1402TIP3    H125697   4.711   2.130   6.558 -0.6834  0.4408  0.9137
 1402TIP3    H225698   4.730   2.257   6.478  0.2987 -0.8818 -1.0291
 1403TIP3   OH225699   1.382   6.788   4.139 -0.4009  0.1580 -0.1510
 1403TIP3    H125700   1.448   6.797   4.071 -0.3669 -0.1170 -0.1560
 1403TIP3    H225701   1.406   6.853   4.205  1.2406 -1.4791  0.9530
 1404TIP3   OH225702   3.725   1.082   4.980 -0.4141 -0.8897  0.8999
 1404TIP3    H125703   3.650   1.126   4.939 -0.0200 -0.8328  0.2171
 1404TIP3    H225704   3.801   1.111   4.928  0.3620  0.6073  2.7382
 1405TIP3   OH225705   3.611   5.989   3.986 -0.1540  0.2084  0.1470
 1405TIP3    H125706   3.594   5.924   3.919  0.6710 -0.6324  0.7261
 1405TIP3    H225707   3.664   5.943   4.051  0.2240  1.3862  0.6970
 1406TIP3   OH225708   1.191   2.931   1.044 -0.4645  0.0430 -0.0460
 1406TIP3    H125709   1.149   2.872   0.982 -1.7361  1.9597 -1.1125
 1406TIP3    H225710   1.128   3.002   1.056 -0.9874 -0.8435  4.6059
 1407TIP3   OH225711   6.673   1.322   3.277 -0.7452 -0.3506 -0.4336
 1407TIP3    H125712   6.719   1.367   3.347  1.5877 -1.8118 -0.9340
 1407TIP3    H225713   6.635   1.392   3.223 -0.9328  0.8258  1.1750
 1408TIP3   OH225714   3.080   1.099   4.915 -0.2181  0.0206  0.1165
 1408TIP3    H125715   3.092   1.096   4.820  2.3657 -1.1320  0.4252
 1408TIP3    H225716   3.074   1.008   4.942  0.3583  0.2842  1.1921
 1409TIP3   OH225717   6.708   6.412   3.395 -0.3408  0.1757  0.6388
 1409TIP3    H125718   6.718   6.340   3.333 -1.4720  0.1760  0.4344
 1409TIP3    H225719   6.735   6.375   3.479  2.2504  0.4750  0.0444
 1410TIP3   OH225720   1.355   3.586  15.914 -0.1370 -0.1912 -0.0589
 1410TIP3    H125721   1.370   3.585  15.820 -0.0066  1.8981 -0.1133
 1410TIP3    H225722   1.335   3.495  15.937 -1.3402 -0.5503 -2.2813
 1411TIP3   OH225723   5.244   2.103  12.479  0.6939 -0.3633 -0.0998
 1411TIP3    H125724   5.148   2.094  12.480  0.7682 -1.1618  0.2735
 1411TIP3    H225725   5.264   2.150  12.559  0.5548  0.5305 -0.5757
 1412TIP3   OH225726   4.058   1.248  13.293 -0.0747 -0.8860  0.4246
 1412TIP3    H125727   4.069   1.336  13.258 -0.6797 -1.2591 -0.7586
 1412TIP3    H225728   4.146   1.222  13.321 -0.2045  0.7908  2.5802
 1413TIP3   OH225729   1.688   0.394   2.620 -0.0335  0.6694  0.3753
 1413TIP3    H125730   1.664   0.486   2.612 -1.1302  0.3271 -0.4949
 1413TIP3    H225731   1.782   0.393   2.603  0.0692  1.6729  0.7898
 1414TIP3   OH225732   4.672   0.246   4.436 -0.3966  0.7247  0.2135
 1414TIP3    H125733   4.665   0.277   4.526  1.0648 -2.0252  1.4036
 1414TIP3    H225734   4.765   0.256   4.415 -0.2472 -0.9445 -0.0240
 1415TIP3   OH225735   0.316   0.725  15.712  0.5886  0.0690  0.2410
 1415TIP3    H125736   0.323   0.636  15.677 -1.2839 -0.0870  0.1212
 1415TIP3    H225737   0.221   0.740  15.717  0.8494  1.3315  2.1080
 1416TIP3   OH225738   2.898   6.017  14.001 -0.2049 -0.0926  0.0061
 1416TIP3    H125739   2.895   5.952  13.931 -0.5103 -0.9092  0.7603
 1416TIP3    H225740   2.923   5.968  14.079 -0.7786  0.6320  0.6680
 1417TIP3   OH225741   6.571   5.693  10.586 -0.0097  0.1113 -0.3667
 1417TIP3    H125742   6.563   5.759  10.656  0.0667 -0.5962  0.3290
 1417TIP3    H225743   6.481   5.675  10.559 -0.1143 -0.2934  0.2180
 1418TIP3   OH225744   6.192   6.323   2.066  0.3925 -0.3477  0.9742
 1418TIP3    H125745   6.157   6.278   2.143 -0.7091  0.2980  0.8635
 1418TIP3    H225746   6.115   6.351   2.017  1.0816 -0.1081  0.0055
 1419TIP3   OH225747   6.738   3.604   4.424 -0.1629 -0.3044  0.0592
 1419TIP3    H125748   6.704   3.630   4.509 -0.4453 -0.5052  0.0099
 1419TIP3    H225749   6.809   3.543   4.444 -1.2420 -1.5825  0.1396
 1420TIP3   OH225750   6.571   0.319   5.794  0.4148  0.3321 -0.4761
 1420TIP3    H125751   6.664   0.301   5.805  0.1484 -0.6912  0.3200
 1420TIP3    H225752   6.538   0.330   5.883 -0.3073  0.1874 -0.7183
 1421TIP3   OH225753   1.026   4.232   2.714  0.6929 -0.0046 -0.0859
 1421TIP3    H125754   1.082   4.261   2.642  1.0540  0.9008  0.5414
 1421TIP3    H225755   0.941   4.270   2.694  0.2877 -1.3156 -0.9982
 1422TIP3   OH225756   0.159   3.410  14.621 -0.3027  0.1941 -0.1674
 1422TIP3    H125757   0.070   3.378  14.611 -0.6392  1.1709 -0.4706
 1422TIP3    H225758   0.215   3.336  14.599 -1.0444 -0.1115 -1.0620
 1423TIP3   OH225759   5.663   2.596   0.132  0.2342 -0.2617  0.1399
 1423TIP3    H125760   5.746   2.636   0.109  0.0052 -0.8627 -1.9205
 1423TIP3    H225761   5.635   2.642   0.211  1.5058  1.3932 -0.3216
 1424TIP3   OH225762   0.942   6.260  15.211  0.3854 -0.9260  0.1288
 1424TIP3    H125763   0.897   6.225  15.135  0.1607  0.8545 -0.6051
 1424TIP3    H225764   1.034   6.238  15.197  0.0934 -2.4486  0.4322
 1425TIP3   OH225765   1.685   3.227  17.138  0.2588 -0.3881 -0.3343
 1425TIP3    H125766   1.753   3.268  17.085 -1.1657  0.9496 -1.2196
 1425TIP3    H225767   1.732   3.192  17.214  1.6363  3.0610  0.6207
 1426TIP3   OH225768   0.984   1.215   4.577  0.0891  0.8476  0.1720
 1426TIP3    H125769   1.005   1.128   4.543  0.9025  1.4554 -0.9192
 1426TIP3    H225770   1.035   1.221   4.659  1.8929  1.1460 -0.9141
 1427TIP3   OH225771   2.362   2.594  14.119  0.1502  0.4632  0.1906
 1427TIP3    H125772   2.407   2.511  14.135 -1.3218 -0.2817  0.6462
 1427TIP3    H225773   2.293   2.572  14.056 -1.4878  0.9051  1.7726
 1428TIP3   OH225774   4.668   0.312  12.513 -0.5460  0.5050 -0.3890
 1428TIP3    H125775   4.676   0.220  12.487 -1.2554  0.4109 -0.2950
 1428TIP3    H225776   4.598   0.346  12.456 -0.6141  0.8577 -0.0922
 1429TIP3   OH225777   0.308   6.597  13.641 -0.5198 -0.5914 -0.5305
 1429TIP3    H125778   0.289   6.506  13.664 -0.0187 -0.7783 -0.8534
 1429TIP3    H225779   0.331   6.595  13.549  0.6554 -0.3176 -0.2552
 1430TIP3   OH225780   4.344   6.502   5.749 -0.3335  0.2424 -1.3260
 1430TIP3    H125781   4.435   6.528   5.764 -0.4287  0.2440 -0.7305
 1430TIP3    H225782   4.292   6.573   5.786 -0.5805  0.2882 -1.7509
 1431TIP3   OH225783   3.326   1.969  15.733  0.7782  0.0168  0.3171
 1431TIP3    H125784   3.416   2.001  15.732  1.0267 -0.6537  0.7792
 1431TIP3    H225785   3.329   1.888  15.784  0.3125 -1.1576 -1.3918
 1432TIP3   OH225786   5.308   3.665   2.633 -0.0762  0.1789  0.4321
 1432TIP3    H125787   5.378   3.663   2.697 -0.3645  1.0037  0.7882
 1432TIP3    H225788   5.274   3.575   2.631 -0.3937  0.2527  1.7968
 1433TIP3   OH225789   1.703   2.975  15.299  0.6798  0.3175 -0.5103
 1433TIP3    H125790   1.744   2.890  15.284  0.6370  0.6303 -2.6853
 1433TIP3    H225791   1.609   2.958  15.289  0.4821  0.2182  1.2879
 1434TIP3   OH225792   3.479   6.370   2.339 -0.2096 -0.4215 -0.5506
 1434TIP3    H125793   3.546   6.310   2.305  1.4642  0.7370  0.5377
 1434TIP3    H225794   3.529   6.436   2.387 -2.0616  1.3055 -0.8985
 1435TIP3   OH225795   2.873   3.198  12.165 -0.2963  0.3428 -0.4940
 1435TIP3    H125796   2.940   3.167  12.226  0.0387  0.6949 -0.6767
 1435TIP3    H225797   2.896   3.290  12.150 -1.1113  0.6056 -0.1698
 1436TIP3   OH225798   4.136   3.926   1.049 -0.7615  0.2701 -0.1033
 1436TIP3    H125799   4.188   4.005   1.056  1.7180 -1.3335  1.1403
 1436TIP3    H225800   4.077   3.941   0.975  0.1089  2.9479 -0.3298
 1437TIP3   OH225801   6.742   2.100   2.239 -0.2052  0.5903  0.3682
 1437TIP3    H125802   6.797   2.156   2.294 -0.4143 -1.2238  2.5561
 1437TIP3    H225803   6.670   2.073   2.297 -0.5721 -1.2305 -0.8488
 1438TIP3   OH225804   5.218   3.998  14.573  0.1316  0.5765  0.1475
 1438TIP3    H125805   5.132   4.024  14.606 -0.3298  0.0759 -0.6298
 1438TIP3    H225806   5.267   3.972  14.652  0.2475  2.6699  0.8227
 1439TIP3   OH225807   5.081   3.668  12.230  1.0693 -0.3978  0.4477
 1439TIP3    H125808   5.134   3.597  12.266 -0.7812 -1.4795  1.2041
 1439TIP3    H225809   4.992   3.633  12.229  0.3064  1.4158 -0.5456
 1440TIP3   OH225810   4.859   2.935   3.529 -0.5140 -0.5051 -0.1409
 1440TIP3    H125811   4.862   2.927   3.624  1.8471  0.2579 -0.0863
 1440TIP3    H225812   4.813   3.018   3.513 -1.3271 -0.8605  0.2756
 1441TIP3   OH225813   0.280   4.075  13.461 -0.0680  0.2951  0.6085
 1441TIP3    H125814   0.269   3.982  13.480 -1.0618  0.5255  1.2310
 1441TIP3    H225815   0.191   4.110  13.457  0.3035  1.3157  0.8994
 1442TIP3   OH225816   6.430   6.414  13.774 -0.2075 -0.7011  1.0206
 1442TIP3    H125817   6.356   6.461  13.813 -1.7531 -0.6689 -1.7361
 1442TIP3    H225818   6.416   6.322  13.800 -1.0316 -0.6386  0.8271
 1443TIP3   OH225819   2.695   2.288  15.937  0.4719 -0.7451 -0.7130
 1443TIP3    H125820   2.679   2.221  15.870 -0.3415 -0.9426 -0.3314
 1443TIP3    H225821   2.790   2.290  15.946  0.5633 -1.0789 -1.5066
 1444TIP3   OH225822   5.713   5.694  13.961 -0.1028  0.2316 -0.4698
 1444TIP3    H125823   5.784   5.666  13.903 -0.5166 -0.7078 -0.5393
 1444TIP3    H225824   5.663   5.756  13.907  0.7779  1.0930 -0.3379
 1445TIP3   OH225825   5.091   6.254  13.321 -0.0512  0.0829  0.0970
 1445TIP3    H125826   5.107   6.329  13.377 -0.8120  0.3273 -0.0032
 1445TIP3    H225827   5.177   6.216  13.306  0.0435 -0.8001  2.5422
 1446TIP3   OH225828   4.402   1.774  13.597  0.1393 -0.1570  0.1855
 1446TIP3    H125829   4.453   1.840  13.550  3.7732 -1.5436  1.7536
 1446TIP3    H225830   4.408   1.800  13.689  1.4117 -2.3842  0.8014
 1447TIP3   OH225831   6.216   4.831  11.746 -0.2435  0.4906 -0.3672
 1447TIP3    H125832   6.222   4.767  11.674 -0.3355 -0.1780  0.2094
 1447TIP3    H225833   6.131   4.812  11.787 -0.0169  0.6135  0.1559
 1448TIP3   OH225834   5.320   2.232   2.372 -0.1902  0.9199 -0.4813
 1448TIP3    H125835   5.236   2.186   2.367 -0.1991  0.9445 -0.5641
 1448TIP3    H225836   5.370   2.198   2.298 -0.4041  1.4613 -0.8821
 1449TIP3   OH225837   4.238   3.961   1.628 -0.1743  0.3702  0.2044
 1449TIP3    H125838   4.197   3.880   1.598 -0.0613  0.4042 -0.0476
 1449TIP3    H225839   4.291   3.935   1.703  1.1860 -0.1002 -0.8879
 1450TIP3   OH225840   1.966   2.686   0.654 -0.0999 -0.4039 -0.3685
 1450TIP3    H125841   1.891   2.638   0.687  0.5144 -0.8239  0.4445
 1450TIP3    H225842   1.980   2.652   0.566 -1.3419  0.2535 -0.8501
 1451TIP3   OH225843   4.376   5.729   0.680  0.1810 -0.4686 -0.0813
 1451TIP3    H125844   4.399   5.672   0.607  1.3505 -0.3442  0.1757
 1451TIP3    H225845   4.398   5.678   0.758 -0.4450 -0.3454  0.1860
 1452TIP3   OH225846   5.929   2.279  13.105 -0.0887 -0.1993 -0.4797
 1452TIP3    H125847   6.022   2.281  13.128 -0.0744  0.3441 -0.5536
 1452TIP3    H225848   5.884   2.275  13.189 -0.0020 -0.1724 -0.4321
 1453TIP3   OH225849   6.215   1.980   2.301 -0.0086 -0.2912 -0.0831
 1453TIP3    H125850   6.192   1.892   2.331 -0.0047 -0.2666 -0.0073
 1453TIP3    H225851   6.137   2.012   2.256  0.0307 -0.3795 -0.2159
 1454TIP3   OH225852   5.975   0.308  15.122  0.5666  0.2729  0.1331
 1454TIP3    H125853   5.969   0.401  15.097 -0.1943 -0.0336 -0.8538
 1454TIP3    H225854   6.026   0.268  15.052 -0.9308 -0.4474 -0.5809
 1455TIP3   OH225855   4.678   5.973  12.367 -0.2656 -0.0902  0.3035
 1455TIP3    H125856   4.683   6.024  12.447  2.1434 -0.1416  0.2596
 1455TIP3    H225857   4.770   5.962  12.340 -0.9998  0.1236 -2.5768
 1456TIP3   OH225858   1.543   2.991   0.310  0.8372 -0.0717  0.1613
 1456TIP3    H125859   1.627   3.010   0.267  0.5811 -0.7767 -0.6802
 1456TIP3    H225860   1.562   2.999   0.404  2.3069 -1.8538  0.0798
 1457TIP3   OH225861   0.007   0.234   2.373  0.1341 -0.4324 -0.0910
 1457TIP3    H125862   0.015   0.140   2.383  1.5443 -0.3613 -0.2669
 1457TIP3    H225863   0.037   0.252   2.283  0.2714  0.2151  0.0741
 1458TIP3   OH225864   6.607   2.774   5.455  0.0318 -0.1087 -0.4224
 1458TIP3    H125865   6.608   2.830   5.377  0.7504 -1.6552 -1.5957
 1458TIP3    H225866   6.688   2.795   5.501  0.1908 -0.0226 -0.7388
 1459TIP3   OH225867   0.619   5.986  13.775 -0.0199  0.0944 -0.2742
 1459TIP3    H125868   0.712   5.996  13.754 -0.0735  0.9006 -0.1672
 1459TIP3    H225869   0.575   6.051  13.720 -0.4671  0.1055  0.0952
 1460TIP3   OH225870   0.840   5.479   3.467  0.0191 -0.1814 -0.4285
 1460TIP3    H125871   0.810   5.569   3.453 -0.1630 -0.1904 -0.1064
 1460TIP3    H225872   0.855   5.445   3.379  1.3775  0.5904 -0.5349
 1461TIP3   OH225873   1.268   6.556   0.474  0.2200  0.4676  0.2538
 1461TIP3    H125874   1.184   6.601   0.484  0.3035  0.9819 -1.1880
 1461TIP3    H225875   1.294   6.574   0.384  0.4164 -2.1611 -0.2975
 1462TIP3   OH225876   3.953   6.385   0.390 -0.7542  0.1273  0.5988
 1462TIP3    H125877   3.965   6.317   0.323 -2.0909  1.0157 -0.6008
 1462TIP3    H225878   3.860   6.378   0.414 -1.0718  1.8926  0.0136
 1463TIP3   OH225879   3.766   3.334   1.102 -0.1166 -0.1689 -0.2506
 1463TIP3    H125880   3.684   3.361   1.059  0.2594  0.4486 -0.5927
 1463TIP3    H225881   3.755   3.240   1.117 -1.4475  0.1255  0.9297
 1464TIP3   OH225882   6.095   5.804  13.217 -0.0654  0.7256 -0.3412
 1464TIP3    H125883   6.064   5.888  13.185  1.0686  0.9639 -0.8549
 1464TIP3    H225884   6.181   5.793  13.176  0.1454 -0.3116  0.3491
 1465TIP3   OH225885   4.335   2.704  15.381 -0.2648  0.4645 -0.6081
 1465TIP3    H125886   4.335   2.771  15.313 -0.0350  0.1506 -0.9170
 1465TIP3    H225887   4.312   2.751  15.461 -2.5696  0.5168 -1.2204
 1466TIP3   OH225888   1.168   2.775  14.684  0.0960  0.0257  0.7012
 1466TIP3    H125889   1.129   2.777  14.771 -2.3352  0.6711 -0.3268
 1466TIP3    H225890   1.164   2.866  14.654  2.0406  0.0406  0.3276
 1467TIP3   OH225891   0.750   0.046   4.842  0.3906 -0.1073 -0.1224
 1467TIP3    H125892   0.755   0.127   4.893 -0.1241  0.7153 -1.3182
 1467TIP3    H225893   0.700  -0.014   4.896 -0.7909  0.9834  0.0353
 1468TIP3   OH225894   4.337   0.114   2.835  0.3018  0.4951  0.0628
 1468TIP3    H125895   4.429   0.114   2.810  0.5151 -0.9372  0.7475
 1468TIP3    H225896   4.291   0.085   2.756  0.5302  0.3267 -0.0111
 1469TIP3   OH225897   3.928   0.688  14.150  0.5227  0.0363  0.2277
 1469TIP3    H125898   3.896   0.723  14.066  0.9107 -2.3887 -1.0150
 1469TIP3    H225899   3.848   0.664  14.197  0.2564  2.2225  1.0171
 1470TIP3   OH225900   4.307   0.113  13.870  0.2360  0.2781 -0.0234
 1470TIP3    H125901   4.306   0.135  13.777  1.1940  2.5175  0.4253
 1470TIP3    H225902   4.221   0.075  13.887  0.4933 -1.3711 -2.0450
 1471TIP3   OH225903   3.313   6.179   0.790  0.4898  0.7390  0.2104
 1471TIP3    H125904   3.271   6.248   0.843  0.5251  0.6935  0.2973
 1471TIP3    H225905   3.255   6.168   0.715 -0.0797  0.1108  0.7297
 1472TIP3   OH225906   5.019   5.043   4.481  0.1805 -0.2695  0.0118
 1472TIP3    H125907   5.044   5.124   4.525  1.7893 -0.3773 -0.6283
 1472TIP3    H225908   4.983   5.071   4.397 -1.1655 -0.1526  0.6010
 1473TIP3   OH225909   0.783   2.354  10.623  0.5636  0.4312 -0.3872
 1473TIP3    H125910   0.878   2.347  10.614  0.7057 -0.8383  1.5622
 1473TIP3    H225911   0.769   2.439  10.664  0.9820  0.0279  0.6175
 1474TIP3   OH225912   2.906   2.502  12.762 -0.1692  0.2086  0.1097
 1474TIP3    H125913   2.835   2.524  12.822 -1.6899 -1.9360 -0.7754
 1474TIP3    H225914   2.907   2.406  12.759  1.8621  0.1894 -0.9881
 1475TIP3   OH225915   2.772   1.786  12.854 -0.4529 -0.0333 -0.1540
 1475TIP3    H125916   2.823   1.857  12.816  1.7602 -0.8631  1.0725
 1475TIP3    H225917   2.752   1.729  12.780  1.3198 -0.1860 -0.5646
 1476TIP3   OH225918   3.564   5.275   3.347  0.1352 -0.0002  0.2863
 1476TIP3    H125919   3.526   5.212   3.286  0.2257  1.0604 -0.9243
 1476TIP3    H225920   3.510   5.353   3.337 -1.1052 -0.3787  3.0793
 1477TIP3   OH225921   2.079   6.367   3.635 -0.6795  0.2603  0.3157
 1477TIP3    H125922   2.004   6.336   3.686 -0.7043 -0.0503  0.0955
 1477TIP3    H225923   2.102   6.451   3.674 -0.1343 -0.3761  1.4115
 1478TIP3   OH225924   1.268   4.419   2.241  0.0416  0.0204  0.0462
 1478TIP3    H125925   1.231   4.507   2.226  0.5471  0.0086 -1.4530
 1478TIP3    H225926   1.362   4.432   2.237  0.1161 -0.6382 -0.4880
 1479TIP3   OH225927   3.427   1.985   5.631  0.0772  1.3134 -0.2720
 1479TIP3    H125928   3.412   1.891   5.634 -0.8901  1.4021 -1.3657
 1479TIP3    H225929   3.471   2.006   5.713  2.0921 -0.3703 -0.8545
 1480TIP3   OH225930   1.701   5.248   2.808  0.4354  0.0548  0.2254
 1480TIP3    H125931   1.676   5.337   2.785 -0.8770  0.1045  1.6913
 1480TIP3    H225932   1.670   5.236   2.897 -0.1208 -2.1208 -0.1964
 1481TIP3   OH225933   6.652   6.611  15.772  0.0132 -0.1047  0.7033
 1481TIP3    H125934   6.558   6.614  15.756  0.3110 -1.0432 -1.7293
 1481TIP3    H225935   6.682   6.701  15.755 -0.0243 -0.5603 -2.4923
 1482TIP3   OH225936   6.059   6.341   2.674  0.2902 -0.2050  0.2795
 1482TIP3    H125937   6.137   6.358   2.622  0.5577  0.6363  0.9392
 1482TIP3    H225938   5.999   6.298   2.613  2.4554 -4.1290  0.5299
 1483TIP3   OH225939   5.242   0.280   0.865  0.3156 -0.4719 -0.8186
 1483TIP3    H125940   5.196   0.363   0.848 -0.3700 -0.9486 -1.3615
 1483TIP3    H225941   5.210   0.221   0.796 -0.6009 -1.7300  0.6178
 1484TIP3   OH225942   6.528   1.646   1.153 -0.7660  0.4639  0.6904
 1484TIP3    H125943   6.574   1.568   1.120  0.8260  1.2661  0.9215
 1484TIP3    H225944   6.493   1.618   1.238 -0.9489 -0.2492  0.3917
 1485TIP3   OH225945   2.917   4.076   1.020  0.6756  0.1786 -0.2901
 1485TIP3    H125946   2.831   4.114   1.004  1.1712  1.1757 -0.6934
 1485TIP3    H225947   2.899   3.986   1.048 -0.5837  0.8948  1.3814
 1486TIP3   OH225948   3.970   5.735  13.582  0.2157  0.5099  0.3048
 1486TIP3    H125949   3.997   5.708  13.670 -1.2498  2.7898  1.5431
 1486TIP3    H225950   3.901   5.672  13.559  1.3215 -0.7476  0.2760
 1487TIP3   OH225951   2.065   2.625   0.126  0.1892  0.3403 -0.0521
 1487TIP3    H125952   2.019   2.598   0.046  1.0129  0.4636 -0.5908
 1487TIP3    H225953   2.157   2.631   0.099  0.4772  0.4027  0.9096
 1488TIP3   OH225954   4.067   3.943  12.850 -0.2465  0.5169 -0.6346
 1488TIP3    H125955   3.997   3.894  12.809 -0.2665 -0.9160  0.9843
 1488TIP3    H225956   4.069   3.911  12.940  2.2540  0.7771 -0.5332
 1489TIP3   OH225957   6.530   6.561   2.627 -0.2421 -0.0885  0.1011
 1489TIP3    H125958   6.502   6.651   2.646 -1.6211 -0.5354  0.2881
 1489TIP3    H225959   6.495   6.510   2.700  0.2442 -0.8352 -0.1825
 1490TIP3   OH225960   3.829   1.701  13.524 -0.3660  0.0170  0.1560
 1490TIP3    H125961   3.902   1.734  13.575 -0.9672  2.1907 -0.2957
 1490TIP3    H225962   3.829   1.754  13.444 -1.9722 -0.4339 -0.1930
 1491TIP3   OH225963   6.069   3.044   3.215  1.6733  0.1307 -0.0032
 1491TIP3    H125964   6.152   3.080   3.183  2.4826 -0.4878  1.3216
 1491TIP3    H225965   6.076   3.051   3.310 -0.1801  0.8893  0.1039
 1492TIP3   OH225966   0.622   3.633   4.292  0.2474  0.0554 -0.6803
 1492TIP3    H125967   0.605   3.559   4.351 -0.0575  2.4155  2.4651
 1492TIP3    H225968   0.578   3.609   4.211  0.4549 -3.3207  0.0393
 1493TIP3   OH225969   0.594   1.521   2.864 -0.4709  0.0350 -0.1164
 1493TIP3    H125970   0.581   1.607   2.902  0.0806  0.1393 -0.1606
 1493TIP3    H225971   0.588   1.535   2.769  0.5881  0.2027 -0.1718
 1494TIP3   OH225972   6.591   4.257   4.410  0.3775  0.1774 -0.8057
 1494TIP3    H125973   6.667   4.272   4.467 -0.8832  0.2464  0.9427
 1494TIP3    H225974   6.577   4.162   4.415 -1.6686  0.4981  1.7426
 1495TIP3   OH225975   0.105   0.862   0.559  0.0863 -0.1978  0.0252
 1495TIP3    H125976   0.100   0.772   0.529 -2.0454  0.0030 -0.3812
 1495TIP3    H225977   0.150   0.909   0.489 -0.0771 -0.6948 -0.4164
 1496TIP3   OH225978   6.500   2.714   1.473  0.0898 -0.0981 -0.1062
 1496TIP3    H125979   6.498   2.809   1.477 -1.1804 -0.0955 -0.5018
 1496TIP3    H225980   6.515   2.693   1.381 -0.2265 -0.2734 -0.1212
 1497TIP3   OH225981   5.251   1.880   4.462 -0.0897 -0.5993 -0.3952
 1497TIP3    H125982   5.212   1.794   4.444  0.8157 -0.6691 -2.2610
 1497TIP3    H225983   5.304   1.866   4.541 -0.9660 -1.4060  0.0708
 1498TIP3   OH225984   6.366   3.548  11.061 -0.4461  0.3912  0.1865
 1498TIP3    H125985   6.298   3.553  11.129 -1.2854 -0.3985 -0.5575
 1498TIP3    H225986   6.336   3.609  10.993 -0.0512  0.5484  0.1511
 1499TIP3   OH225987   0.275   2.541  10.976 -0.5486 -0.0591  0.2570
 1499TIP3    H125988   0.299   2.541  10.884 -0.5246  0.9777  0.2560
 1499TIP3    H225989   0.243   2.629  10.993  1.7898  0.5898  1.8239
 1500TIP3   OH225990   6.225   3.917  13.509 -0.0449  0.1143  0.4494
 1500TIP3    H125991   6.145   3.904  13.458  0.7350  2.6698 -1.6311
 1500TIP3    H225992   6.296   3.894  13.449  0.8503 -0.5080  1.7020
 1501TIP3   OH225993   3.343   4.651   4.394 -0.0907 -0.4636  0.4907
 1501TIP3    H125994   3.333   4.560   4.423  2.2352 -0.7581  0.5084
 1501TIP3    H225995   3.350   4.645   4.299  0.7551 -0.3837  0.5455
 1502TIP3   OH225996   5.499   5.101   6.135 -0.3069  0.4527 -0.2835
 1502TIP3    H125997   5.557   5.041   6.089  0.4014 -0.0145  1.1665
 1502TIP3    H225998   5.526   5.188   6.107  0.4658  0.1910 -0.3489
 1503TIP3   OH225999   2.229   4.001   4.971  0.3000  0.1070 -0.2201
 1503TIP3    H126000   2.215   3.949   4.892 -1.0750 -1.1820  0.7999
 1503TIP3    H226001   2.321   4.026   4.968  0.4118 -0.4073 -1.9276
 1504TIP3   OH226002   1.629   5.842   3.581 -0.1363  0.2634  0.6186
 1504TIP3    H126003   1.578   5.863   3.659 -1.4701  1.8032 -0.5874
 1504TIP3    H226004   1.565   5.806   3.520  0.8628 -0.8055  0.1564
 1505TIP3   OH226005   5.135   3.460  15.860 -0.0135 -0.0177  0.1377
 1505TIP3    H126006   5.223   3.428  15.881 -0.2584 -1.0955 -0.4115
 1505TIP3    H226007   5.136   3.552  15.886  1.2391 -0.0486  0.2497
 1506TIP3   OH226008   6.306   0.746  11.272 -0.1325  0.6950  0.1891
 1506TIP3    H126009   6.280   0.660  11.239 -1.4807  0.5375  1.5600
 1506TIP3    H226010   6.235   0.805  11.245  1.2125  1.6228 -1.5437
 1507TIP3   OH226011   1.429   3.959  12.046  0.3094  0.2360  0.4771
 1507TIP3    H126012   1.443   4.050  12.020 -0.9698 -0.3736 -2.8715
 1507TIP3    H226013   1.336   3.943  12.029  0.2552 -1.4628  1.9753
 1508TIP3   OH226014   5.085   0.764  14.075 -0.0311  0.0624  0.3185
 1508TIP3    H126015   5.175   0.797  14.075  0.4151 -1.0876  0.6730
 1508TIP3    H226016   5.071   0.733  14.164 -0.0088 -1.6945 -0.2385
 1509TIP3   OH226017   2.349   5.345  12.078 -0.0178  0.4147 -0.2020
 1509TIP3    H126018   2.330   5.338  12.172 -0.7134 -0.3752 -0.3901
 1509TIP3    H226019   2.286   5.409  12.046 -0.4771 -0.0751 -0.3028
 1510TIP3   OH226020   6.767   0.281   5.357  0.0639  0.2516 -0.1897
 1510TIP3    H126021   6.849   0.329   5.366  0.2189  0.0059 -0.2857
 1510TIP3    H226022   6.791   0.189   5.369  0.0660  0.0245 -1.7037
 1511TIP3   OH226023   5.960   5.734  14.144  0.6720  0.3214 -0.1958
 1511TIP3    H126024   6.037   5.780  14.177  0.3498  0.9389 -0.2945
 1511TIP3    H226025   5.957   5.757  14.051  1.1869 -0.8574 -0.5163
 1512TIP3   OH226026   4.240   6.399   3.202  1.3120 -0.5147  0.2184
 1512TIP3    H126027   4.217   6.310   3.225 -0.5818 -0.1563 -0.1201
 1512TIP3    H226028   4.254   6.397   3.107  1.0673 -0.4265  0.1785
 1513TIP3   OH226029   2.783   1.866   6.129 -0.2631  0.0951  0.2513
 1513TIP3    H126030   2.821   1.934   6.184  1.7625 -1.6639  1.1894
 1513TIP3    H226031   2.761   1.796   6.191 -1.0740 -0.6062 -0.8160
 1514TIP3   OH226032   4.834   0.695  12.238 -0.2546  0.5197 -0.1318
 1514TIP3    H126033   4.778   0.683  12.161 -1.6905  0.3833  0.9112
 1514TIP3    H226034   4.913   0.645  12.217 -1.3613 -1.0326 -0.7901
 1515TIP3   OH226035   0.198   6.602   4.792 -0.8565  0.4777 -0.1511
 1515TIP3    H126036   0.144   6.674   4.824 -1.0707 -0.0592  0.7214
 1515TIP3    H226037   0.213   6.622   4.700 -0.0405  2.1729  0.3180
 1516TIP3   OH226038   6.450   3.745   2.603  0.0407  0.9044 -0.3211
 1516TIP3    H126039   6.389   3.737   2.676  0.0195  0.7944 -0.3505
 1516TIP3    H226040   6.415   3.686   2.536 -0.4345  1.6494 -0.7573
 1517TIP3   OH226041   0.748   0.306   1.977 -0.1779  0.9982 -0.0525
 1517TIP3    H126042   0.817   0.355   1.932 -1.2975  1.5612 -1.2198
 1517TIP3    H226043   0.786   0.283   2.062  0.7950  2.9011  0.0827
 1518TIP3   OH226044   4.360   0.389  15.029 -0.0908 -0.4477 -0.1067
 1518TIP3    H126045   4.294   0.408  15.096  0.6537  0.9737  0.2505
 1518TIP3    H226046   4.430   0.451  15.045  0.5019 -0.6527 -1.6761
 1519TIP3   OH226047   2.239   3.515  14.008  0.8181  0.0249 -0.6946
 1519TIP3    H126048   2.187   3.466  14.073  3.1003 -1.1957  0.3187
 1519TIP3    H226049   2.184   3.590  13.985 -0.6470 -0.2354  1.6491
 1520TIP3   OH226050   2.849   6.824   2.630 -0.1581  0.1828 -0.0644
 1520TIP3    H126051   2.921   6.771   2.597 -1.0896 -2.5608  1.8784
 1520TIP3    H226052   2.777   6.808   2.568  0.3155  1.4184 -0.9659
 1521TIP3   OH226053   2.685   0.708   4.595  0.3026 -0.6589 -0.2123
 1521TIP3    H126054   2.605   0.758   4.579  0.0690 -0.8668  0.3070
 1521TIP3    H226055   2.735   0.762   4.656  0.6079 -0.4863 -0.6059
 1522TIP3   OH226056   6.812   5.189  15.018 -0.1240 -0.6353 -0.0481
 1522TIP3    H126057   6.778   5.100  15.010 -1.6442 -0.1790  0.9079
 1522TIP3    H226058   6.749   5.233  15.075  1.4454  0.6218  0.7839
 1523TIP3   OH226059   1.689   2.356  13.916  0.5855 -0.6787  0.4767
 1523TIP3    H126060   1.784   2.341  13.921  0.7886  0.3529 -0.0349
 1523TIP3    H226061   1.666   2.334  13.826 -0.0328 -2.7402  1.0659
 1524TIP3   OH226062   1.176   1.144   4.956  0.7288 -0.1139  0.2389
 1524TIP3    H126063   1.253   1.182   4.998  0.3651 -0.5090  1.2963
 1524TIP3    H226064   1.129   1.219   4.919  1.7281  0.1049 -0.6142
 1525TIP3   OH226065   1.934   4.321   3.753 -0.5068  0.1983 -0.0860
 1525TIP3    H126066   1.847   4.303   3.716 -0.1945 -1.9589  0.1040
 1525TIP3    H226067   1.980   4.368   3.684 -1.3807  0.1571 -0.7191
 1526TIP3   OH226068   1.417   4.833  11.507 -0.3639  0.1968 -0.4618
 1526TIP3    H126069   1.423   4.849  11.602 -0.9349  2.6524 -0.7774
 1526TIP3    H226070   1.407   4.738  11.500 -4.3238  0.1700  2.1977
 1527TIP3   OH226071   0.879   6.808  15.355  0.0401  0.7075 -0.1014
 1527TIP3    H126072   0.785   6.823  15.357 -0.3516 -0.9834 -2.1986
 1527TIP3    H226073   0.910   6.859  15.280  0.5452  0.1598 -0.2733
 1528TIP3   OH226074   2.005   4.818  16.772  0.5031 -0.0594  0.3534
 1528TIP3    H126075   2.087   4.861  16.748  0.2593  0.6542  0.7419
 1528TIP3    H226076   1.996   4.835  16.866 -0.8640  1.2517  0.0275
 1529TIP3   OH226077   4.872   3.293   1.425  0.2839  0.2855  0.1986
 1529TIP3    H126078   4.805   3.245   1.473  0.1643 -0.7576 -0.9944
 1529TIP3    H226079   4.874   3.379   1.468  0.0209 -0.5207  1.9132
 1530TIP3   OH226080   6.741   1.525  17.240  0.1982 -0.4037 -0.2982
 1530TIP3    H126081   6.833   1.537  17.216 -0.0980  4.0550 -0.0859
 1530TIP3    H226082   6.742   1.513  17.335  0.6484  2.8493  0.2503
 1531TIP3   OH226083   0.529   3.330   2.827  0.1396  0.0470  0.3502
 1531TIP3    H126084   0.457   3.391   2.813 -0.8428 -1.2831 -0.6193
 1531TIP3    H226085   0.578   3.367   2.900 -0.7386  1.6898  0.1517
 1532TIP3   OH226086   6.023   6.580  10.524 -0.2002 -0.4438  0.8436
 1532TIP3    H126087   5.999   6.667  10.493  0.5574 -0.5836 -0.2060
 1532TIP3    H226088   6.096   6.554  10.467 -0.4259 -1.7607  1.1303
 1533TIP3   OH226089   1.578   1.615  14.487  0.4720  0.2066  0.2274
 1533TIP3    H126090   1.595   1.534  14.535  1.3059  1.0315  1.3949
 1533TIP3    H226091   1.665   1.645  14.459  0.0281 -0.1304 -1.6393
 1534TIP3   OH226092   2.862   5.652  10.617 -0.9283 -0.0233 -0.4580
 1534TIP3    H126093   2.796   5.631  10.551 -0.1449  3.1104 -2.4645
 1534TIP3    H226094   2.913   5.572  10.626 -2.2424 -1.1472 -2.2525
 1535TIP3   OH226095   3.332   2.752   6.667  0.7535  0.0775  0.3232
 1535TIP3    H126096   3.394   2.787   6.603  0.8719 -1.8168 -0.6415
 1535TIP3    H226097   3.252   2.802   6.652  0.6576 -0.5938 -1.5955
 1536TIP3   OH226098   1.960   3.782   5.134  0.5681 -0.1043  0.2761
 1536TIP3    H126099   2.032   3.829   5.177  1.6304  1.0073 -2.4870
 1536TIP3    H226100   1.897   3.850   5.112 -0.0765 -0.6835  0.3178
 1537TIP3   OH226101   3.361   4.159  17.128  0.0825 -0.1858 -0.1091
 1537TIP3    H126102   3.426   4.145  17.197  1.0295  0.6051 -0.8020
 1537TIP3    H226103   3.299   4.222  17.166  1.2487  1.1572 -0.3370
 1538TIP3   OH226104   5.255   1.954   3.448  0.0466  0.3497  0.1933
 1538TIP3    H126105   5.243   1.956   3.353 -0.3338  0.8770  0.2445
 1538TIP3    H226106   5.201   2.026   3.480  0.7079  0.6132  0.7516
 1539TIP3   OH226107   3.435   3.162  12.409  0.1838  0.6527  0.5140
 1539TIP3    H126108   3.488   3.097  12.363  0.8901  1.6843 -0.1667
 1539TIP3    H226109   3.427   3.128  12.498 -1.2949 -1.4402 -0.3307
 1540TIP3   OH226110   0.407   5.724   1.692 -0.5408 -0.2720  0.1973
 1540TIP3    H126111   0.419   5.758   1.781 -1.0145 -0.7373  0.4419
 1540TIP3    H226112   0.485   5.754   1.645  0.3488 -1.0846  1.0995
 1541TIP3   OH226113   1.779   4.633  13.247  0.7283  0.6780 -0.9522
 1541TIP3    H126114   1.770   4.670  13.159  2.2026  3.0609 -0.1965
 1541TIP3    H226115   1.871   4.647  13.270  0.4864 -0.3149  0.8017
 1542TIP3   OH226116   2.784   3.093  16.558  0.3626 -0.3258 -0.4452
 1542TIP3    H126117   2.738   3.154  16.501 -0.8190 -0.9181 -0.1464
 1542TIP3    H226118   2.793   3.140  16.641  1.5615  0.3134 -0.9128
 1543TIP3   OH226119   1.985   0.076  15.288  0.1730 -0.6592  0.0610
 1543TIP3    H126120   2.005   0.168  15.267 -0.4144  0.0140  2.2128
 1543TIP3    H226121   1.891   0.067  15.270 -0.2470 -0.1876  1.8236
 1544TIP3   OH226122   4.976   2.095   5.089  0.8435  0.2387 -0.1756
 1544TIP3    H126123   4.908   2.129   5.148 -0.6251 -0.2660 -1.5090
 1544TIP3    H226124   4.943   2.009   5.062  2.7006 -0.6293  0.2114
 1545TIP3   OH226125   0.707   5.311   5.931  0.0255  0.6379 -0.6657
 1545TIP3    H126126   0.672   5.223   5.923 -0.5979  1.0522 -3.1834
 1545TIP3    H226127   0.673   5.342   6.016 -1.1263 -0.9278 -0.5149
 1546TIP3   OH226128   3.197   4.406   2.574  0.5393  0.6138  0.1466
 1546TIP3    H126129   3.217   4.498   2.557 -0.2592  0.6419 -0.7323
 1546TIP3    H226130   3.104   4.406   2.598  0.5304  0.0360  0.1234
 1547TIP3   OH226131   5.234   1.684   0.207 -0.0688  0.2829 -0.6736
 1547TIP3    H126132   5.322   1.678   0.245  0.2180  0.3600 -1.3236
 1547TIP3    H226133   5.175   1.664   0.280  0.4612  0.7955 -0.0972
 1548TIP3   OH226134   3.610   6.062   1.361 -0.3625  0.1923  0.0769
 1548TIP3    H126135   3.671   6.008   1.310 -0.3740  0.4610 -0.2268
 1548TIP3    H226136   3.526   6.050   1.316 -0.8420 -1.2553  1.2886
 1549TIP3   OH226137   3.581   2.816   1.211 -0.1891  0.4489 -0.4510
 1549TIP3    H126138   3.493   2.779   1.222 -0.4724  1.3041  0.2948
 1549TIP3    H226139   3.627   2.793   1.292  0.1896  0.2471 -0.7189
 1550TIP3   OH226140   1.135   1.709   1.236  0.1624 -0.0999  0.4184
 1550TIP3    H126141   1.085   1.631   1.260  0.0030 -0.0624  0.2142
 1550TIP3    H226142   1.083   1.783   1.269 -0.2668 -0.0278 -0.3822
 1551TIP3   OH226143   0.197   5.454   5.511 -0.6769  0.0020  0.2311
 1551TIP3    H126144   0.127   5.458   5.445  1.4541 -0.1365 -2.2215
 1551TIP3    H226145   0.269   5.409   5.467  0.4356 -1.3755  3.2048
 1552TIP3   OH226146   3.144   6.487  10.541 -0.0783 -0.4988  0.0252
 1552TIP3    H126147   3.089   6.415  10.510  0.1179 -1.2616  1.3332
 1552TIP3    H226148   3.183   6.453  10.622 -0.2220  1.1952  0.8409
 1553TIP3   OH226149   3.624   4.731   0.856  0.6129 -0.5294 -0.8215
 1553TIP3    H126150   3.533   4.729   0.886  0.9321 -2.4451  0.1410
 1553TIP3    H226151   3.618   4.756   0.763 -0.6230  2.3929 -0.0597
 1554TIP3   OH226152   3.259   0.539   2.289  0.0312  0.1785 -0.0153
 1554TIP3    H126153   3.351   0.551   2.268 -0.2224  0.6894 -0.8342
 1554TIP3    H226154   3.250   0.574   2.378  1.2330 -2.5691  1.3078
 1555TIP3   OH226155   1.238   0.198  11.986 -0.3253  0.0416  0.4359
 1555TIP3    H126156   1.265   0.228  11.899 -2.1407  0.5729  0.0187
 1555TIP3    H226157   1.159   0.146  11.970 -0.0241 -0.8333  1.6678
 1556TIP3   OH226158   1.531   2.827  17.235  0.0607  0.8108 -0.0677
 1556TIP3    H126159   1.521   2.782  17.319  0.1705  2.7814  1.0436
 1556TIP3    H226160   1.625   2.831  17.220  0.0502 -1.8031 -1.6543
 1557TIP3   OH226161   6.762   4.846  11.416 -0.1060  0.4887 -0.1030
 1557TIP3    H126162   6.783   4.873  11.326  0.5466 -0.2776 -0.1955
 1557TIP3    H226163   6.749   4.751  11.409  1.1729  0.2313  0.8316
 1558TIP3   OH226164   3.785   3.215  17.266 -0.0397  0.1162  0.0665
 1558TIP3    H126165   3.700   3.172  17.272  0.0598 -0.1545 -0.3740
 1558TIP3    H226166   3.804   3.245  17.355 -0.4063 -0.1858  0.2466
 1559TIP3   OH226167   4.204   6.792  14.250 -0.0565 -0.2556 -0.1368
 1559TIP3    H126168   4.170   6.782  14.161 -0.4442 -1.5761  0.1268
 1559TIP3    H226169   4.207   6.886  14.265  1.0261  0.0308 -1.9229
 1560TIP3   OH226170   4.716   1.842   1.444 -0.8521  0.1704 -0.5731
 1560TIP3    H126171   4.762   1.924   1.459 -1.5820  0.7772 -1.4820
 1560TIP3    H226172   4.784   1.775   1.443 -0.4788  0.3217  2.8607
 1561TIP3   OH226173   3.723   2.307   2.599  0.4160  0.0229 -0.3202
 1561TIP3    H126174   3.769   2.290   2.681  0.4758  1.1271 -0.1132
 1561TIP3    H226175   3.786   2.354   2.545  0.6861 -1.4649 -1.3664
 1562TIP3   OH226176   6.469   5.945  11.575  0.6096 -0.0243  0.0870
 1562TIP3    H126177   6.431   5.985  11.497  0.6911  0.1996  0.1607
 1562TIP3    H226178   6.430   5.994  11.648 -1.2100 -1.6834  0.2999
 1563TIP3   OH226179   6.018   4.628  14.967 -0.7257 -0.2174 -0.1152
 1563TIP3    H126180   6.026   4.693  14.897  0.7463 -0.2014  0.0452
 1563TIP3    H226181   6.059   4.668  15.043  2.0502 -2.0226 -0.5171
 1564TIP3   OH226182   3.761   4.839  16.456 -0.5141 -0.7483  0.1906
 1564TIP3    H126183   3.670   4.861  16.436 -0.7513 -2.2146 -0.4001
 1564TIP3    H226184   3.761   4.745  16.469  0.7261 -0.6152  1.3478
 1565TIP3   OH226185   2.002   1.689   2.806 -0.3023 -0.3105  0.0634
 1565TIP3    H126186   2.048   1.697   2.722 -0.3191  1.8871  0.2047
 1565TIP3    H226187   1.910   1.706   2.784 -0.5890 -1.5409  0.2679
 1566TIP3   OH226188   4.353   0.691   1.636  0.1822 -0.0744  0.6022
 1566TIP3    H126189   4.350   0.786   1.634  0.1274 -0.0919 -1.2912
 1566TIP3    H226190   4.409   0.666   1.562 -1.5916 -1.5482 -0.3236
 1567TIP3   OH226191   1.916   4.029   6.225 -0.2167 -0.3952  0.1670
 1567TIP3    H126192   1.960   3.958   6.179  0.8729  1.9870 -2.8701
 1567TIP3    H226193   1.826   4.000   6.236  0.7685 -3.2794  1.7086
 1568TIP3   OH226194   2.908   5.645  16.134 -0.2395 -0.1202  0.3346
 1568TIP3    H126195   2.851   5.723  16.137 -0.3770 -0.1278 -1.3465
 1568TIP3    H226196   2.853   5.575  16.169 -2.0526 -0.5278 -2.9324
 1569TIP3   OH226197   2.544   3.616  16.577 -0.3809 -0.3900  0.3750
 1569TIP3    H126198   2.611   3.570  16.526 -1.1479 -1.8879  0.6689
 1569TIP3    H226199   2.588   3.638  16.659 -0.1809 -1.2034  0.4956
 1570TIP3   OH226200   2.617   2.899  11.616  0.1025 -0.0820  0.1187
 1570TIP3    H126201   2.706   2.884  11.583 -0.0186  0.0466 -0.2648
 1570TIP3    H226202   2.563   2.906  11.538 -0.1219  0.6314  0.3265
 1571TIP3   OH226203   0.467   1.568   1.010 -0.7374 -0.7684 -0.0425
 1571TIP3    H126204   0.497   1.656   0.989 -0.7585 -0.2078  2.0708
 1571TIP3    H226205   0.375   1.579   1.032 -0.6561 -1.2532  0.5668
 1572TIP3   OH226206   0.625   3.450   3.238 -0.1443 -0.1030  0.0611
 1572TIP3    H126207   0.608   3.474   3.147 -0.4342  0.4213  0.2448
 1572TIP3    H226208   0.636   3.355   3.237  0.4650 -0.0329 -0.6105
 1573TIP3   OH226209   0.721   6.585   4.215 -0.0014  0.3524  0.0139
 1573TIP3    H126210   0.714   6.577   4.120 -0.0739  1.0698 -0.0468
 1573TIP3    H226211   0.775   6.663   4.228 -1.8503  1.5849  0.5680
 1574TIP3   OH226212   1.851   3.199  12.720  0.7223 -0.7747  0.1695
 1574TIP3    H126213   1.866   3.233  12.808  0.6709 -0.0699 -0.0908
 1574TIP3    H226214   1.757   3.178  12.719  0.7556 -0.9400  0.3296
 1575TIP3   OH226215   3.439   0.586  11.107 -0.1096  0.5607 -0.1886
 1575TIP3    H126216   3.344   0.572  11.117 -0.3184  0.2793 -2.2509
 1575TIP3    H226217   3.465   0.524  11.039  2.1438 -1.4687  2.2853
 1576TIP3   OH226218   1.340   1.466  14.365  0.3983  0.5747  0.3706
 1576TIP3    H126219   1.387   1.446  14.445  0.8051 -0.0360 -0.0169
 1576TIP3    H226220   1.383   1.545  14.331  0.0435  1.0035  0.8840
 1577TIP3   OH226221   2.595   5.725   4.334 -0.0168 -0.4901 -0.1469
 1577TIP3    H126222   2.574   5.632   4.344  0.0721 -0.4034  1.0741
 1577TIP3    H226223   2.619   5.753   4.422 -2.3503  1.2665  0.0302
 1578TIP3   OH226224   2.224   6.314  13.438  0.2617  0.1759 -0.2184
 1578TIP3    H126225   2.316   6.295  13.453  0.0357  0.2351  1.5443
 1578TIP3    H226226   2.223   6.399  13.394  1.0468 -0.0548 -0.6932
 1579TIP3   OH226227   4.086   5.776   6.192  0.3161 -0.5576  0.0736
 1579TIP3    H126228   4.048   5.863   6.196  1.6598  0.0925 -0.8264
 1579TIP3    H226229   4.011   5.718   6.178 -0.6210  0.3939  0.9425
 1580TIP3   OH226230   4.455   6.623   6.191 -0.0349 -0.0368 -0.2715
 1580TIP3    H126231   4.450   6.716   6.167  1.8552  0.1598 -0.0671
 1580TIP3    H226232   4.508   6.622   6.271 -0.3104 -1.2675 -0.0887
 1581TIP3   OH226233   0.875   2.465  15.953  0.1810  0.4460 -0.0215
 1581TIP3    H126234   0.850   2.522  15.880  0.8697  3.0418  1.6502
 1581TIP3    H226235   0.811   2.484  16.021  0.6855 -0.4866  0.7325
 1582TIP3   OH226236   0.922   4.943  11.130 -0.6042  0.1790 -0.1286
 1582TIP3    H126237   0.968   4.887  11.192 -3.1783  0.3654  2.1450
 1582TIP3    H226238   0.964   4.925  11.045  1.4287 -1.9510  1.2074
 1583TIP3   OH226239   2.380   2.294  13.513 -0.5028 -0.0201  0.1551
 1583TIP3    H126240   2.375   2.200  13.531 -0.4749 -0.2211 -0.8317
 1583TIP3    H226241   2.452   2.302  13.450 -0.7188  0.6284 -0.0127
 1584TIP3   OH226242   1.303   3.725   5.616  0.2340  0.3971 -0.1435
 1584TIP3    H126243   1.293   3.633   5.592  1.5858  0.0640  0.4977
 1584TIP3    H226244   1.352   3.763   5.543 -2.4033  1.2299 -1.6134
 1585TIP3   OH226245   0.344   6.775   4.290  0.1957 -0.1865  0.5871
 1585TIP3    H126246   0.280   6.721   4.337  0.4002 -1.9929 -1.1010
 1585TIP3    H226247   0.428   6.756   4.333 -0.2541  1.8826  2.5449
 1586TIP3   OH226248   0.805   4.574  14.793 -0.3629  0.0141  0.4221
 1586TIP3    H126249   0.767   4.529  14.869 -0.5707  1.0861  0.9609
 1586TIP3    H226250   0.854   4.505  14.747 -2.2235 -1.2275  0.1678
 1587TIP3   OH226251   3.679   5.231  16.068  0.2756 -0.2285 -0.0369
 1587TIP3    H126252   3.770   5.211  16.091  0.8873 -1.2549 -2.9421
 1587TIP3    H226253   3.635   5.146  16.068  0.6250 -0.5299 -3.5089
 1588TIP3   OH226254   5.025   5.833  13.596  0.3605  0.0258 -0.4355
 1588TIP3    H126255   5.076   5.901  13.640  0.1899 -1.0448  1.5247
 1588TIP3    H226256   4.947   5.878  13.565  0.7828  0.9380 -0.2114
 1589TIP3   OH226257   0.437   2.143  13.428 -0.6996 -0.0135  0.0282
 1589TIP3    H126258   0.372   2.073  13.419 -0.6378  0.0522 -1.1512
 1589TIP3    H226259   0.478   2.129  13.513 -2.1138 -0.1842  0.6997
 1590TIP3   OH226260   3.225   5.994  17.017 -0.4277  0.4353  0.0922
 1590TIP3    H126261   3.216   5.925  17.083 -1.1929 -1.4290 -1.8500
 1590TIP3    H226262   3.196   6.073  17.061 -0.2872 -0.6130  2.1799
 1591TIP3   OH226263   5.150   2.789  16.949  0.2099  0.5031 -0.2645
 1591TIP3    H126264   5.191   2.814  17.032  0.9487 -3.0245  0.5951
 1591TIP3    H226265   5.056   2.788  16.968  0.3709 -0.2668  0.5706
 1592TIP3   OH226266   5.148   1.915   3.191 -0.2766  0.7637  0.2076
 1592TIP3    H126267   5.082   1.906   3.122 -0.8013  1.4171  0.6217
 1592TIP3    H226268   5.232   1.916   3.144 -0.6096  0.8091 -0.3908
 1593TIP3   OH226269   2.923   5.549  13.942  0.3487  0.4067  0.2109
 1593TIP3    H126270   3.002   5.552  13.997 -0.0655  0.3929  0.8215
 1593TIP3    H226271   2.910   5.455  13.925 -0.3836  0.2761  1.3831
 1594TIP3   OH226272   1.379   1.717  11.599 -0.0047  0.2453 -0.0819
 1594TIP3    H126273   1.289   1.723  11.569  0.2356  1.4376 -0.6143
 1594TIP3    H226274   1.432   1.719  11.519  0.5859  2.0422  0.3200
 1595TIP3   OH226275   5.684   5.044   2.736  0.3855  0.4647 -0.3488
 1595TIP3    H126276   5.754   5.028   2.798  1.6532 -0.6743 -1.9711
 1595TIP3    H226277   5.680   5.139   2.728 -1.1226  0.7751  2.7956
 1596TIP3   OH226278   6.497   4.785  14.303 -0.2306  0.7944  0.0331
 1596TIP3    H126279   6.519   4.711  14.248 -1.4907  0.8034 -0.5035
 1596TIP3    H226280   6.443   4.842  14.248  0.6468  2.0909  0.4503
 1597TIP3   OH226281   0.903   2.225   2.821 -0.7249 -0.2628  0.3031
 1597TIP3    H126282   0.981   2.243   2.768 -0.9393 -1.5624 -0.4882
 1597TIP3    H226283   0.923   2.264   2.906 -0.2337  1.5540 -0.6006
 1598TIP3   OH226284   3.999   3.541   2.433  0.3521  0.2035 -0.8161
 1598TIP3    H126285   4.039   3.625   2.410  1.0731 -0.4512 -2.0808
 1598TIP3    H226286   4.038   3.478   2.372 -0.3764 -1.0088 -0.0815
 1599TIP3   OH226287   0.098   4.032   4.267 -0.0670 -0.2378  0.1354
 1599TIP3    H126288   0.022   4.012   4.213 -0.1487 -0.8016  0.4518
 1599TIP3    H226289   0.163   3.967   4.242  0.3463  0.2896 -0.1898
 1600TIP3   OH226290   6.434   5.082   3.146  0.0865  0.3767 -0.1186
 1600TIP3    H126291   6.404   5.105   3.235  0.3193  1.0395 -0.2042
 1600TIP3    H226292   6.404   5.155   3.092 -3.2658 -1.6577 -1.2899
 1601TIP3   OH226293   1.368   2.152   4.944 -0.8678  0.5572  0.0965
 1601TIP3    H126294   1.342   2.061   4.931  0.0863  0.3523 -0.5818
 1601TIP3    H226295   1.464   2.150   4.942 -0.8211  1.5075  0.5798
 1602TIP3   OH226296   4.062   2.223  12.257 -0.1047 -0.5438 -0.1630
 1602TIP3    H126297   4.156   2.206  12.266  0.2806  0.9469 -1.0588
 1602TIP3    H226298   4.055   2.318  12.245 -1.8423 -0.4476  1.1390
 1603TIP3   OH226299   1.816   6.108   1.672  0.2235 -0.1688 -0.2458
 1603TIP3    H126300   1.777   6.030   1.710 -1.0448  0.7624  0.4443
 1603TIP3    H226301   1.795   6.102   1.578 -0.1669 -0.4867 -0.1392
 1604TIP3   OH226302   2.520   6.128   2.469 -0.1441  0.2655 -0.4077
 1604TIP3    H126303   2.615   6.131   2.472 -0.1677  1.1380 -0.1727
 1604TIP3    H226304   2.492   6.173   2.549 -0.7495  1.0109 -1.0281
 1605TIP3   OH226305   2.940   4.856  12.251 -0.4335  0.4064 -0.4015
 1605TIP3    H126306   2.948   4.782  12.191  1.4622  0.5954 -0.4582
 1605TIP3    H226307   2.918   4.930  12.195  1.5921  0.6356 -0.9810
 1606TIP3   OH226308   4.054   6.446   1.022 -0.1255 -0.3932 -0.1595
 1606TIP3    H126309   4.024   6.512   0.959  1.7695  1.2213  0.5290
 1606TIP3    H226310   4.034   6.484   1.107  1.5809 -0.3317  0.2611
 1607TIP3   OH226311   5.554   0.160   3.358 -0.4908  1.1670 -0.2432
 1607TIP3    H126312   5.604   0.093   3.312 -0.4513 -1.3316  3.0895
 1607TIP3    H226313   5.619   0.224   3.386 -0.1960  1.4348 -1.4660
 1608TIP3   OH226314   4.398   4.141   5.518  0.0818  0.2218  0.5181
 1608TIP3    H126315   4.462   4.096   5.464  0.0856 -0.7802  1.3262
 1608TIP3    H226316   4.326   4.079   5.528  0.7426 -0.2533  2.8943
 1609TIP3   OH226317   3.937   5.320  12.697  0.0049  0.3140  0.2388
 1609TIP3    H126318   3.999   5.266  12.648 -0.3742 -0.2821  0.4206
 1609TIP3    H226319   3.987   5.350  12.773  0.8924  1.9830 -0.9121
 1610TIP3   OH226320   2.088   1.139  12.271  0.3240  0.3736 -0.1243
 1610TIP3    H126321   2.107   1.112  12.181 -0.9602  0.8804 -0.5752
 1610TIP3    H226322   2.123   1.227  12.278 -1.6784  1.3139 -0.9596
 1611TIP3   OH226323   3.768   5.566  15.500  0.1484 -0.6445  0.0695
 1611TIP3    H126324   3.810   5.546  15.584 -1.7235 -0.4404  1.0958
 1611TIP3    H226325   3.696   5.504  15.493 -0.7036  0.3885 -0.6110
 1612TIP3   OH226326   1.863   1.215   2.365 -0.5664 -0.0730 -0.4091
 1612TIP3    H126327   1.779   1.261   2.363 -1.5069 -1.7195 -0.3480
 1612TIP3    H226328   1.928   1.284   2.377 -1.7625  1.4149 -1.9725
 1613TIP3   OH226329   2.420   0.787   1.672 -0.2308  0.0488  0.9567
 1613TIP3    H126330   2.510   0.786   1.640 -0.1852 -0.1577  1.0883
 1613TIP3    H226331   2.405   0.877   1.699 -0.7216  0.5542 -0.9057
 1614TIP3   OH226332   2.529   1.242  14.642  0.4232 -0.1538 -0.5441
 1614TIP3    H126333   2.453   1.299  14.639  0.4403 -0.1532 -1.1373
 1614TIP3    H226334   2.604   1.301  14.652  0.3064 -0.1936  0.7141
 1615TIP3   OH226335   0.037   2.284  11.412  0.1031  0.4096  0.2006
 1615TIP3    H126336   0.035   2.341  11.489  0.7601  1.3361 -0.4436
 1615TIP3    H226337   0.101   2.216  11.433  1.7943  1.7997 -0.2737
 1616TIP3   OH226338   3.643   4.580   5.881  0.3737 -0.7228  0.5056
 1616TIP3    H126339   3.657   4.565   5.974  0.4225 -0.6914  0.5040
 1616TIP3    H226340   3.559   4.539   5.861 -0.4118  0.6426  0.9087
 1617TIP3   OH226341   0.082   1.847   2.333  0.3741  0.3253  0.1002
 1617TIP3    H126342   0.022   1.792   2.284 -0.5270  0.0388  1.4650
 1617TIP3    H226343   0.026   1.899   2.390  1.3950  0.2337  1.2407
 1618TIP3   OH226344   1.804   1.937   1.408 -0.2063  0.3885 -0.8605
 1618TIP3    H126345   1.789   1.938   1.313 -0.4955 -2.4871 -0.9350
 1618TIP3    H226346   1.893   1.904   1.418 -1.1799 -2.2873 -0.1806
 1619TIP3   OH226347   3.536   3.577  12.937  0.2280  0.3434  0.1428
 1619TIP3    H126348   3.452   3.552  12.976 -0.3918 -0.0445 -1.3946
 1619TIP3    H226349   3.540   3.672  12.948  0.1513  0.2315  1.2795
 1620TIP3   OH226350   5.271   3.457   2.995 -0.2115  0.2881  0.1653
 1620TIP3    H126351   5.218   3.520   3.044 -0.5126  1.2288 -1.3182
 1620TIP3    H226352   5.337   3.511   2.951  0.4909 -0.6182  0.0675
 1621TIP3   OH226353   6.344   0.505  15.954  0.0050 -0.1902 -0.2237
 1621TIP3    H126354   6.279   0.529  15.888 -0.5414  0.3371  0.4976
 1621TIP3    H226355   6.419   0.560  15.934  0.4921 -1.2222 -1.4316
 1622TIP3   OH226356   5.040   6.163   4.534 -0.5813  0.0609  0.1427
 1622TIP3    H126357   5.123   6.171   4.487 -0.9893  0.5799 -0.5033
 1622TIP3    H226358   4.976   6.209   4.479 -1.1348  0.3881  1.0441
 1623TIP3   OH226359   0.898   0.417  12.646 -0.3905 -0.2552  0.0106
 1623TIP3    H126360   0.867   0.341  12.696  0.7517 -0.5132  0.3739
 1623TIP3    H226361   0.873   0.493  12.700 -2.3582 -0.2702 -0.7957
 1624TIP3   OH226362   4.033   4.285   3.617  0.0028  0.2621 -0.1897
 1624TIP3    H126363   4.095   4.309   3.687 -0.0888  0.1710 -0.0779
 1624TIP3    H226364   3.952   4.264   3.663  0.7162 -2.6098 -0.0424
 1625TIP3   OH226365   2.383   0.361   2.377 -0.6344  0.1155  0.1946
 1625TIP3    H126366   2.440   0.364   2.300 -1.1716 -1.6809 -0.3272
 1625TIP3    H226367   2.308   0.416   2.354 -1.5036 -1.5605 -1.2355
 1626TIP3   OH226368   2.477   3.501  10.849  0.0263 -0.1834 -0.2740
 1626TIP3    H126369   2.428   3.484  10.769 -1.7393 -2.0013  1.0782
 1626TIP3    H226370   2.460   3.425  10.904  2.2063  0.4166  1.3571
 1627TIP3   OH226371   4.928   1.139  16.131  0.4325 -0.1347  0.4164
 1627TIP3    H126372   4.967   1.197  16.066  0.1976 -1.9237 -1.4013
 1627TIP3    H226373   4.846   1.182  16.156  0.7777  0.8283 -0.0878
 1628TIP3   OH226374   1.539   6.003  13.087  0.9929  0.0524 -0.2009
 1628TIP3    H126375   1.595   5.928  13.104  1.6777  0.5663 -0.1271
 1628TIP3    H226376   1.480   5.974  13.018 -0.0672 -1.1934  1.1768
 1629TIP3   OH226377   0.355   6.339  14.984  0.4366  0.1840 -0.7348
 1629TIP3    H126378   0.427   6.346  15.046  0.1909 -0.6739 -0.3261
 1629TIP3    H226379   0.313   6.256  15.006 -1.4125  1.2168 -0.1729
 1630TIP3   OH226380   0.415   1.469  13.899  0.3298 -0.1403 -0.3735
 1630TIP3    H126381   0.320   1.453  13.897  0.0460  0.9059  1.9956
 1630TIP3    H226382   0.447   1.413  13.969  2.0962 -2.9612 -3.1893
 1631TIP3   OH226383   3.304   1.870   4.760  0.1658 -0.4290 -0.5415
 1631TIP3    H126384   3.228   1.815   4.738 -1.6688  1.5388  0.5462
 1631TIP3    H226385   3.284   1.955   4.721  1.1816  0.5205  0.9397
 1632TIP3   OH226386   2.040   1.874  14.491 -0.6582  0.2218 -0.1552
 1632TIP3    H126387   2.101   1.876  14.417  0.3856  4.5300  0.5457
 1632TIP3    H226388   1.956   1.903  14.454 -0.4251  1.2578  0.1052
 1633TIP3   OH226389   6.657   3.974  17.300 -0.3516  0.0209  0.5610
 1633TIP3    H126390   6.728   3.912  17.315  0.2614 -0.3073 -2.7798
 1633TIP3    H226391   6.700   4.060  17.298 -0.4554  0.0804  0.9236
 1634TIP3   OH226392   3.477   3.572   1.160 -0.0511 -0.6114 -1.0723
 1634TIP3    H126393   3.382   3.582   1.170  0.0213 -1.4629  0.8210
 1634TIP3    H226394   3.490   3.478   1.145  0.6454 -1.0045  1.5562
 1635TIP3   OH226395   2.008   3.605  16.604  0.4839 -0.0963 -0.0564
 1635TIP3    H126396   2.017   3.625  16.511  0.9955  1.7245  0.3396
 1635TIP3    H226397   2.067   3.667  16.647 -0.0225 -0.6621  1.5071
 1636TIP3   OH226398   2.285   3.081   1.118  0.4330 -0.0606  0.4641
 1636TIP3    H126399   2.283   3.013   1.051 -2.4949  0.2353  0.1242
 1636TIP3    H226400   2.321   3.158   1.075  1.2979 -0.6702  0.0914
 1637TIP3   OH226401   0.004   1.884  12.834 -0.3269  0.5832  0.1651
 1637TIP3    H126402  -0.075   1.919  12.792 -0.7707 -0.1885  0.3453
 1637TIP3    H226403   0.005   1.791  12.811  0.8784  0.7069 -0.3579
 1638TIP3   OH226404   6.396   2.942   3.396  0.0390 -0.5499  0.3066
 1638TIP3    H126405   6.391   3.000   3.320  0.5732 -0.2634  0.4849
 1638TIP3    H226406   6.488   2.916   3.400 -0.2261 -1.5363  0.1376
 1639TIP3   OH226407   4.731   2.713   2.211 -0.1453 -0.1419  0.1616
 1639TIP3    H126408   4.689   2.700   2.126  0.5037 -0.3537 -0.1323
 1639TIP3    H226409   4.663   2.754   2.265 -0.1006  1.3623 -0.8814
 1640TIP3   OH226410   0.933   3.025  12.726  0.0691  0.0399  0.0183
 1640TIP3    H126411   1.014   2.986  12.760 -0.2606 -1.6594 -1.0446
 1640TIP3    H226412   0.948   3.033  12.632 -1.1107 -0.6133 -0.2447
 1641TIP3   OH226413   3.043   4.500   3.234 -0.1340 -0.5044  0.0110
 1641TIP3    H126414   3.091   4.469   3.157  0.2206 -1.1524  0.4809
 1641TIP3    H226415   3.045   4.596   3.227 -0.4662 -0.5654 -0.9949
 1642TIP3   OH226416   4.922   4.831  14.808 -0.6010 -0.2004 -0.1500
 1642TIP3    H126417   4.979   4.899  14.844 -0.8501 -0.6794  1.1901
 1642TIP3    H226418   4.980   4.777  14.754 -0.1884  0.4226 -0.3505
 1643TIP3   OH226419   6.472   6.208   1.471 -0.3892 -0.4016 -0.2391
 1643TIP3    H126420   6.490   6.301   1.464  3.7840 -0.9104  1.0089
 1643TIP3    H226421   6.403   6.202   1.538  0.4932  1.7700  0.9721
 1644TIP3   OH226422   0.475   4.924   5.493 -0.2974  0.2166  0.0811
 1644TIP3    H126423   0.387   4.961   5.486 -0.6530 -0.8432 -1.4892
 1644TIP3    H226424   0.488   4.877   5.411  0.9714 -1.3055  1.0986
 1645TIP3   OH226425   5.936   1.343   0.847  0.1590 -0.0604 -0.4849
 1645TIP3    H126426   5.871   1.396   0.801  0.3431  0.7863  0.2137
 1645TIP3    H226427   5.944   1.263   0.794 -0.4104  0.4342 -1.3301
 1646TIP3   OH226428   2.404   5.075  14.710  0.4723 -0.0092  0.1457
 1646TIP3    H126429   2.360   5.143  14.760 -0.4961 -0.5555  0.0615
 1646TIP3    H226430   2.391   5.101  14.618 -1.8192 -1.4025  0.0112
 1647TIP3   OH226431   3.784   6.683   5.006  0.3366  0.2113  0.1365
 1647TIP3    H126432   3.741   6.599   4.996  1.2319 -0.7655  3.3106
 1647TIP3    H226433   3.730   6.730   5.070  0.0088  2.0110 -1.3597
 1648TIP3   OH226434   3.796   4.996  10.825  0.5908  0.2130 -0.2718
 1648TIP3    H126435   3.801   4.924  10.762  0.9702  0.2319 -0.2687
 1648TIP3    H226436   3.725   4.972  10.884 -0.5189  0.7178 -1.3651
 1649TIP3   OH226437   6.800   5.249  14.722  0.2987 -0.3168 -0.7960
 1649TIP3    H126438   6.837   5.334  14.746  2.2362 -0.8847 -1.5511
 1649TIP3    H226439   6.746   5.224  14.797  0.5130  1.1067 -0.1303
 1650TIP3   OH226440   5.033   2.174   5.833  0.6487  0.3105 -0.3600
 1650TIP3    H126441   5.083   2.197   5.911  1.3743  1.2463 -1.0952
 1650TIP3    H226442   5.045   2.079   5.824  0.1570  0.0995  0.9204
 1651TIP3   OH226443   2.629   1.200  16.295  0.3759  0.0687 -0.3252
 1651TIP3    H126444   2.692   1.240  16.355 -0.6810 -0.9187  1.5295
 1651TIP3    H226445   2.598   1.273  16.241  0.5769  1.2463  1.0643
 1652TIP3   OH226446   3.993   5.377   3.791 -0.0005 -0.1072 -0.0504
 1652TIP3    H126447   4.002   5.426   3.873 -0.5593  0.2028 -0.1651
 1652TIP3    H226448   3.920   5.420   3.746 -1.9480 -2.3565  0.7858
 1653TIP3   OH226449   5.402   2.375  11.224  0.2761 -0.3712 -0.2072
 1653TIP3    H126450   5.485   2.375  11.177 -0.1594 -0.3075 -0.9956
 1653TIP3    H226451   5.356   2.298  11.190 -2.0468  2.2220 -3.5713
 1654TIP3   OH226452   5.409   3.227  13.308  0.1057  0.6284  0.1608
 1654TIP3    H126453   5.409   3.172  13.229  0.9273 -0.1977  0.7083
 1654TIP3    H226454   5.336   3.287  13.296 -1.1940 -0.9606 -0.2249
 1655TIP3   OH226455   3.918   2.145   0.877  0.2974 -0.2804 -0.0324
 1655TIP3    H126456   3.980   2.101   0.818 -0.2644 -0.1503 -0.7406
 1655TIP3    H226457   3.839   2.092   0.873  0.3505 -0.4257  0.8408
 1656TIP3   OH226458   0.984   2.175   4.304  0.0487 -0.5126  0.0804
 1656TIP3    H126459   0.921   2.236   4.343 -0.9361 -2.1608  1.2171
 1656TIP3    H226460   1.061   2.182   4.359 -0.3507 -0.8424  0.6971
 1657TIP3   OH226461   1.718   0.385   0.072  0.1356 -0.2706 -0.3950
 1657TIP3    H126462   1.757   0.400   0.158 -0.9586  0.4745 -0.0255
 1657TIP3    H226463   1.624   0.380   0.088  0.0422 -2.1883 -1.2598
 1658TIP3   OH226464   3.456   4.121   1.908 -0.9674 -0.3246  0.0348
 1658TIP3    H126465   3.489   4.184   1.972 -0.9594 -0.5541  0.2544
 1658TIP3    H226466   3.361   4.124   1.918 -1.0429  0.5085 -0.7577
 1659TIP3   OH226467   6.303   3.749  10.385 -0.5662 -0.2119  0.2254
 1659TIP3    H126468   6.230   3.797  10.346 -1.8572 -1.9150  0.3979
 1659TIP3    H226469   6.333   3.691  10.316 -0.2969 -0.4915  0.5747
 1660TIP3   OH226470   1.830   3.853   1.664 -0.2767  0.1337  0.3265
 1660TIP3    H126471   1.815   3.809   1.580 -2.9771  0.3341  0.6027
 1660TIP3    H226472   1.921   3.882   1.660  0.4512 -2.0593 -1.4612
 1661TIP3   OH226473   6.327   6.644  10.438  0.7120 -0.6029  0.3475
 1661TIP3    H126474   6.323   6.739  10.426  2.0292 -0.4910  0.6774
 1661TIP3    H226475   6.418   6.622  10.421  0.4911 -1.7637  0.6346
 1662TIP3   OH226476   0.498   5.367   6.427 -0.0069 -0.3087  0.0209
 1662TIP3    H126477   0.573   5.372   6.368 -0.3640 -2.3392 -0.6832
 1662TIP3    H226478   0.425   5.404   6.376  0.2529  0.6038  0.2873
 1663TIP3   OH226479   1.200   4.479  14.500  0.0136  0.1330 -0.0265
 1663TIP3    H126480   1.289   4.513  14.506 -0.5313  1.5672  0.4382
 1663TIP3    H226481   1.207   4.388  14.530  1.2708  0.3016  0.2572
 1664TIP3   OH226482   0.634   1.368  10.768  0.2090 -0.0865 -0.0434
 1664TIP3    H126483   0.621   1.402  10.680  1.7049 -0.3089 -0.3784
 1664TIP3    H226484   0.569   1.298  10.777 -0.7133  0.6947 -0.5354
 1665TIP3   OH226485   1.655   0.370   2.252 -0.6323 -0.0412 -0.0240
 1665TIP3    H126486   1.619   0.446   2.298  2.8005  2.2814 -0.7137
 1665TIP3    H226487   1.605   0.366   2.171 -0.7341  1.7735 -0.1066
 1666TIP3   OH226488   2.754   5.013   5.767  0.5553 -0.3228  0.4054
 1666TIP3    H126489   2.659   5.003   5.767  0.4908 -0.4015  2.9777
 1666TIP3    H226490   2.787   4.923   5.759  0.4186 -0.3367 -0.0341
 1667TIP3   OH226491   3.914   0.496  13.385 -0.0319 -0.4331 -0.2085
 1667TIP3    H126492   3.953   0.564  13.440  0.5878 -0.2360 -0.8834
 1667TIP3    H226493   3.819   0.512  13.390  0.0206 -0.3451  0.6932
 1668TIP3   OH226494   2.870   1.681  13.651  0.8256 -0.7677 -0.2649
 1668TIP3    H126495   2.867   1.650  13.561  0.4900 -2.2390  0.2317
 1668TIP3    H226496   2.904   1.607  13.701  2.3598  0.4811  0.6481
 1669TIP3   OH226497   0.775   1.236   0.069 -0.8256 -0.2903  0.0074
 1669TIP3    H126498   0.702   1.282   0.028 -0.6925  1.7747  1.8732
 1669TIP3    H226499   0.752   1.234   0.162  1.4307  0.3647  0.6380
 1670TIP3   OH226500   4.443   0.245   3.814 -0.1939  0.1365 -0.3239
 1670TIP3    H126501   4.448   0.339   3.834  0.5953  0.4188 -1.7557
 1670TIP3    H226502   4.533   0.217   3.805 -0.4363 -0.7126 -0.1814
 1671TIP3   OH226503   4.558   3.018  15.313 -0.0428 -0.4723 -0.2464
 1671TIP3    H126504   4.479   3.009  15.260  0.0629 -1.5309 -0.2492
 1671TIP3    H226505   4.603   3.095  15.277 -2.0316  1.4228  1.0543
 1672TIP3   OH226506   1.524   3.789   1.513  0.0027  0.3394 -0.2833
 1672TIP3    H126507   1.437   3.784   1.553 -0.5667  0.4736 -1.4828
 1672TIP3    H226508   1.537   3.703   1.473  0.2068  0.4959 -0.5538
 1673TIP3   OH226509   3.075   2.334   1.326 -0.4409 -0.5479  0.5535
 1673TIP3    H126510   3.065   2.281   1.405 -0.7030 -0.9357  0.2700
 1673TIP3    H226511   3.167   2.358   1.324 -0.5586  0.0126  1.3176
 1674TIP3   OH226512   5.345   0.711  11.011  0.1667  0.1319 -0.0530
 1674TIP3    H126513   5.405   0.637  11.026 -2.4360 -2.0487  0.3640
 1674TIP3    H226514   5.352   0.764  11.090  1.3299 -0.2193  0.0978
 1675TIP3   OH226515   0.234   0.322  17.243 -0.0279 -0.1408 -0.2873
 1675TIP3    H126516   0.266   0.392  17.299  1.1900 -0.8776 -0.0276
 1675TIP3    H226517   0.244   0.355  17.154  0.1952  0.1573 -0.1534
 1676TIP3   OH226518   0.938   6.030  12.669  0.1816  0.0063  1.0248
 1676TIP3    H126519   0.852   6.051  12.632  0.7512 -0.1025 -0.4640
 1676TIP3    H226520   0.952   6.095  12.737 -0.5575  0.7961  0.4376
 1677TIP3   OH226521   2.523   0.210   3.752 -0.1077  0.2021  0.0730
 1677TIP3    H126522   2.598   0.150   3.750  0.3856  0.8095 -1.9615
 1677TIP3    H226523   2.562   0.297   3.743 -0.9789  0.6476  0.4827
 1678TIP3   OH226524   5.633   2.369   4.958  0.2066 -0.5425 -0.1022
 1678TIP3    H126525   5.679   2.384   4.875 -1.2272  3.8008 -0.3868
 1678TIP3    H226526   5.702   2.341   5.019  2.1759  0.4063 -1.7558
 1679TIP3   OH226527   1.369   3.160   3.763 -0.4128  0.4318 -0.5408
 1679TIP3    H126528   1.378   3.244   3.718 -1.4344  0.9531  0.2203
 1679TIP3    H226529   1.414   3.172   3.846  1.6039 -0.5827 -1.3997
 1680TIP3   OH226530   2.485   6.169   6.227 -0.0323 -0.2712 -0.2123
 1680TIP3    H126531   2.401   6.191   6.268 -1.1230 -2.4204 -1.1469
 1680TIP3    H226532   2.527   6.254   6.212 -0.7459  0.7363  2.8039
 1681TIP3   OH226533   2.559   0.419   0.082 -0.2910 -0.4547 -0.1157
 1681TIP3    H126534   2.519   0.479   0.019 -0.9063 -0.7009  0.0286
 1681TIP3    H226535   2.598   0.476   0.148  1.4478 -0.1474 -1.3243
 1682TIP3   OH226536   3.067   0.949  16.374  0.6976 -0.0181 -0.2032
 1682TIP3    H126537   3.011   0.904  16.311  1.4844  1.2664 -1.8849
 1682TIP3    H226538   3.097   0.880  16.433 -0.4697 -1.1680 -0.8975
 1683TIP3   OH226539   3.972   0.721   1.781 -0.1899 -1.1897 -0.2720
 1683TIP3    H126540   3.955   0.708   1.874 -2.2436 -4.0248 -0.8957
 1683TIP3    H226541   3.891   0.760   1.747  1.0500  1.1221 -0.7078
 1684TIP3   OH226542   3.245   2.608  11.723 -0.0872 -0.3891 -0.1918
 1684TIP3    H126543   3.260   2.647  11.637 -0.0200  1.3284  0.5614
 1684TIP3    H226544   3.303   2.657  11.781  0.9009 -2.4452  0.6378
 1685TIP3   OH226545   1.761   0.656  15.982  0.0667  0.2739  0.1831
 1685TIP3    H126546   1.709   0.679  15.904 -0.4483  2.2367  1.0372
 1685TIP3    H226547   1.836   0.714  15.978  0.7113 -0.5263  0.5010
 1686TIP3   OH226548   0.539   4.888  15.343  0.0812 -0.1021 -0.0088
 1686TIP3    H126549   0.632   4.899  15.320  0.1351 -1.0092 -0.2715
 1686TIP3    H226550   0.494   4.884  15.258 -0.0685 -0.6229  0.0872
 1687TIP3   OH226551   5.816   3.484  12.963 -0.3871 -0.3226  0.5435
 1687TIP3    H126552   5.748   3.416  12.962 -0.4096 -0.3247  1.4674
 1687TIP3    H226553   5.893   3.439  12.998 -0.0690 -0.1670  0.0501
 1688TIP3   OH226554   0.151   1.150   4.282  0.6044  0.4603  0.2435
 1688TIP3    H126555   0.210   1.213   4.323  1.1207 -0.2563  0.6359
 1688TIP3    H226556   0.072   1.199   4.263  1.4464  1.5470 -0.6350
 1689TIP3   OH226557   2.153   1.745   1.998  0.6622  0.0108  0.0056
 1689TIP3    H126558   2.244   1.773   1.996  0.8133  0.0275  2.8925
 1689TIP3    H226559   2.110   1.799   1.931  2.6491  0.2775 -1.1376
 1690TIP3   OH226560   5.358   4.937  16.506  0.4816  0.1710 -0.2251
 1690TIP3    H126561   5.352   4.962  16.414  1.1125 -0.6265 -0.4907
 1690TIP3    H226562   5.451   4.919  16.520  0.3906  0.2612  0.5655
 1691TIP3   OH226563   0.148   0.483  17.025  0.0950 -0.1174 -0.1094
 1691TIP3    H126564   0.068   0.522  17.059  0.7416  0.7485  0.4797
 1691TIP3    H226565   0.208   0.557  17.014  1.1697 -0.8704  0.4635
 1692TIP3   OH226566   5.275   3.154   4.544 -0.5655 -0.0433 -0.4953
 1692TIP3    H126567   5.333   3.095   4.497 -0.1755  0.7269 -1.0006
 1692TIP3    H226568   5.333   3.204   4.601 -0.6221  1.2197 -1.5108
 1693TIP3   OH226569   5.641   6.794  11.175  0.0915 -0.3012  0.4668
 1693TIP3    H126570   5.599   6.762  11.095  0.2098  1.4055 -0.3198
 1693TIP3    H226571   5.652   6.888  11.160  0.2360  0.0261  2.4478
 1694TIP3   OH226572   0.324   0.807   0.723  0.0390  0.2856 -0.6289
 1694TIP3    H126573   0.363   0.748   0.658  0.9426  0.7613 -0.5225
 1694TIP3    H226574   0.232   0.814   0.696 -0.1307 -1.2733 -0.5614
 1695TIP3   OH226575   6.812   0.572   5.600 -0.3715  0.1809 -0.3332
 1695TIP3    H126576   6.871   0.496   5.606  2.2643  1.6701 -3.7011
 1695TIP3    H226577   6.835   0.627   5.675  1.2778 -0.1536 -0.5510
 1696TIP3   OH226578   2.673   0.090   2.378 -0.2870 -0.3847 -0.1678
 1696TIP3    H126579   2.602   0.026   2.380  0.3390 -1.0767  1.2301
 1696TIP3    H226580   2.631   0.172   2.352 -1.1396 -1.2893 -1.8215
 1697TIP3   OH226581   1.651   1.773   0.649  0.0596  0.0280 -0.3214
 1697TIP3    H126582   1.654   1.689   0.604  0.5171 -0.6104  0.8406
 1697TIP3    H226583   1.743   1.791   0.669 -0.1507  0.1834  0.5265
 1698TIP3   OH226584   0.144   1.860   1.688  0.6159  0.1523  0.3236
 1698TIP3    H126585   0.238   1.846   1.675  0.4481 -1.5363  0.6642
 1698TIP3    H226586   0.113   1.778   1.726 -1.1828  0.3026 -0.7067
 1699TIP3   OH226587   1.427   6.754  12.006 -0.0105 -0.1614  0.2073
 1699TIP3    H126588   1.341   6.725  11.977  0.3278  0.1429 -1.1719
 1699TIP3    H226589   1.473   6.674  12.030  0.4370 -0.6880 -2.2153
 1700TIP3   OH226590   6.602   5.410  11.212 -0.8247  0.1607  0.8039
 1700TIP3    H126591   6.584   5.392  11.120  0.1061 -1.4207  0.8939
 1700TIP3    H226592   6.657   5.488  11.211 -1.5613  0.6873  0.0971
 1701TIP3   OH226593   5.224   0.919  16.290  0.6080  0.0164 -0.0981
 1701TIP3    H126594   5.273   0.990  16.250 -0.7580  1.4836  0.7122
 1701TIP3    H226595   5.141   0.918  16.243  0.0039  0.0168  0.9373
 1702TIP3   OH226596   4.778   3.510  17.072  0.6316  0.3858  0.1354
 1702TIP3    H126597   4.798   3.418  17.090 -1.3014 -0.2068 -0.4849
 1702TIP3    H226598   4.758   3.547  17.158 -0.2128 -0.2333  0.2261
 1703TIP3   OH226599   1.464   3.993  12.584  0.0660  0.2091  0.0912
 1703TIP3    H126600   1.503   3.938  12.651  0.8780  0.4105 -0.1961
 1703TIP3    H226601   1.524   3.985  12.509 -0.4003  0.6034 -0.3309
 1704TIP3   OH226602   5.393   0.471   4.968  0.3739 -0.3779 -0.2798
 1704TIP3    H126603   5.347   0.393   4.939 -0.4712  0.1890 -0.5189
 1704TIP3    H226604   5.374   0.537   4.901  1.4675 -0.0938 -0.3337
 1705TIP3   OH226605   6.220   0.444  11.313 -0.5505  0.0527  0.1881
 1705TIP3    H126606   6.221   0.376  11.380 -1.1252  0.6558  0.8167
 1705TIP3    H226607   6.272   0.407  11.241 -0.3825 -0.8163  0.7404
 1706TIP3   OH226608   3.341   2.590   2.127 -0.3029  1.0581 -0.2513
 1706TIP3    H126609   3.271   2.576   2.064 -1.5094 -0.6270  1.3637
 1706TIP3    H226610   3.339   2.512   2.183  0.8369  2.3600  1.7201
 1707TIP3   OH226611   5.015   2.587   3.698 -0.1293  0.1700  0.3119
 1707TIP3    H126612   5.104   2.552   3.690 -0.7389 -1.4329  0.2400
 1707TIP3    H226613   5.020   2.648   3.771  1.2334  0.8303 -0.2871
 1708TIP3   OH226614   4.954   1.726  14.272  0.4567  0.5091 -0.2820
 1708TIP3    H126615   4.892   1.655  14.286  0.0807  0.6442 -1.1914
 1708TIP3    H226616   4.941   1.785  14.346  0.0481  0.1450 -0.0643
 1709TIP3   OH226617   2.302   1.298  15.385 -0.1209 -0.4380 -0.1627
 1709TIP3    H126618   2.348   1.377  15.359  0.5848 -0.0197  2.1155
 1709TIP3    H226619   2.234   1.286  15.318  1.0133  0.9355 -1.6331
 1710TIP3   OH226620   5.110   2.528  14.515  0.4061  0.2727  0.2005
 1710TIP3    H126621   5.115   2.623  14.523  0.5410  0.1627  1.7408
 1710TIP3    H226622   5.025   2.511  14.476  0.4456  1.0225 -0.2318
 1711TIP3   OH226623   3.684   3.709   4.160 -0.8978 -0.4714  0.4308
 1711TIP3    H126624   3.626   3.710   4.084  1.9679 -1.5263 -1.9754
 1711TIP3    H226625   3.704   3.616   4.173 -2.3763 -0.4599  3.4603
 1712TIP3   OH226626   3.211   5.068  15.293  0.1272 -0.1336  0.2347
 1712TIP3    H126627   3.161   4.995  15.328  2.2803 -0.8522  2.1148
 1712TIP3    H226628   3.236   5.041  15.205 -2.1888  0.0011 -0.5142
 1713TIP3   OH226629   5.413   4.458  13.317 -0.7504 -0.3503 -0.0517
 1713TIP3    H126630   5.466   4.392  13.361 -1.8003  0.1716  2.1317
 1713TIP3    H226631   5.471   4.534  13.310  0.3258 -1.2889 -2.2050
 1714TIP3   OH226632   3.096   0.043   4.344  0.1518 -0.0980 -0.6800
 1714TIP3    H126633   3.047   0.114   4.303  0.3957  0.2392 -0.3886
 1714TIP3    H226634   3.162   0.087   4.398  1.7899 -0.5210 -2.2328
 1715TIP3   OH226635   3.184   2.305   4.328  0.6699 -0.2495  0.0115
 1715TIP3    H126636   3.242   2.270   4.395 -0.2411 -2.0127 -0.0603
 1715TIP3    H226637   3.096   2.292   4.363  0.2499  2.2052  0.0386
 1716TIP3   OH226638   4.434   1.805   1.485  0.0759 -0.0820 -0.3039
 1716TIP3    H126639   4.524   1.772   1.485  1.0045  2.2626 -0.9407
 1716TIP3    H226640   4.427   1.858   1.406 -1.2818  1.2815  0.6710
 1717TIP3   OH226641   0.753   0.997  14.475  0.6865 -0.1150 -0.2017
 1717TIP3    H126642   0.665   1.013  14.441  0.3464 -2.3835 -0.5467
 1717TIP3    H226643   0.746   1.013  14.569 -0.1956 -0.5940 -0.1771
 1718TIP3   OH226644   3.342   0.981   0.651 -0.0340 -0.3615  0.5642
 1718TIP3    H126645   3.360   1.075   0.651 -1.2259 -0.1061 -0.0139
 1718TIP3    H226646   3.369   0.952   0.738  0.5864  0.4615  0.6661
 1719TIP3   OH226647   4.570   5.024   5.777  0.0065  0.0085 -0.0283
 1719TIP3    H126648   4.496   5.038   5.719 -0.4033 -1.1759  0.1951
 1719TIP3    H226649   4.639   5.080   5.742 -0.2141 -0.7039 -1.6765
 1720TIP3   OH226650   0.571   0.893  14.119 -0.6183  0.1869  0.2569
 1720TIP3    H126651   0.574   0.921  14.028 -1.8833 -1.3269 -0.2872
 1720TIP3    H226652   0.558   0.799  14.115  0.9282 -0.1586  2.0242
 1721TIP3   OH226653   1.889   6.417  11.855 -0.1017  0.4209  0.4212
 1721TIP3    H126654   1.837   6.447  11.781  1.1295 -0.3225 -0.7861
 1721TIP3    H226655   1.922   6.332  11.828 -0.8956 -0.5932  2.4755
 1722TIP3   OH226656   3.005   6.189  13.688  0.4525 -0.6438  0.6055
 1722TIP3    H126657   3.039   6.216  13.603 -0.9137  1.8001  0.7645
 1722TIP3    H226658   2.913   6.215  13.686  0.6388  0.4708  3.2086
 1723TIP3   OH226659   5.815   5.057   0.335  0.3822 -0.8099 -0.0423
 1723TIP3    H126660   5.742   5.010   0.294 -1.4075  0.5318  1.4587
 1723TIP3    H226661   5.873   5.078   0.262 -0.3791 -2.4454 -1.1996
 1724TIP3   OH226662   2.463   6.204   0.790  0.1131 -0.7211 -0.1715
 1724TIP3    H126663   2.436   6.134   0.848 -1.2434  0.0166  0.1293
 1724TIP3    H226664   2.391   6.213   0.727  1.5511 -1.5365 -2.0526
 1725TIP3   OH226665   6.120   5.679  12.640 -0.4946  0.3775  0.3277
 1725TIP3    H126666   6.046   5.676  12.702 -0.0230 -1.3413  0.8595
 1725TIP3    H226667   6.091   5.626  12.566 -0.8399  1.9782 -0.7349
 1726TIP3   OH226668   0.099   3.475  15.001 -0.1979  0.2486  0.4287
 1726TIP3    H126669   0.085   3.472  15.095  0.6151  1.4634  0.6111
 1726TIP3    H226670   0.084   3.566  14.976  0.9398  0.2563 -0.3675
 1727TIP3   OH226671   1.606   5.466   5.230  0.3864  0.2456 -0.2801
 1727TIP3    H126672   1.690   5.512   5.221  0.8146 -0.7250 -1.5831
 1727TIP3    H226673   1.629   5.373   5.232 -0.6318 -0.0258 -0.3608
 1728TIP3   OH226674   2.406   4.089  14.285  0.3973  0.0467 -0.4092
 1728TIP3    H126675   2.449   4.026  14.227 -0.7962 -0.4483 -0.7971
 1728TIP3    H226676   2.332   4.041  14.321  0.3179  0.7916  0.4511
 1729TIP3   OH226677   2.118   5.723   2.901  0.3386 -0.3112  0.6210
 1729TIP3    H126678   2.119   5.676   2.818  1.2583 -1.7936  1.4262
 1729TIP3    H226679   2.071   5.665   2.961 -1.7973  1.4458  0.8127
 1730TIP3   OH226680   6.359   4.935  12.496  0.6415 -0.1262  0.0425
 1730TIP3    H126681   6.367   4.924  12.401 -2.5753 -1.2028 -0.2227
 1730TIP3    H226682   6.315   5.019  12.507  1.3027  0.1560  0.6383
 1731TIP3   OH226683   5.547   2.269  16.019  0.4631 -0.2618  0.3731
 1731TIP3    H126684   5.611   2.339  16.033  1.7523 -1.2519 -0.3426
 1731TIP3    H226685   5.574   2.200  16.080 -1.8080  0.4323  2.3323
 1732TIP3   OH226686   0.443   6.124   1.438  0.0546  0.4137 -0.6957
 1732TIP3    H126687   0.492   6.206   1.442 -0.2310  0.5699 -0.3186
 1732TIP3    H226688   0.479   6.071   1.510  0.8911 -0.1672 -1.5186
 1733TIP3   OH226689   2.891   2.800  12.635 -0.7413 -0.3748  0.2117
 1733TIP3    H126690   2.907   2.751  12.716  0.8849  1.2807  0.9550
 1733TIP3    H226691   2.962   2.864  12.631 -0.7516 -0.4247 -2.5817
 1734TIP3   OH226692   0.536   4.833  15.616 -0.0908  0.4104  0.5255
 1734TIP3    H126693   0.572   4.745  15.605  2.1162  1.3131 -0.0975
 1734TIP3    H226694   0.498   4.853  15.530  2.2488  1.1843 -0.4153
 1735TIP3   OH226695   1.592   3.079   0.592 -0.0373 -0.2123 -0.3962
 1735TIP3    H126696   1.659   3.042   0.650 -0.4844 -1.2929 -0.5311
 1735TIP3    H226697   1.510   3.039   0.622 -0.2360 -1.0600 -1.9545
 1736TIP3   OH226698   3.507   4.009   3.439 -0.3748  0.5381 -0.9074
 1736TIP3    H126699   3.598   4.004   3.409  0.0021  2.4909 -0.2508
 1736TIP3    H226700   3.514   4.034   3.531 -1.5749 -1.7060 -0.1242
 1737TIP3   OH226701   3.845   6.626   0.105 -0.5524 -0.1808 -0.2333
 1737TIP3    H126702   3.888   6.636   0.189  0.9039 -1.1509 -0.8263
 1737TIP3    H226703   3.795   6.707   0.093  0.1746  0.4704  1.0118
 1738TIP3   OH226704   2.738   0.461   1.668 -0.0068 -0.2454  0.3630
 1738TIP3    H126705   2.748   0.447   1.763 -0.5452 -0.7632  0.3553
 1738TIP3    H226706   2.654   0.420   1.648 -0.2047  0.4390 -0.2289
 1739TIP3   OH226707   4.732   1.984   1.034 -0.3295 -0.3661 -0.1533
 1739TIP3    H126708   4.827   1.986   1.032 -0.1851 -2.0901 -3.7151
 1739TIP3    H226709   4.710   1.905   1.083 -0.0425  0.6291  1.6543
 1740TIP3   OH226710   4.743   4.878   0.725 -0.1509 -0.3865  0.6539
 1740TIP3    H126711   4.812   4.941   0.747 -2.6586  2.1569  1.8867
 1740TIP3    H226712   4.716   4.903   0.637  0.9161 -1.8528 -0.1226
 1741TIP3   OH226713   4.950   4.021  14.573  0.5622 -0.3361 -0.0186
 1741TIP3    H126714   4.887   4.057  14.636  0.2287 -1.2341  0.1743
 1741TIP3    H226715   4.968   4.093  14.513  0.6099  0.4281  0.8940
 1742TIP3   OH226716   4.098   1.532  12.676  0.6259  0.2799 -0.0120
 1742TIP3    H126717   4.128   1.444  12.699  0.9318 -0.0123 -1.4548
 1742TIP3    H226718   4.114   1.584  12.755 -1.3817 -1.3548  1.5581
 1743TIP3   OH226719   6.105   1.077   3.431 -0.3866 -0.0093  0.0912
 1743TIP3    H126720   6.016   1.062   3.399  0.9170 -2.2696 -2.9349
 1743TIP3    H226721   6.145   1.134   3.366  0.0691  2.2212  2.1823
 1744TIP3   OH226722   2.438   4.825  16.909 -0.1338 -0.2234  0.4516
 1744TIP3    H126723   2.534   4.820  16.906  0.1250  1.7633 -4.7252
 1744TIP3    H226724   2.420   4.917  16.928 -1.0122 -0.4595  0.7727
 1745TIP3   OH226725   4.899   2.820  14.405  0.8512  0.4206 -0.0586
 1745TIP3    H126726   4.891   2.725  14.400  0.5843  0.4045  0.5209
 1745TIP3    H226727   4.984   2.839  14.366  0.9233 -0.0617 -0.1415
 1746TIP3   OH226728   2.774   4.215  11.838  0.0196 -0.8634  0.4497
 1746TIP3    H126729   2.749   4.289  11.783 -0.1873 -0.9432  0.4370
 1746TIP3    H226730   2.831   4.162  11.782 -0.1728 -0.9329  0.3206
 1747TIP3   OH226731   1.975   0.497  14.130  0.0313  0.1790  0.1191
 1747TIP3    H126732   1.900   0.554  14.146  0.0554  0.2516 -0.0321
 1747TIP3    H226733   2.048   0.556  14.113  0.5808  0.1838  2.1481
 1748TIP3   OH226734   3.963   4.416   4.407 -0.0166  0.0523 -0.4170
 1748TIP3    H126735   3.930   4.471   4.336 -0.3931  1.2405  0.6525
 1748TIP3    H226736   3.939   4.327   4.381 -0.4537  0.4881 -1.6040
 1749TIP3   OH226737   5.358   0.254  16.416 -0.4770 -0.1288 -0.0796
 1749TIP3    H126738   5.354   0.340  16.375 -1.1881  0.4122  1.0682
 1749TIP3    H226739   5.368   0.193  16.343 -1.7143  0.7881 -1.0603
 1750TIP3   OH226740   6.548   5.585  10.268  0.1231 -0.0729  0.0501
 1750TIP3    H126741   6.622   5.641  10.247 -0.9332  1.3222 -0.1356
 1750TIP3    H226742   6.471   5.636  10.241 -1.0215 -0.5005  2.2317
 1751TIP3   OH226743   6.646   4.844   2.547  0.1260 -0.0899  0.0472
 1751TIP3    H126744   6.629   4.911   2.481  3.8470  1.1779  0.1990
 1751TIP3    H226745   6.689   4.773   2.500  0.0060 -0.5650  0.6294
 1752TIP3   OH226746   3.890   2.347   4.315 -0.1292  0.3169  0.1248
 1752TIP3    H126747   3.947   2.421   4.336  1.0371 -0.4092 -0.3098
 1752TIP3    H226748   3.872   2.356   4.222 -1.2630  0.8778  0.3829
 1753TIP3   OH226749   3.989   1.573   2.715 -0.2965  0.3763 -0.0577
 1753TIP3    H126750   3.995   1.546   2.807 -2.8420 -2.2800 -0.5301
 1753TIP3    H226751   4.025   1.498   2.666  0.1847  1.3718 -1.2822
 1754TIP3   OH226752   5.837   5.986  14.901  0.3248  0.0538  0.7006
 1754TIP3    H126753   5.889   5.982  14.981  2.3813  0.4646 -0.5443
 1754TIP3    H226754   5.849   6.075  14.870 -0.8463  0.0370  0.1698
 1755TIP3   OH226755   5.397   1.403   1.817  0.2111  0.3618  0.2074
 1755TIP3    H126756   5.454   1.344   1.767  0.3382  0.7691 -0.1426
 1755TIP3    H226757   5.310   1.366   1.808  0.4362 -0.3474  0.8605
 1756TIP3   OH226758   6.075   1.111   4.051 -0.4404 -0.1254 -0.2629
 1756TIP3    H126759   6.074   1.017   4.030 -1.3658 -1.0009  3.0427
 1756TIP3    H226760   5.986   1.130   4.080  0.1944  1.2560  0.9140
 1757TIP3   OH226761   2.266   4.583  13.035 -0.6348  0.1612  0.4118
 1757TIP3    H126762   2.273   4.620  13.123  0.6905 -0.4647  0.5819
 1757TIP3    H226763   2.356   4.575  13.005 -1.0611  0.0073 -0.8594
 1758TIP3   OH226764   1.503   1.246   0.658 -0.2203  0.7595 -0.3806
 1758TIP3    H126765   1.483   1.338   0.645 -0.2652  0.7904 -0.0895
 1758TIP3    H226766   1.418   1.205   0.675  0.0318  1.0349  1.7499
 1759TIP3   OH226767   3.510   3.234   3.745 -0.4372 -0.2054  0.6557
 1759TIP3    H126768   3.417   3.218   3.727 -0.4195  0.5810 -0.1886
 1759TIP3    H226769   3.515   3.245   3.840 -1.4514  1.2273  0.5702
 1760TIP3   OH226770   1.530   6.537  12.912  0.0158 -0.2644 -0.3696
 1760TIP3    H126771   1.448   6.586  12.899  0.8518  0.7218 -2.3034
 1760TIP3    H226772   1.599   6.604  12.908  0.9563 -1.0820  1.2110
 1761TIP3   OH226773   6.306   4.168   4.460  0.9532  0.4966 -0.5632
 1761TIP3    H126774   6.382   4.201   4.508  1.8313  1.4758 -2.5201
 1761TIP3    H226775   6.310   4.212   4.375  0.6709 -2.6820 -2.3721
 1762TIP3   OH226776   2.351   4.485  15.436  0.9646 -0.2325 -0.4433
 1762TIP3    H126777   2.344   4.402  15.388 -0.0568 -0.3187 -0.1659
 1762TIP3    H226778   2.329   4.551  15.370 -0.4228 -0.3499 -0.1238
 1763TIP3   OH226779   1.449   0.514  11.470  0.2694  0.2856  0.7227
 1763TIP3    H126780   1.397   0.551  11.542 -0.8256 -0.2790  0.2394
 1763TIP3    H226781   1.413   0.426  11.457  0.6179  0.2914 -0.3712
 1764TIP3   OH226782   0.802   4.460   3.862 -0.3652  0.0879  0.2985
 1764TIP3    H126783   0.818   4.529   3.927  1.0546 -1.1637  1.3519
 1764TIP3    H226784   0.866   4.477   3.793 -0.2977  0.0739  0.3570
 1765TIP3   OH226785   1.473   1.176   4.724 -0.1211 -0.2695  0.2387
 1765TIP3    H126786   1.565   1.170   4.696 -0.3367  0.5119 -0.6763
 1765TIP3    H226787   1.457   1.270   4.732 -0.5026 -0.4286  1.6053
 1766TIP3   OH226788   1.363   6.715  12.330 -0.2260  0.1617 -0.3432
 1766TIP3    H126789   1.318   6.762  12.399 -0.2616 -2.5589  1.6198
 1766TIP3    H226790   1.347   6.767  12.251 -2.8913  1.7060  1.0870
 1767TIP3   OH226791   4.222   4.089  11.244  0.1187  0.2042 -0.1761
 1767TIP3    H126792   4.311   4.060  11.223 -0.0340 -0.4473  0.0440
 1767TIP3    H226793   4.203   4.048  11.329 -1.2564 -1.6270 -1.3034
 1768TIP3   OH226794   6.074   2.107   1.597 -0.2840  0.6320  0.6325
 1768TIP3    H126795   6.037   2.173   1.538 -1.0530 -0.7360 -0.4772
 1768TIP3    H226796   6.006   2.094   1.663 -1.3189 -0.8914 -0.6390
 1769TIP3   OH226797   5.258   5.020  14.584  0.4970  0.7492 -0.2359
 1769TIP3    H126798   5.305   5.095  14.547  0.2231  1.1299  0.1739
 1769TIP3    H226799   5.298   5.007  14.670  0.2891  0.6619 -0.1535
 1770TIP3   OH226800   1.369   6.691   4.890 -0.0521  0.0669 -0.0719
 1770TIP3    H126801   1.284   6.680   4.847 -0.3441  2.1697 -0.1489
 1770TIP3    H226802   1.411   6.762   4.843  1.3865 -0.3193  0.5585
 1771TIP3   OH226803   2.746   6.630   1.860 -0.1072  0.4965 -0.1786
 1771TIP3    H126804   2.737   6.702   1.923  0.0083  0.2334  0.1461
 1771TIP3    H226805   2.707   6.555   1.904 -2.0064  0.7804 -1.2912
 1772TIP3   OH226806   5.320   0.966   2.055 -0.5062  0.2095 -0.2406
 1772TIP3    H126807   5.351   0.883   2.019  0.2577  0.2304  0.3484
 1772TIP3    H226808   5.384   1.031   2.023 -1.4486  0.6850 -1.2256
 1773TIP3   OH226809   0.224   4.664  16.425 -0.1971 -0.3516 -0.0740
 1773TIP3    H126810   0.151   4.603  16.436 -0.9597  0.2022 -1.6171
 1773TIP3    H226811   0.199   4.716  16.348  1.5007  0.3436 -0.1932
 1774TIP3   OH226812   1.334   4.886   2.188 -0.0362  0.1584 -0.0674
 1774TIP3    H126813   1.255   4.901   2.136  0.5112 -0.2045 -1.0477
 1774TIP3    H226814   1.305   4.887   2.279 -1.2041 -0.1997 -0.4253
 1775TIP3   OH226815   3.144   2.235  14.934  0.6875  0.0681  0.2331
 1775TIP3    H126816   3.064   2.266  14.977 -0.2646  0.5718 -1.8193
 1775TIP3    H226817   3.121   2.150  14.897  0.8487  0.5261 -0.9696
 1776TIP3   OH226818   4.032   6.012   0.604 -0.3243 -0.5501  0.2054
 1776TIP3    H126819   3.995   6.022   0.516 -1.3402  0.9317  0.7513
 1776TIP3    H226820   4.081   5.930   0.601 -1.8541 -1.4678 -1.2186
 1777TIP3   OH226821   0.215   6.178  13.170  0.2732 -0.4809 -0.1255
 1777TIP3    H126822   0.244   6.150  13.256 -2.1337  1.0094  1.3015
 1777TIP3    H226823   0.235   6.271  13.166 -1.5647 -0.0350 -0.2037
 1778TIP3   OH226824   4.579   2.604  11.155 -0.4594  0.0864  0.2932
 1778TIP3    H126825   4.574   2.690  11.112  2.7466  0.1642 -0.1890
 1778TIP3    H226826   4.532   2.545  11.095  0.1334  0.9680 -1.0956
 1779TIP3   OH226827   5.937   5.724  12.166 -0.3084 -0.3297 -0.6241
 1779TIP3    H126828   5.908   5.745  12.255 -0.0637  0.4177 -0.7130
 1779TIP3    H226829   5.857   5.703  12.119 -0.4536 -0.5922 -0.2656
 1780TIP3   OH226830   1.248   2.392  12.842  0.1318 -0.2697 -0.4616
 1780TIP3    H126831   1.312   2.439  12.895 -0.9670 -0.7555  1.3751
 1780TIP3    H226832   1.244   2.442  12.760  0.7626  1.4100  0.4787
 1781TIP3   OH226833   2.879   5.945  15.980  0.1476  0.3061  0.4965
 1781TIP3    H126834   2.842   5.896  15.907  1.8535 -0.8467  0.3547
 1781TIP3    H226835   2.803   5.977  16.028 -1.1204  2.9807 -2.8870
 1782TIP3   OH226836   6.347   6.441  11.889  0.2928 -0.2534 -0.2129
 1782TIP3    H126837   6.422   6.412  11.940  1.1264 -0.4131 -1.4921
 1782TIP3    H226838   6.333   6.532  11.914 -0.0161 -0.6398  1.0941
 1783TIP3   OH226839   4.195   3.630   1.799  0.4503  0.8810  0.0293
 1783TIP3    H126840   4.280   3.621   1.843 -0.1173 -1.0958  0.8412
 1783TIP3    H226841   4.132   3.640   1.871 -0.1739  0.6357 -0.4701
 1784TIP3   OH226842   1.465   0.971   3.690 -0.3210 -0.3948 -0.6777
 1784TIP3    H126843   1.471   1.058   3.651  0.5445  0.5038  1.3256
 1784TIP3    H226844   1.391   0.977   3.751  1.0475 -0.3395  1.0599
 1785TIP3   OH226845   2.990   0.034   0.461 -0.4572  0.2193  0.3168
 1785TIP3    H126846   3.063   0.068   0.513 -0.8008 -1.5657  2.0930
 1785TIP3    H226847   3.021  -0.051   0.428 -0.6032  0.8776 -1.6868
 1786TIP3   OH226848   1.698   5.598   3.685  0.3261 -0.2798 -0.2372
 1786TIP3    H126849   1.690   5.656   3.609 -1.3133 -0.2588 -0.0745
 1786TIP3    H226850   1.620   5.543   3.681  0.4924 -0.6343  1.1467
 1787TIP3   OH226851   1.707   0.415  14.348  0.1269 -0.7571  0.5822
 1787TIP3    H126852   1.747   0.360  14.415  0.8100 -2.6285 -1.2696
 1787TIP3    H226853   1.633   0.364  14.314 -0.3438  0.2356  0.0388
 1788TIP3   OH226854   3.139   3.495   3.716  0.2653  0.5952  0.5751
 1788TIP3    H126855   3.217   3.484   3.770 -0.4383  0.6696  1.6248
 1788TIP3    H226856   3.154   3.578   3.670  1.5890 -0.2498 -0.6150
 1789TIP3   OH226857   5.874   1.354  11.265  0.1436  0.2425  0.3996
 1789TIP3    H126858   5.813   1.281  11.257 -0.3037  0.6086  0.4340
 1789TIP3    H226859   5.952   1.316  11.305  0.8743 -0.7480 -1.8353
 1790TIP3   OH226860   5.084   3.118   2.041 -0.3281 -0.2075 -0.1993
 1790TIP3    H126861   5.144   3.079   2.105 -1.2651  2.6539  2.7048
 1790TIP3    H226862   5.131   3.194   2.007 -2.0679  2.2018  2.2651
 1791TIP3   OH226863   3.438   5.248  15.189  0.6298  0.2444 -0.2641
 1791TIP3    H126864   3.398   5.260  15.275 -0.3704 -1.1617 -0.5074
 1791TIP3    H226865   3.435   5.335  15.149  1.6263  1.0488  1.3011
 1792TIP3   OH226866   4.496   6.747  14.778 -0.5614  0.4247 -0.4091
 1792TIP3    H126867   4.461   6.661  14.755 -3.0891  1.1068  0.5087
 1792TIP3    H226868   4.422   6.807  14.767  0.6258  2.1905  0.6691
 1793TIP3   OH226869   1.191   6.506   1.981 -0.0628 -0.2117 -0.3861
 1793TIP3    H126870   1.206   6.586   1.931 -0.4675  1.2415  1.6796
 1793TIP3    H226871   1.263   6.504   2.045 -1.1867 -0.3221  0.9283
 1794TIP3   OH226872   3.676   5.476   0.111 -0.4058  0.2914  0.5235
 1794TIP3    H126873   3.725   5.398   0.085 -0.0872  0.4136  0.7411
 1794TIP3    H226874   3.718   5.504   0.193  0.4304  1.5160 -0.2838
 1795TIP3   OH226875   2.305   0.350  14.578  0.3850 -0.7327 -0.0297
 1795TIP3    H126876   2.219   0.325  14.610  0.9791 -2.9317 -0.0035
 1795TIP3    H226877   2.308   0.318  14.488  1.1085 -0.4889 -0.0995
 1796TIP3   OH226878   2.722   2.323   2.017  0.1034  0.7600  0.1032
 1796TIP3    H126879   2.722   2.321   2.112 -0.6047  0.3788  0.1076
 1796TIP3    H226880   2.666   2.249   1.992  1.9374 -0.4349 -0.6408
 1797TIP3   OH226881   6.385   6.249   4.455 -0.3704  0.0968  0.2603
 1797TIP3    H126882   6.447   6.315   4.423 -1.0300  0.3187 -0.5779
 1797TIP3    H226883   6.423   6.221   4.539  2.0219 -1.3504 -1.1849
 1798TIP3   OH226884   2.957   6.640   3.626  0.1646  0.1070  0.3109
 1798TIP3    H126885   2.928   6.720   3.582  1.5245  0.0289 -0.8107
 1798TIP3    H226886   3.034   6.668   3.676 -0.5530 -0.1028  1.5846
 1799TIP3   OH226887   3.608   5.053  14.499  0.2907 -0.1849  0.3619
 1799TIP3    H126888   3.593   4.959  14.492 -1.4507  0.0672  0.4093
 1799TIP3    H226889   3.642   5.065  14.588 -1.6059 -0.5431  1.1794
 1800TIP3   OH226890   0.766   2.628   1.446 -0.2588 -0.4342 -0.4556
 1800TIP3    H126891   0.788   2.696   1.510  1.8066 -1.1059 -0.3598
 1800TIP3    H226892   0.675   2.605   1.465 -0.8491  1.9061 -0.1609
 1801TIP3   OH226893   2.083   0.892  12.415  0.5309  0.5841 -0.1822
 1801TIP3    H126894   2.055   0.917  12.503 -1.1129 -0.8407 -0.2477
 1801TIP3    H226895   2.056   0.965  12.359  0.0391  0.7465  0.2631
 1802TIP3   OH226896   1.698   3.705  16.527  0.6991 -0.2191 -0.4694
 1802TIP3    H126897   1.688   3.695  16.622  1.0855  1.2065 -0.2683
 1802TIP3    H226898   1.617   3.748  16.499 -0.0616 -1.9120 -1.0383
 1803TIP3   OH226899   5.079   5.452  14.508 -0.2197  0.5100  0.4622
 1803TIP3    H126900   5.134   5.468  14.431 -1.8190 -0.5511 -0.9638
 1803TIP3    H226901   5.142   5.430  14.577  1.1889 -0.5003 -1.0548
 1804TIP3   OH226902   0.929   5.010  12.968  0.0791 -0.1767 -0.1608
 1804TIP3    H126903   0.956   5.006  13.059  0.6914 -0.3568 -0.3406
 1804TIP3    H226904   0.858   5.074  12.966  0.3363  0.1282  0.3694
 1805TIP3   OH226905   0.746   3.965  12.753 -0.4598 -0.0462 -0.1322
 1805TIP3    H126906   0.749   3.990  12.846 -0.8192  1.2186 -0.4359
 1805TIP3    H226907   0.834   3.983  12.721 -0.3584 -0.4035 -0.0498
 1806TIP3   OH226908   4.144   3.684  10.510  0.5854  0.1419  0.3615
 1806TIP3    H126909   4.172   3.594  10.492  1.0125  0.3238  0.0892
 1806TIP3    H226910   4.061   3.693  10.464  0.4643 -0.1679  0.5237
 1807TIP3   OH226911   6.798   0.049  12.438  0.0818 -0.1699  0.5597
 1807TIP3    H126912   6.892   0.033  12.430 -0.2390 -1.6400 -0.6123
 1807TIP3    H226913   6.792   0.142  12.460  1.7591  0.2989 -0.7174
 1808TIP3   OH226914   0.550   4.685  16.331 -1.0090 -0.1263  0.3561
 1808TIP3    H126915   0.584   4.774  16.339 -0.1229 -0.4797  0.6499
 1808TIP3    H226916   0.613   4.631  16.379 -1.6146 -0.8939  0.3046
 1809TIP3   OH226917   4.569   0.172  12.922  0.1385  0.1724 -0.2115
 1809TIP3    H126918   4.551   0.262  12.950 -1.6021  0.3037 -1.6020
 1809TIP3    H226919   4.578   0.178  12.827  0.9740 -0.9862 -0.2167
 1810TIP3   OH226920   5.761   4.335   5.689  0.4252 -0.1180 -0.0564
 1810TIP3    H126921   5.832   4.278   5.718 -1.1345 -1.6629  0.9045
 1810TIP3    H226922   5.766   4.334   5.593  1.3822 -0.5768 -0.0092
 1811TIP3   OH226923   2.020   1.862  12.143 -0.5954  0.0510 -0.0551
 1811TIP3    H126924   2.047   1.948  12.174  0.0355 -0.3001  0.4175
 1811TIP3    H226925   2.043   1.861  12.050  0.8877 -0.1611  0.2886
 1812TIP3   OH226926   5.321   4.847  11.807  0.4600 -0.0047 -0.3486
 1812TIP3    H126927   5.411   4.832  11.780  1.1396  2.2093  0.4377
 1812TIP3    H226928   5.313   4.942  11.812 -2.3705 -0.0466 -1.8005
 1813TIP3   OH226929   0.777   4.506   1.291 -0.1405  0.2732  0.2986
 1813TIP3    H126930   0.728   4.469   1.364  1.5526 -0.1425  1.2736
 1813TIP3    H226931   0.802   4.431   1.238  1.7009  0.1169  1.2813
 1814TIP3   OH226932   4.281   3.018   2.519  0.0981  0.0343 -0.1291
 1814TIP3    H126933   4.193   3.033   2.552 -0.8412 -1.4154 -1.8114
 1814TIP3    H226934   4.316   2.947   2.573  0.4025  0.8399  0.7624
 1815TIP3   OH226935   5.688   0.434   1.103 -0.2194 -0.2475  0.3853
 1815TIP3    H126936   5.602   0.417   1.141  0.2256 -0.2928  1.4080
 1815TIP3    H226937   5.681   0.402   1.013 -0.7914 -1.6860  0.9044
 1816TIP3   OH226938   2.451   0.282   4.543 -0.0138 -0.7409  0.1879
 1816TIP3    H126939   2.360   0.257   4.528 -0.4827  0.3905  0.9953
 1816TIP3    H226940   2.451   0.378   4.544  1.3120 -0.7030 -0.4739
 1817TIP3   OH226941   0.203   5.133  15.558 -0.1200  0.7526  0.1112
 1817TIP3    H126942   0.205   5.157  15.466 -0.3484 -0.7930 -0.3341
 1817TIP3    H226943   0.115   5.155  15.587  0.2789  2.2312  0.2714
 1818TIP3   OH226944   1.946   0.004   5.810 -0.2636 -0.0683  0.0117
 1818TIP3    H126945   1.887  -0.005   5.886  0.0762  0.7172  0.3841
 1818TIP3    H226946   1.888  -0.005   5.734 -0.4179 -2.1652  0.3189
 1819TIP3   OH226947   2.309   2.083   0.282  0.1888 -0.0992 -0.6937
 1819TIP3    H126948   2.350   2.030   0.213  1.3533 -0.5094  0.2722
 1819TIP3    H226949   2.228   2.036   0.303  1.1771 -1.5435  0.1130
 1820TIP3   OH226950   4.547   3.226   1.883 -0.5075  0.1527 -0.6153
 1820TIP3    H126951   4.590   3.143   1.862  0.6190  0.9481 -1.6464
 1820TIP3    H226952   4.456   3.203   1.898  0.0170 -1.4529  0.4860
 1821TIP3   OH226953   2.329   0.453   4.279 -0.2039  0.4520  0.2241
 1821TIP3    H126954   2.355   0.495   4.361  0.6584 -0.7814  0.6108
 1821TIP3    H226955   2.275   0.380   4.306  0.8128 -0.4908 -0.2320
 1822TIP3   OH226956   2.102   4.406  13.343  0.0143 -0.1745 -0.1635
 1822TIP3    H126957   2.066   4.348  13.275  0.1899  1.2624 -1.5401
 1822TIP3    H226958   2.068   4.493  13.321  2.0359  0.7586  0.1238
 1823TIP3   OH226959   3.416   5.520   3.368 -0.2804  0.0478 -0.8803
 1823TIP3    H126960   3.425   5.529   3.273  0.5600  0.2709 -0.7888
 1823TIP3    H226961   3.341   5.576   3.390  1.0342  1.9999 -1.1244
 1824TIP3   OH226962   0.152   2.741  16.846 -0.3696 -0.4610 -0.3836
 1824TIP3    H126963   0.104   2.792  16.780  0.4080  0.3153 -0.3676
 1824TIP3    H226964   0.219   2.801  16.879  0.8296 -1.6107 -0.6399
 1825TIP3   OH226965   5.712   1.418   2.336  0.5522 -0.3174  0.7489
 1825TIP3    H126966   5.737   1.432   2.427  0.6363 -0.6776  0.7799
 1825TIP3    H226967   5.764   1.344   2.307  0.6522 -0.0967  0.3531
 1826TIP3   OH226968   4.093   4.761  10.708 -0.4894  0.9302  0.5175
 1826TIP3    H126969   4.012   4.786  10.662  0.2991  0.0626 -1.4689
 1826TIP3    H226970   4.135   4.698  10.650  1.2840  0.8041  1.8454
 1827TIP3   OH226971   2.884   1.308   2.552 -0.1772 -0.5592 -0.1740
 1827TIP3    H126972   2.881   1.226   2.503 -0.5817 -0.7064  0.1015
 1827TIP3    H226973   2.842   1.289   2.635  2.3224 -0.8889  1.1003
 1828TIP3   OH226974   4.838   5.077  12.730  0.1164 -0.5186 -0.3060
 1828TIP3    H126975   4.866   5.136  12.800 -0.2290  0.8148 -1.2528
 1828TIP3    H226976   4.918   5.031  12.705  0.8685  1.0245 -0.9044
 1829TIP3   OH226977   3.490   1.914  13.339 -0.4400 -0.7149 -0.6382
 1829TIP3    H126978   3.495   2.009  13.346  0.4205 -0.7909  0.0840
 1829TIP3    H226979   3.551   1.882  13.406 -0.9240 -1.7780 -0.6749
 1830TIP3   OH226980   0.975   0.450   5.093  0.2127 -0.2524 -0.0073
 1830TIP3    H126981   1.055   0.466   5.043 -0.9858  0.3526 -1.8170
 1830TIP3    H226982   0.994   0.486   5.180  1.4870  0.9729 -0.7517
 1831TIP3   OH226983   4.017   4.865  13.626 -0.1610  0.0540  0.1609
 1831TIP3    H126984   4.096   4.833  13.670  1.2550  1.1428 -1.4772
 1831TIP3    H226985   3.954   4.879  13.697  1.2453 -0.4341  1.5638
 1832TIP3   OH226986   0.941   4.072   1.494  0.4546 -0.7053 -0.5866
 1832TIP3    H126987   0.880   4.094   1.564  0.8573 -1.0581 -0.1145
 1832TIP3    H226988   1.028   4.088   1.531  0.6558  0.8261 -1.6006
 1833TIP3   OH226989   6.599   1.630  15.200 -0.2276 -0.1968 -0.1558
 1833TIP3    H126990   6.597   1.625  15.105  3.4239  0.8545 -0.4629
 1833TIP3    H226991   6.665   1.565  15.225 -2.0237 -1.3699  1.8312
 1834TIP3   OH226992   1.800   3.044   0.192  0.3300 -0.1555  0.3989
 1834TIP3    H126993   1.820   2.954   0.216 -0.8840 -0.9753 -1.4046
 1834TIP3    H226994   1.829   3.051   0.101 -0.7151  0.8754  0.1228
 1835TIP3   OH226995   0.316   4.751  10.977 -0.0435  0.3217 -0.2925
 1835TIP3    H126996   0.282   4.684  11.037 -1.0711  0.7569 -0.3602
 1835TIP3    H226997   0.285   4.723  10.890  1.1780 -0.1418 -0.6056
 1836TIP3   OH226998   5.624   4.520   1.791  0.6833  0.2319 -0.4099
 1836TIP3    H126999   5.598   4.433   1.760  0.0752 -0.0105  0.7105
 1836TIP3    H227000   5.719   4.520   1.788  0.6662  0.1101 -1.9135
 1837TIP3   OH227001   0.563   0.276   1.128  0.2748  0.7824 -0.2304
 1837TIP3    H127002   0.608   0.226   1.060  1.1834 -1.2090  1.7181
 1837TIP3    H227003   0.470   0.262   1.111  0.4977 -0.1237 -0.7477
 1838TIP3   OH227004   6.021   4.574  13.592  0.1676 -0.3257 -0.4867
 1838TIP3    H127005   6.089   4.561  13.526  0.8698 -1.2219  0.3939
 1838TIP3    H227006   6.067   4.609  13.668 -0.7415  1.3655 -0.6673
 1839TIP3   OH227007   1.008   1.123   3.375  0.4122  0.0975  0.4200
 1839TIP3    H127008   0.939   1.064   3.343  1.6292 -1.2222  0.1072
 1839TIP3    H227009   1.058   1.146   3.297 -0.8179  2.7469  0.2937
 1840TIP3   OH227010   5.229   5.832   3.307 -0.1453 -0.1701  0.0100
 1840TIP3    H127011   5.145   5.791   3.285  0.2619 -0.3709 -1.2689
 1840TIP3    H227012   5.293   5.785   3.253  0.8292 -0.1775  1.1377
 1841TIP3   OH227013   3.300   5.780   0.188 -0.8657  0.5217  0.0078
 1841TIP3    H127014   3.256   5.805   0.269 -0.6779 -0.2934  0.3647
 1841TIP3    H227015   3.275   5.689   0.174 -0.1186  0.3620 -0.3327
 1842TIP3   OH227016   0.281   1.143  13.968  0.0121 -0.5279 -0.2822
 1842TIP3    H127017   0.372   1.116  13.984  0.7404  2.0332  0.4271
 1842TIP3    H227018   0.233   1.061  13.956  2.5956 -1.9513 -1.8185
 1843TIP3   OH227019   4.545   4.896  14.188  0.2472  0.2482 -0.1061
 1843TIP3    H127020   4.610   4.850  14.240  1.4118  0.7191 -1.1063
 1843TIP3    H227021   4.594   4.967  14.146 -0.5894 -0.2949 -2.0625
 1844TIP3   OH227022   3.484   5.598  12.214  0.2196 -0.0086 -0.2000
 1844TIP3    H127023   3.463   5.671  12.273  0.0329  1.4719 -1.9896
 1844TIP3    H227024   3.488   5.521  12.270  1.5844  1.5421  1.9781
 1845TIP3   OH227025   4.722   3.003   5.310 -0.1368 -0.5145  0.0555
 1845TIP3    H127026   4.809   3.042   5.314  0.1139 -0.8190 -1.6916
 1845TIP3    H227027   4.738   2.908   5.306 -0.6333 -0.6842  1.4720
 1846TIP3   OH227028   3.655   3.023   3.803 -0.3568 -0.2322  0.3301
 1846TIP3    H127029   3.569   2.982   3.808 -1.5975  2.2070  0.3637
 1846TIP3    H227030   3.638   3.113   3.777  2.2006  0.3536  0.3574
 1847TIP3   OH227031   0.382   2.412   4.635  0.1767 -0.2584 -0.2158
 1847TIP3    H127032   0.409   2.395   4.725  0.2025 -2.5032 -0.5809
 1847TIP3    H227033   0.438   2.355   4.582 -1.7294 -1.1788 -1.3892
 1848TIP3   OH227034   0.802   5.134  13.892  0.1009 -0.2272 -0.0839
 1848TIP3    H127035   0.840   5.141  13.804  0.6284  0.8038  0.2090
 1848TIP3    H227036   0.848   5.060  13.932  1.3309  0.5653  0.0189
 1849TIP3   OH227037   6.578   6.327  11.723  0.4568  0.1929  0.1542
 1849TIP3    H127038   6.601   6.280  11.803  2.1298  0.4694 -0.1414
 1849TIP3    H227039   6.615   6.415  11.735 -0.4565  0.6711 -0.3690
 1850TIP3   OH227040   6.484   2.843  13.847 -0.1577  0.1100  0.1585
 1850TIP3    H127041   6.517   2.819  13.761 -0.8096  0.3776 -0.1702
 1850TIP3    H227042   6.553   2.897  13.885  0.2029 -0.1508 -0.1246
 1851TIP3   OH227043   2.824   3.265  16.790 -0.3995  0.2036 -0.4388
 1851TIP3    H127044   2.909   3.308  16.777  0.5238 -1.0752  0.9702
 1851TIP3    H227045   2.762   3.336  16.804  0.7081  1.1279 -0.1221
 1852TIP3   OH227046   4.675   0.927  11.481  0.9192 -0.2252 -0.4618
 1852TIP3    H127047   4.623   0.847  11.483  0.2186  0.1846 -1.5166
 1852TIP3    H227048   4.614   0.996  11.455  1.1229  0.9945  2.0243
 1853TIP3   OH227049   1.802   2.340   0.543  0.3413 -0.9400  0.2782
 1853TIP3    H127050   1.865   2.361   0.612  0.2235  0.7469 -0.0853
 1853TIP3    H227051   1.853   2.346   0.462  0.1381 -1.4605  0.1059
 1854TIP3   OH227052   2.757   5.227  14.568  0.5690 -0.6121 -0.0117
 1854TIP3    H127053   2.802   5.153  14.527  0.9443 -1.3302  1.6228
 1854TIP3    H227054   2.727   5.193  14.652  0.5657  1.0397  0.6802
 1855TIP3   OH227055   5.314   2.627   0.114 -0.4811  0.7340 -0.3122
 1855TIP3    H127056   5.260   2.552   0.138  2.5156 -2.1664 -1.9341
 1855TIP3    H227057   5.368   2.644   0.191  2.5554 -2.4592 -1.5014
 1856TIP3   OH227058   3.100   5.187  15.941 -0.2230  0.9455 -0.1971
 1856TIP3    H127059   3.068   5.108  15.898  0.8168  0.5551 -0.2878
 1856TIP3    H227060   3.034   5.207  16.007 -0.6202  0.1427 -0.3403
 1857TIP3   OH227061   2.449   2.698   4.180 -0.4921 -0.2972 -0.0991
 1857TIP3    H127062   2.515   2.706   4.248 -0.5034 -0.5715 -0.0517
 1857TIP3    H227063   2.481   2.627   4.124 -1.0126 -0.8052  0.2361
 1858TIP3   OH227064   2.819   4.306   3.097  0.1379 -0.2953 -0.4010
 1858TIP3    H127065   2.882   4.236   3.112  0.8912  0.2523 -1.0011
 1858TIP3    H227066   2.853   4.380   3.146 -0.1898 -0.0726 -0.5050
 1859TIP3   OH227067   2.980   3.488   4.339  0.0512 -0.3135  0.2735
 1859TIP3    H127068   3.068   3.476   4.374  0.9746  1.7804 -1.1079
 1859TIP3    H227069   2.979   3.438   4.258  0.4136  0.5758 -0.3015
 1860TIP3   OH227070   6.275   0.946   4.982 -0.1358  0.0847  1.1593
 1860TIP3    H127071   6.187   0.917   5.006  0.6338 -2.2853  1.3295
 1860TIP3    H227072   6.266   0.979   4.892 -0.7975 -2.5612  0.1540
 1861TIP3   OH227073   3.097   2.969   2.317 -0.2481  0.7870 -0.0444
 1861TIP3    H127074   3.166   3.034   2.323 -1.4922  2.0160  3.1047
 1861TIP3    H227075   3.052   2.973   2.402 -2.8204 -1.4755 -1.1263
 1862TIP3   OH227076   3.809   3.772  14.902  0.4149 -0.0472 -0.4286
 1862TIP3    H127077   3.899   3.792  14.878  0.0421  2.0621 -0.3342
 1862TIP3    H227078   3.757   3.832  14.848 -0.8623 -0.5154  0.2458
 1863TIP3   OH227079   1.991   6.634  11.188  0.9941 -0.5307 -0.0119
 1863TIP3    H127080   1.985   6.546  11.150  2.7758 -0.9063  0.4934
 1863TIP3    H227081   2.010   6.691  11.113 -2.6605 -0.0787 -0.7909
 1864TIP3   OH227082   2.418   1.066  14.103 -0.0337  0.0831  0.1701
 1864TIP3    H127083   2.443   1.037  14.015 -0.2935  2.9552 -0.9548
 1864TIP3    H227084   2.412   1.161  14.096 -0.9822  0.3330  3.0913
 1865TIP3   OH227085   5.761   1.300   5.408  0.1079 -0.1414 -0.3600
 1865TIP3    H127086   5.723   1.359   5.343  1.6103  0.1337 -1.0223
 1865TIP3    H227087   5.691   1.239   5.429 -0.4145 -0.2426 -2.2400
 1866TIP3   OH227088   6.810   5.013  15.931  0.0953  0.1786  0.2680
 1866TIP3    H127089   6.757   5.005  15.851  0.3873 -0.6547  0.1490
 1866TIP3    H227090   6.833   5.105  15.935 -0.0528  0.2589 -0.5355
 1867TIP3   OH227091   6.672   4.054   2.760 -0.1897 -0.4075  0.4087
 1867TIP3    H127092   6.647   4.054   2.668  2.7150 -1.7454 -0.5004
 1867TIP3    H227093   6.657   4.144   2.790 -2.0213 -0.1751 -1.0701
 1868TIP3   OH227094   2.599   3.200  11.480  0.1665  0.1748 -0.4906
 1868TIP3    H127095   2.658   3.208  11.405 -0.9398  1.3622 -1.2654
 1868TIP3    H227096   2.534   3.135  11.452  0.5880 -0.5000  0.0416
 1869TIP3   OH227097   4.019   0.580   6.625 -0.1159  0.5108 -0.5368
 1869TIP3    H127098   4.030   0.494   6.665 -0.8395  0.8309  0.3662
 1869TIP3    H227099   4.025   0.563   6.531  3.8441  0.0465 -0.3642
 1870TIP3   OH227100   4.963   3.391  12.829 -0.7610 -0.1200 -0.1665
 1870TIP3    H127101   5.054   3.423  12.828 -0.7352 -0.1867 -0.0525
 1870TIP3    H227102   4.942   3.384  12.922 -1.5390  1.7259 -0.1586
 1871TIP3   OH227103   0.306   0.963   0.345 -0.1417  0.3810  0.0304
 1871TIP3    H127104   0.326   1.056   0.335  0.5085  0.2949  0.4483
 1871TIP3    H227105   0.379   0.928   0.396 -0.4066 -0.3504 -0.0767
 1872TIP3   OH227106   0.928   6.006   0.699 -0.5405 -0.1772  0.1446
 1872TIP3    H127107   0.931   5.913   0.676 -0.4109 -0.4120  1.0977
 1872TIP3    H227108   0.898   6.007   0.789 -0.3046  0.7013  0.2142
 1873TIP3   OH227109   0.171   6.436   1.283 -0.6836  0.4839  0.1645
 1873TIP3    H127110   0.126   6.419   1.201  1.0194  1.2416 -0.9908
 1873TIP3    H227111   0.112   6.403   1.351 -1.3237 -1.9629 -1.4350
 1874TIP3   OH227112   3.726   4.305   4.623  0.2222 -0.1180 -0.2479
 1874TIP3    H127113   3.758   4.276   4.708  0.0604 -0.9626 -0.4626
 1874TIP3    H227114   3.792   4.367   4.592  0.4757 -0.1037  0.3213
 1875TIP3   OH227115   2.784   5.265   0.891  0.3640 -0.5989  0.0049
 1875TIP3    H127116   2.773   5.322   0.967 -0.6212  0.8282 -1.1343
 1875TIP3    H227117   2.875   5.235   0.896  0.2932 -0.5859  1.7503
 1876TIP3   OH227118   2.748   0.422   3.126 -0.0700  1.0041  0.1698
 1876TIP3    H127119   2.705   0.420   3.040 -1.4958 -0.1896  0.8771
 1876TIP3    H227120   2.832   0.378   3.111 -0.7923 -0.2393 -0.3834
 1877TIP3   OH227121   0.664   4.635  12.498  0.0873  0.1511  0.2859
 1877TIP3    H127122   0.712   4.630  12.581 -0.6542 -0.2648  0.6985
 1877TIP3    H227123   0.692   4.558  12.449  1.7282  1.2181 -0.5287
 1878TIP3   OH227124   1.818   3.002   2.601 -0.1395  0.0081  0.0546
 1878TIP3    H127125   1.826   3.097   2.590 -1.2634  0.0127 -0.9280
 1878TIP3    H227126   1.849   2.965   2.518 -1.9809 -0.3279 -0.5410
 1879TIP3   OH227127   2.425   4.438  12.321  0.7643 -0.2422 -0.4815
 1879TIP3    H127128   2.497   4.444  12.258  1.1781 -0.3047 -0.0176
 1879TIP3    H227129   2.358   4.387  12.275  2.0686 -2.5648  0.0317
 1880TIP3   OH227130   1.158   2.333  16.374  0.0694  0.7201 -0.2063
 1880TIP3    H127131   1.189   2.373  16.455 -0.4373  0.7784 -0.0335
 1880TIP3    H227132   1.104   2.259  16.402  0.5200  0.2722 -0.5121
 1881TIP3   OH227133   3.985   2.762  16.787 -0.2135  0.1757 -0.5234
 1881TIP3    H127134   3.922   2.806  16.844  0.2864  1.4088 -0.8876
 1881TIP3    H227135   3.930   2.715  16.724 -0.7633 -0.5321  0.4514
 1882TIP3   OH227136   3.523   6.720   1.162  0.2138  0.2420 -0.0942
 1882TIP3    H127137   3.470   6.796   1.140 -0.6966 -0.0527  0.9809
 1882TIP3    H227138   3.528   6.721   1.258  0.7698 -0.6583 -0.1014
 1883TIP3   OH227139   0.938   0.115  15.081 -0.5485 -0.1132 -0.1995
 1883TIP3    H127140   0.854   0.154  15.057 -0.1798  0.5475 -0.4456
 1883TIP3    H227141   0.984   0.184  15.128  0.1499 -0.2173 -0.7146
 1884TIP3   OH227142   1.984   3.591  11.404 -0.4882 -0.0383 -0.1315
 1884TIP3    H127143   2.056   3.547  11.359  1.7610  2.3850  0.8380
 1884TIP3    H227144   1.935   3.635  11.335  2.0033  2.3853 -0.5024
 1885TIP3   OH227145   3.900   2.686  11.296 -0.5920 -0.0455  0.8555
 1885TIP3    H127146   3.857   2.771  11.308 -1.1436 -0.5214  2.5081
 1885TIP3    H227147   3.873   2.658  11.208 -2.3867  0.4034  1.2180
 1886TIP3   OH227148   1.973   6.464   2.455  0.1044 -0.3871 -0.5396
 1886TIP3    H127149   2.027   6.386   2.460  0.2618 -0.1880  2.3277
 1886TIP3    H227150   1.914   6.448   2.381  1.2419 -2.4443 -1.0695
 1887TIP3   OH227151   3.429   4.061  12.751  0.1757  0.1598  0.9456
 1887TIP3    H127152   3.435   4.141  12.804 -1.8486  0.1467  1.2755
 1887TIP3    H227153   3.461   4.087  12.665  0.5296  1.0358  1.3282
 1888TIP3   OH227154   5.398   3.825  17.140 -0.2490 -0.0291 -0.5544
 1888TIP3    H127155   5.409   3.877  17.219 -1.1837  0.3766 -0.6834
 1888TIP3    H227156   5.304   3.810  17.133 -0.1313 -0.4882 -1.3180
 1889TIP3   OH227157   6.202   5.650  16.115  0.5069  0.1557  0.1067
 1889TIP3    H127158   6.155   5.722  16.159  1.5717  0.9912 -0.0901
 1889TIP3    H227159   6.279   5.635  16.169 -0.0451 -1.3583  0.5370
 1890TIP3   OH227160   0.931   3.917   0.841 -0.1525  0.1077  0.0405
 1890TIP3    H127161   0.938   4.008   0.868 -3.5646 -0.0671  2.1186
 1890TIP3    H227162   1.000   3.871   0.889 -0.0233  1.2335  0.9632
 1891TIP3   OH227163   1.650   1.859   4.350  0.3873 -0.1733  0.3107
 1891TIP3    H127164   1.649   1.831   4.259  2.3530  1.9372 -0.4551
 1891TIP3    H227165   1.601   1.941   4.350  0.2708 -0.2321  1.1985
 1892TIP3   OH227166   6.300   5.327   3.629 -0.2148  0.0097  0.0624
 1892TIP3    H127167   6.250   5.281   3.561  0.2838 -1.9254  0.9259
 1892TIP3    H227168   6.233   5.360   3.689 -0.5616 -1.4523  0.5312
 1893TIP3   OH227169   0.954   5.710  14.387  0.0074 -0.5133  0.7941
 1893TIP3    H127170   1.004   5.747  14.460 -0.1450 -1.2916  1.3027
 1893TIP3    H227171   0.876   5.765  14.382  0.3726  0.0143  0.7224
 1894TIP3   OH227172   1.301   4.792  15.800 -0.2359  0.1747  0.4143
 1894TIP3    H127173   1.294   4.825  15.711  1.7659  1.1634  0.5744
 1894TIP3    H227174   1.250   4.854  15.853 -1.1711 -0.2432  0.0278
 1895TIP3   OH227175   1.117   1.898   3.054 -0.4091 -0.0631  0.6726
 1895TIP3    H127176   1.211   1.906   3.072 -0.7770  0.5754  2.5590
 1895TIP3    H227177   1.084   1.988   3.064 -1.4803 -0.5600  1.8012
 1896TIP3   OH227178   1.846   5.409   4.200 -0.1099  0.2025  0.0209
 1896TIP3    H127179   1.913   5.472   4.225  2.2069 -2.2292  0.3090
 1896TIP3    H227180   1.826   5.431   4.109  1.7602  0.4203 -0.3704
 1897TIP3   OH227181   4.633   6.341   1.571  0.1167  0.1815 -0.4452
 1897TIP3    H127182   4.604   6.262   1.526  0.7273 -0.4331  0.2099
 1897TIP3    H227183   4.561   6.403   1.560 -0.5501 -0.6053 -0.6101
 1898TIP3   OH227184   5.387   2.442  16.232  0.1707 -0.0422 -0.1112
 1898TIP3    H127185   5.341   2.521  16.205  0.1847  0.0837  0.2290
 1898TIP3    H227186   5.468   2.442  16.180  1.0617  1.1454  1.2089
 1899TIP3   OH227187   2.611   6.670  15.550 -0.3747 -0.2943 -0.1233
 1899TIP3    H127188   2.631   6.612  15.623 -1.0493 -0.5552 -0.1378
 1899TIP3    H227189   2.672   6.645  15.481  1.0831  0.7400  0.7315
 1900TIP3   OH227190   3.274   4.789   3.409  0.2338  0.7372  0.6529
 1900TIP3    H127191   3.210   4.761   3.345  1.0545 -0.1316  0.1831
 1900TIP3    H227192   3.249   4.744   3.490  1.3063 -1.1416  0.0062
 1901TIP3   OH227193   3.786   1.717   0.819  0.3267  0.3071 -0.0700
 1901TIP3    H127194   3.789   1.793   0.761 -0.0922  1.9024  1.8465
 1901TIP3    H227195   3.877   1.690   0.829  0.2790 -1.0988 -2.7143
 1902TIP3   OH227196   5.838   5.357  13.042 -0.5525 -0.4156 -0.3533
 1902TIP3    H127197   5.931   5.376  13.034 -0.7762  1.0226  0.1668
 1902TIP3    H227198   5.818   5.300  12.968  0.5938 -0.1697 -0.8675
 1903TIP3   OH227199   4.208   5.460   0.561  0.2304  0.2423 -0.2584
 1903TIP3    H127200   4.216   5.366   0.545  1.8674  0.1475  0.8562
 1903TIP3    H227201   4.119   5.472   0.593 -0.0143 -0.9072 -0.4644
 1904TIP3   OH227202   1.844   0.174  10.832 -0.1554 -0.2139  0.6815
 1904TIP3    H127203   1.887   0.213  10.756 -1.0142 -0.9004 -0.1916
 1904TIP3    H227204   1.759   0.218  10.837 -0.2227 -0.3824  1.0677
 1905TIP3   OH227205   3.282   3.230  16.260 -0.4799 -0.4633  0.3311
 1905TIP3    H127206   3.209   3.198  16.208 -1.1117 -0.3455  1.1246
 1905TIP3    H227207   3.350   3.163  16.251 -0.3304 -0.1358 -1.1455
 1906TIP3   OH227208   2.381   6.342   1.258 -0.5019  0.1116  0.0031
 1906TIP3    H127209   2.428   6.421   1.286 -0.5540  0.2121 -0.1942
 1906TIP3    H227210   2.443   6.296   1.201  0.0884 -0.7366  1.2782
 1907TIP3   OH227211   0.605   1.263  11.801 -0.7940 -0.0155 -0.2526
 1907TIP3    H127212   0.535   1.213  11.841 -2.2932  0.7609 -1.7535
 1907TIP3    H227213   0.561   1.338  11.761  1.0878  1.3119  0.0220
 1908TIP3   OH227214   6.433   4.437   2.631 -0.8923 -0.1989  0.4587
 1908TIP3    H127215   6.456   4.528   2.649  2.4389 -1.0200  0.9729
 1908TIP3    H227216   6.405   4.436   2.539  1.1568  1.0467 -0.2321
 1909TIP3   OH227217   2.015   1.597   3.395 -0.4593  0.0200 -0.2743
 1909TIP3    H127218   1.981   1.639   3.474 -1.7320 -1.2017 -0.1281
 1909TIP3    H227219   1.956   1.627   3.325 -0.2433 -0.0773 -0.4989
 1910TIP3   OH227220   4.397   4.557  13.805  0.0412  0.5252 -0.0543
 1910TIP3    H127221   4.408   4.572  13.899  1.4224  0.3079 -0.1674
 1910TIP3    H227222   4.338   4.482  13.800 -0.4276  0.8362  0.6261
 1911TIP3   OH227223   1.832   3.802   3.885 -0.1640  0.0495  0.2220
 1911TIP3    H127224   1.919   3.767   3.862 -0.1662 -0.7373  1.3434
 1911TIP3    H227225   1.831   3.890   3.846  1.1742  0.1151  0.2696
 1912TIP3   OH227226   2.767   2.299  15.284  0.0105  0.5703 -0.3469
 1912TIP3    H127227   2.850   2.321  15.327 -0.7456  4.1322 -0.3935
 1912TIP3    H227228   2.792   2.269  15.197  1.3104 -1.3110  0.6121
 1913TIP3   OH227229   4.899   3.268   1.807 -0.0143  0.2229  0.0073
 1913TIP3    H127230   4.902   3.308   1.720  0.6841 -0.7584 -0.4419
 1913TIP3    H227231   4.809   3.237   1.816 -0.4713  1.5774  0.2279
 1914TIP3   OH227232   5.556   1.589  17.261  0.0563 -0.9256 -0.1031
 1914TIP3    H127233   5.631   1.540  17.227  0.1253 -0.2963 -0.8705
 1914TIP3    H227234   5.553   1.669  17.208  1.6793  1.3236  2.8613
 1915TIP3   OH227235   1.415   5.315   3.292 -0.8336 -0.6299 -0.1537
 1915TIP3    H127236   1.400   5.285   3.203  0.8404 -0.9179 -0.3727
 1915TIP3    H227237   1.490   5.374   3.286 -0.1266 -1.3413  1.1762
 1916TIP3   OH227238   0.517   5.644  14.326  0.6032 -0.4470 -0.2872
 1916TIP3    H127239   0.557   5.589  14.394  0.9521 -1.2039 -1.0884
 1916TIP3    H227240   0.505   5.729  14.369 -0.5090 -1.2922  1.1660
 1917TIP3   OH227241   6.317   1.503  12.373 -0.0539 -0.2032 -0.4685
 1917TIP3    H127242   6.224   1.480  12.369 -0.2735  0.6822 -0.7023
 1917TIP3    H227243   6.321   1.575  12.436  0.6095 -0.8329  0.2292
 1918TIP3   OH227244   2.741   5.933   5.649 -0.2452  0.3138  0.1850
 1918TIP3    H127245   2.832   5.917   5.674  0.0689 -0.0081 -1.0851
 1918TIP3    H227246   2.736   6.028   5.639 -0.3717  0.4508  1.3565
 1919TIP3   OH227247   2.842   1.102   3.392 -0.1166 -0.4091  0.2550
 1919TIP3    H127248   2.758   1.056   3.386 -0.2540 -0.0711 -0.5520
 1919TIP3    H227249   2.908   1.033   3.390 -0.3227 -0.5909 -0.8931
 1920TIP3   OH227250   4.433   4.776   2.349 -0.0853  0.3706  0.2501
 1920TIP3    H127251   4.405   4.700   2.299  0.8986 -1.1482  1.8724
 1920TIP3    H227252   4.371   4.783   2.421  0.9114 -0.1314  1.1977
 1921TIP3   OH227253   1.037   2.994   3.056  0.1416  0.0325 -0.3960
 1921TIP3    H127254   1.106   2.965   3.114  0.8933  1.4097 -0.5629
 1921TIP3    H227255   0.984   2.916   3.041  1.4335 -0.9612  0.0284
 1922TIP3   OH227256   2.184   1.928  17.216 -0.1899  0.1673 -0.7237
 1922TIP3    H127257   2.246   1.969  17.155  0.4152  2.5293  1.3330
 1922TIP3    H227258   2.146   2.000  17.265 -2.1827 -1.4884  0.3620
 1923TIP3   OH227259   3.034   3.821   0.323  0.0026 -0.3559  0.4169
 1923TIP3    H127260   3.097   3.880   0.282  1.4214 -0.3222  2.4909
 1923TIP3    H227261   3.053   3.735   0.284 -1.0527  0.2407 -1.5006
 1924TIP3   OH227262   0.911   6.756  14.120 -0.0778  0.4665  0.4262
 1924TIP3    H127263   0.841   6.748  14.054 -0.2576 -2.4040  0.8184
 1924TIP3    H227264   0.866   6.741  14.203  0.8873 -0.8721  0.7290
 1925TIP3   OH227265   5.467   4.811   1.734 -0.1486 -0.4377  0.0829
 1925TIP3    H127266   5.541   4.832   1.791 -0.1888 -0.6609  0.2195
 1925TIP3    H227267   5.407   4.762   1.790 -0.4939 -0.0874  0.0270
 1926TIP3   OH227268   1.061   1.136   2.895  0.1059  0.4028  0.4881
 1926TIP3    H127269   1.033   1.189   2.820  1.3108  1.2142  0.5886
 1926TIP3    H227270   1.075   1.049   2.859 -1.8851  0.0996  0.3110
 1927TIP3   OH227271   0.658   5.090  13.666  0.6744  0.1505 -0.4219
 1927TIP3    H127272   0.665   5.118  13.758  1.1477  0.1855 -0.4683
 1927TIP3    H227273   0.745   5.105  13.630  0.6080 -0.2729 -0.7631
 1928TIP3   OH227274   5.693   6.787   6.591  0.8185  0.2604 -0.4830
 1928TIP3    H127275   5.719   6.735   6.667 -2.0832  0.9199  1.1123
 1928TIP3    H227276   5.682   6.724   6.520  1.1113 -0.7377  0.3437
 1929TIP3   OH227277   1.139   2.890  15.890 -0.0655 -0.0114  0.8604
 1929TIP3    H127278   1.129   2.813  15.947  1.3159  1.2987  3.0155
 1929TIP3    H227279   1.231   2.888  15.864 -0.3116  0.2814 -0.0438
 1930TIP3   OH227280   6.297   4.953  17.231  0.6810  0.4811 -0.2809
 1930TIP3    H127281   6.357   4.992  17.168  0.4620  0.2686 -0.6208
 1930TIP3    H227282   6.290   4.861  17.206  1.4008  0.1474  0.6800
 1931TIP3   OH227283   5.460   6.809   6.367  0.0090 -0.0372  0.1367
 1931TIP3    H127284   5.511   6.728   6.375 -0.4685 -0.4759 -1.0716
 1931TIP3    H227285   5.430   6.827   6.457 -0.7356 -1.7731  0.2753
 1932TIP3   OH227286   4.714   2.786  12.824 -0.1382 -0.0799 -0.2968
 1932TIP3    H127287   4.662   2.745  12.755 -0.1583  0.6084 -0.7077
 1932TIP3    H227288   4.747   2.714  12.876  3.6578 -1.1212 -3.5844
 1933TIP3   OH227289   1.488   5.762   1.329 -0.0030 -0.4549  0.2742
 1933TIP3    H127290   1.558   5.758   1.264 -0.0559 -3.0730  0.2622
 1933TIP3    H227291   1.510   5.694   1.392 -1.3126  0.2761  1.5870
 1934TIP3   OH227292   3.824   3.495  16.740  0.1352 -0.6227  0.1235
 1934TIP3    H127293   3.763   3.490  16.666 -0.2205 -0.0554  0.3740
 1934TIP3    H227294   3.781   3.445  16.809 -0.5373  0.6302  0.6314
 1935TIP3   OH227295   0.159   3.676  16.854 -0.7012 -0.2967  0.6467
 1935TIP3    H127296   0.226   3.711  16.912 -0.2922  3.1800 -1.5899
 1935TIP3    H227297   0.111   3.753  16.823 -0.4339 -1.6627 -4.0282
 1936TIP3   OH227298   5.544   3.546   1.037 -0.8060 -0.0561 -0.2245
 1936TIP3    H127299   5.573   3.517   1.123  3.1403  1.4810 -0.8576
 1936TIP3    H227300   5.547   3.641   1.041 -1.4206  0.0622 -1.8468
 1937TIP3   OH227301   3.155   1.914  12.868 -0.3869 -0.0173 -0.2055
 1937TIP3    H127302   3.115   1.869  12.943 -0.4749 -0.9442 -0.7861
 1937TIP3    H227303   3.247   1.887  12.870 -0.0843  1.0018  0.3174
 1938TIP3   OH227304   0.357   2.126  14.566 -0.2341 -0.2171 -0.2868
 1938TIP3    H127305   0.439   2.091  14.600 -1.4196 -2.1662  0.8130
 1938TIP3    H227306   0.311   2.049  14.531 -1.2674  0.9437 -1.6087
 1939TIP3   OH227307   6.077   2.121   0.203  0.5955  0.4079 -0.0085
 1939TIP3    H127308   6.048   2.122   0.112  2.3198  2.1000 -0.6013
 1939TIP3    H227309   6.021   2.185   0.247 -0.2911 -0.4684  0.1778
 1940TIP3   OH227310   2.541   1.877   6.468  0.0061 -0.1259  0.1617
 1940TIP3    H127311   2.467   1.863   6.409 -1.0473  0.6260  1.2586
 1940TIP3    H227312   2.604   1.927   6.415  0.5757 -2.2877 -1.3598
 1941TIP3   OH227313   5.608   1.486  16.107 -0.1636  0.0962  0.4244
 1941TIP3    H127314   5.684   1.544  16.101 -0.8078  0.9100 -0.1166
 1941TIP3    H227315   5.599   1.449  16.019 -0.1698 -0.2894  0.5857
 1942TIP3   OH227316   3.644   5.954  13.879 -0.8080  0.7228 -0.1614
 1942TIP3    H127317   3.696   5.954  13.799 -0.7010 -3.3596 -0.3177
 1942TIP3    H227318   3.554   5.940  13.850 -1.1064  1.5337  0.3476
 1943TIP3   OH227319   0.300   3.968  16.312  0.8722  0.2057  0.3903
 1943TIP3    H127320   0.244   4.040  16.281  0.1739  0.4332  2.0761
 1943TIP3    H227321   0.327   3.922  16.232 -1.0214  0.6132 -0.5278
 1944TIP3   OH227322   6.235   1.040  15.015  0.2692 -0.2189  0.5080
 1944TIP3    H127323   6.201   0.991  14.940 -0.3618  0.7162  0.1691
 1944TIP3    H227324   6.320   1.073  14.986 -0.0661  0.3112  0.1343
 1945TIP3   OH227325   3.927   2.959   4.790  0.1802 -0.0277  0.5638
 1945TIP3    H127326   3.941   3.034   4.848  0.6139  0.5585 -0.2765
 1945TIP3    H227327   3.878   2.995   4.716 -0.8501 -0.8839  0.8103
 1946TIP3   OH227328   4.167   3.709  13.029  0.5539 -0.2050  0.1529
 1946TIP3    H127329   4.132   3.656  13.100  1.7325 -0.1278  0.8207
 1946TIP3    H227330   4.250   3.742  13.062 -0.0715  1.9823 -0.2791
 1947TIP3   OH227331   3.602   0.832   3.530 -0.1834 -0.9608  0.5973
 1947TIP3    H127332   3.640   0.836   3.618  1.6094  2.2846 -0.1727
 1947TIP3    H227333   3.678   0.823   3.472 -0.7793  2.0087 -0.8136
 1948TIP3   OH227334   5.617   0.130  11.675 -0.0518 -0.5411  0.2822
 1948TIP3    H127335   5.591   0.047  11.636  2.2153 -0.4009 -1.7449
 1948TIP3    H227336   5.633   0.188  11.600  2.7703  0.3077  1.4065
 1949TIP3   OH227337   2.775   1.048  15.246 -0.1085  0.4181  1.3130
 1949TIP3    H127338   2.772   1.130  15.197  1.7371 -0.1808  0.1106
 1949TIP3    H227339   2.725   0.986  15.192  0.7065  0.1175  0.8901
 1950TIP3   OH227340   2.145   3.189   3.664  0.6834 -0.5537 -0.3919
 1950TIP3    H127341   2.109   3.209   3.577  2.2025 -0.3893 -1.0071
 1950TIP3    H227342   2.120   3.097   3.679 -2.0135  0.1850  0.2762
 1951TIP3   OH227343   3.418   0.360   3.133  0.3122  0.5237  0.3019
 1951TIP3    H127344   3.334   0.376   3.091  0.8931  0.2581 -1.0365
 1951TIP3    H227345   3.483   0.376   3.064  1.2930 -0.3688  0.9692
 1952TIP3   OH227346   3.545   2.903   0.689 -0.1893 -0.0524  0.1908
 1952TIP3    H127347   3.568   2.996   0.687  0.5442 -0.2184 -1.5360
 1952TIP3    H227348   3.537   2.881   0.782  0.8481  1.4487  0.6656
 1953TIP3   OH227349   0.488   4.136  11.857 -0.2812  0.1265 -0.1501
 1953TIP3    H127350   0.579   4.159  11.836 -0.5290  0.6624 -0.6592
 1953TIP3    H227351   0.466   4.194  11.930  0.8037 -2.2045  2.2004
 1954TIP3   OH227352   0.601   3.114  11.073 -0.3309  0.1361 -0.1292
 1954TIP3    H127353   0.538   3.070  11.016  0.2374  0.8939 -1.3694
 1954TIP3    H227354   0.667   3.047  11.092 -0.7489 -0.2416  0.0117
 1955TIP3   OH227355   1.542   6.756  16.204  0.1390  0.9497 -0.1698
 1955TIP3    H127356   1.459   6.714  16.184  0.6595 -0.3199  0.2124
 1955TIP3    H227357   1.549   6.750  16.300  0.5322  1.3192 -0.1714
 1956TIP3   OH227358   6.354   5.440   6.441 -0.1813 -0.2707 -0.1471
 1956TIP3    H127359   6.339   5.426   6.535  0.2844 -0.5990 -0.1208
 1956TIP3    H227360   6.416   5.372   6.416  0.3678  0.3554 -0.5047
 1957TIP3   OH227361   5.187   0.345   3.113  0.8466  0.5624  0.5333
 1957TIP3    H127362   5.100   0.309   3.133  0.2734  0.0696 -2.3765
 1957TIP3    H227363   5.236   0.270   3.078  2.5677  0.7946  2.2809
 1958TIP3   OH227364   1.808   0.263   0.467 -0.2023 -0.6371  0.5585
 1958TIP3    H127365   1.848   0.346   0.493  0.2207 -0.8266  0.5206
 1958TIP3    H227366   1.853   0.197   0.519  0.1022 -0.9367 -0.0828
 1959TIP3   OH227367   1.552   6.168  15.073  0.0511 -0.4244 -0.5859
 1959TIP3    H127368   1.520   6.121  14.996 -1.0646  0.2990 -0.5881
 1959TIP3    H227369   1.639   6.132  15.088 -0.6457 -2.2923 -0.7493
 1960TIP3   OH227370   3.071   5.833   3.017 -0.2727 -0.3617 -0.2987
 1960TIP3    H127371   3.139   5.890   2.981 -1.1074  1.8181  1.4006
 1960TIP3    H227372   3.117   5.780   3.083 -0.3318  2.0319  1.8093
 1961TIP3   OH227373   1.342   3.882  11.095 -0.2494 -0.2333 -0.2481
 1961TIP3    H127374   1.310   3.832  11.019 -0.1312 -0.8652  0.1059
 1961TIP3    H227375   1.340   3.973  11.067  1.1164 -0.5531 -1.5018
 1962TIP3   OH227376   2.815   6.313  12.431  0.3373 -0.1681 -0.3093
 1962TIP3    H127377   2.724   6.344  12.426  0.6966  1.1849  0.8093
 1962TIP3    H227378   2.808   6.221  12.454 -0.7575 -0.0590 -0.1577
 1963TIP3   OH227379   3.802   1.670  10.974 -0.6827  0.3816 -0.3947
 1963TIP3    H127380   3.779   1.738  11.037 -0.0765 -0.3687  0.6851
 1963TIP3    H227381   3.731   1.606  10.981  0.2391 -0.5596  0.8649
 1964TIP3   OH227382   6.673   4.241  16.422 -0.4117  0.3144 -0.8926
 1964TIP3    H127383   6.740   4.182  16.456 -0.9772  0.2548  0.1757
 1964TIP3    H227384   6.614   4.184  16.373 -0.3718  0.1643 -0.7691
 1965TIP3   OH227385   6.113   6.190  14.968  0.2023  0.0070  0.4664
 1965TIP3    H127386   6.151   6.278  14.972  0.0774  0.0295  1.4320
 1965TIP3    H227387   6.173   6.135  15.019 -0.7636 -0.0567  1.5864
 1966TIP3   OH227388   5.701   2.141   3.658  0.0033 -0.4561 -0.0991
 1966TIP3    H127389   5.632   2.090   3.616 -1.7418  1.1177  0.6646
 1966TIP3    H227390   5.771   2.079   3.676  0.4394 -1.4288 -4.2801
 1967TIP3   OH227391   6.158   6.362  14.415 -0.5984  0.2736 -0.0981
 1967TIP3    H127392   6.188   6.448  14.444 -0.4535  0.5215 -0.9842
 1967TIP3    H227393   6.199   6.349  14.330 -0.8710 -0.5404 -0.1117
 1968TIP3   OH227394   4.188   1.043   0.996 -0.0682 -0.3652 -0.1555
 1968TIP3    H127395   4.273   1.078   0.970 -0.0044 -0.8374 -0.6033
 1968TIP3    H227396   4.201   0.948   0.997  0.2620 -0.3743  2.7468
 1969TIP3   OH227397   5.292   5.982   4.424  0.2268  0.5086  0.1615
 1969TIP3    H127398   5.356   5.910   4.417  0.7500  1.0785 -1.4259
 1969TIP3    H227399   5.318   6.030   4.503  0.2860 -0.6406  0.8620
 1970TIP3   OH227400   1.733   1.518  10.801 -0.2642 -0.3864  0.1694
 1970TIP3    H127401   1.775   1.438  10.834 -0.3075 -0.6185 -0.3303
 1970TIP3    H227402   1.766   1.528  10.712  1.4562  1.3774  0.9312
 1971TIP3   OH227403   0.751   2.121  12.085  0.2459  0.4918 -0.0624
 1971TIP3    H127404   0.664   2.118  12.123 -0.1684  0.2488 -1.0004
 1971TIP3    H227405   0.786   2.207  12.111 -0.3618  0.6820  0.1272
 1972TIP3   OH227406   4.104   1.709  13.914 -0.5123 -0.1736  0.2673
 1972TIP3    H127407   4.154   1.628  13.923  1.9798  1.1460 -0.5118
 1972TIP3    H227408   4.028   1.697  13.970 -0.2044 -2.9946  0.2165
 1973TIP3   OH227409   1.466   2.244  14.418  0.3613 -0.0880 -0.2296
 1973TIP3    H127410   1.420   2.314  14.372 -0.3239 -0.1172  0.4020
 1973TIP3    H227411   1.516   2.288  14.487  0.6952 -0.1313 -0.4388
 1974TIP3   OH227412   3.113   5.207  12.629  0.7946  0.1752  0.1991
 1974TIP3    H127413   3.115   5.205  12.533  1.7015  0.3270  0.2103
 1974TIP3    H227414   3.171   5.280  12.653 -1.1781  1.6337  0.8121
 1975TIP3   OH227415   1.344   6.054   5.109 -0.3565 -0.4280  0.2651
 1975TIP3    H127416   1.272   6.116   5.095 -2.0786 -2.1041  1.2524
 1975TIP3    H227417   1.407   6.075   5.041 -2.0018  0.8037 -0.9599
 1976TIP3   OH227418   6.630   2.754   3.843 -0.0428  0.5495 -0.3496
 1976TIP3    H127419   6.569   2.827   3.828 -0.9648 -0.3041 -0.9057
 1976TIP3    H227420   6.619   2.732   3.936 -0.0656  0.8540 -0.2791
 1977TIP3   OH227421   3.530   2.310   6.337 -0.3853 -0.6910  0.1436
 1977TIP3    H127422   3.585   2.285   6.411  0.2974  0.3507  0.0113
 1977TIP3    H227423   3.470   2.236   6.326  0.4667 -1.5099  0.7902
 1978TIP3   OH227424   4.884   1.111   4.355 -0.1135 -0.1617  0.0969
 1978TIP3    H127425   4.934   1.034   4.382  1.0581  0.6451  0.3057
 1978TIP3    H227426   4.920   1.182   4.407 -0.3565  0.7426 -0.9450
 1979TIP3   OH227427   1.577   5.956  15.542 -0.4200  0.2935 -0.2430
 1979TIP3    H127428   1.584   6.043  15.503 -0.1673 -0.2043 -1.3476
 1979TIP3    H227429   1.656   5.910  15.512  0.0300  0.0400  1.2768
 1980TIP3   OH227430   3.240   5.035   1.639  0.8699  0.2458 -0.3273
 1980TIP3    H127431   3.216   5.123   1.670 -0.8388 -0.1166 -0.5070
 1980TIP3    H227432   3.275   4.991   1.716 -0.1002  0.4740  0.2722
 1981TIP3   OH227433   0.565   4.483   6.132  0.9402  0.2108  0.0459
 1981TIP3    H127434   0.604   4.410   6.084 -0.8318 -1.3816  0.8772
 1981TIP3    H227435   0.478   4.451   6.157  1.0336  1.6880  2.5626
 1982TIP3   OH227436   0.827   3.059   1.538  0.0494  0.5519  0.4587
 1982TIP3    H127437   0.838   2.994   1.469  0.8299  1.6703 -0.5205
 1982TIP3    H227438   0.904   3.048   1.594  0.2525  0.7159  0.2145
 1983TIP3   OH227439   6.817   3.220  13.875 -0.0117  0.7973 -0.1018
 1983TIP3    H127440   6.747   3.281  13.849  0.3822  1.0489 -0.5900
 1983TIP3    H227441   6.895   3.274  13.882  1.2263 -0.1038 -4.1778
 1984TIP3   OH227442   0.907   1.256  11.395  0.1130  0.7334 -0.5272
 1984TIP3    H127443   0.974   1.322  11.375 -0.6845  1.3313 -1.3563
 1984TIP3    H227444   0.833   1.307  11.429  0.1102  0.0792  0.4691
 1985TIP3   OH227445   6.495   3.775   2.938 -0.0289 -0.5293 -0.3001
 1985TIP3    H127446   6.414   3.824   2.951 -1.7698 -2.6323 -2.3622
 1985TIP3    H227447   6.509   3.729   3.021 -0.2180  0.8073  0.5003
 1986TIP3   OH227448   3.151   6.128   2.553  0.4063 -0.4244  0.1551
 1986TIP3    H127449   3.154   6.156   2.645  0.7676  1.2292 -0.3306
 1986TIP3    H227450   3.240   6.142   2.520  0.6237 -2.2400 -0.1376
 1987TIP3   OH227451   5.505   1.157   4.586  0.3616  0.0329 -0.3012
 1987TIP3    H127452   5.480   1.228   4.646 -0.1467 -2.0903  2.2137
 1987TIP3    H227453   5.595   1.136   4.611  0.6085 -0.0052 -1.2175
 1988TIP3   OH227454   4.684   1.663  16.479  0.1416  0.3820 -0.3184
 1988TIP3    H127455   4.770   1.686  16.444 -0.0973  1.1493 -0.4120
 1988TIP3    H227456   4.641   1.617  16.407 -0.9781  3.4024 -1.7264
 1989TIP3   OH227457   0.055   3.950   5.835  0.3555 -0.0374 -0.6096
 1989TIP3    H127458   0.074   3.857   5.822  0.7931 -0.1048  0.4072
 1989TIP3    H227459  -0.023   3.966   5.782 -0.5207 -1.3136  0.2365
 1990TIP3   OH227460   5.161   4.635  12.236 -0.5877  0.1568 -0.8307
 1990TIP3    H127461   5.162   4.618  12.331  0.5683  1.9493 -0.4633
 1990TIP3    H227462   5.071   4.617  12.209 -0.8473 -0.7727  0.5142
 1991TIP3   OH227463   1.384   0.684   1.305 -0.1856  0.0030 -0.8681
 1991TIP3    H127464   1.316   0.740   1.341  0.7691 -0.1324  1.2706
 1991TIP3    H227465   1.419   0.734   1.230 -0.2684  1.6736  0.1571
 1992TIP3   OH227466   4.697   1.811   4.282  0.5351  0.0948 -0.2401
 1992TIP3    H127467   4.790   1.833   4.272  1.0244 -1.6216  0.2224
 1992TIP3    H227468   4.674   1.846   4.369  1.2737 -1.0721  0.4519
 1993TIP3   OH227469   0.397   1.990  17.025 -0.0658  0.0537 -0.0230
 1993TIP3    H127470   0.320   1.938  17.002 -0.7567  0.5192  1.1779
 1993TIP3    H227471   0.465   1.925  17.047  0.0905 -0.3679 -1.6296
 1994TIP3   OH227472   6.444   3.575   4.973 -0.8620 -0.2153 -0.1983
 1994TIP3    H127473   6.504   3.517   5.020 -2.1178 -0.4895  1.1491
 1994TIP3    H227474   6.443   3.655   5.024 -0.0546  0.5824 -1.3887
 1995TIP3   OH227475   4.014   0.650  13.585  0.5737  0.2699 -0.5135
 1995TIP3    H127476   4.011   0.598  13.666  2.3000 -0.8805 -1.1265
 1995TIP3    H227477   4.105   0.680  13.580  0.2334  1.1917 -1.5330
 1996TIP3   OH227478   6.703   5.294  13.247 -0.0685 -0.0509  0.0275
 1996TIP3    H127479   6.663   5.312  13.332  1.9780 -2.7312  1.7383
 1996TIP3    H227480   6.758   5.370  13.230 -0.9258  0.7675  0.8060
 1997TIP3   OH227481   6.235   0.512   5.838  0.7733 -0.6959 -0.2297
 1997TIP3    H127482   6.276   0.540   5.756  2.0578 -1.1325  0.2339
 1997TIP3    H227483   6.277   0.566   5.905  0.1440 -0.7332  0.2030
 1998TIP3   OH227484   2.716   5.369  12.228 -0.5794  0.1075 -0.7576
 1998TIP3    H127485   2.666   5.375  12.146 -0.9943  0.7035 -0.4668
 1998TIP3    H227486   2.656   5.401  12.295  0.9051  3.0475 -0.6854
 1999TIP3   OH227487   2.214   4.938  13.407 -0.0619  0.4733  0.2931
 1999TIP3    H127488   2.298   4.984  13.401 -0.0857  0.5619  0.6066
 1999TIP3    H227489   2.233   4.850  13.375 -0.5330  1.2917 -2.5449
 2000TIP3   OH227490   6.525   6.038   6.673 -0.4239 -0.0366 -0.6951
 2000TIP3    H127491   6.604   6.025   6.724 -2.2460 -2.6679  1.7482
 2000TIP3    H227492   6.524   5.967   6.610 -1.6900 -1.2537  0.6146
 2001TIP3   OH227493   0.630   3.611   2.319 -0.3766 -0.4382 -0.6092
 2001TIP3    H127494   0.591   3.594   2.233 -1.2735 -2.0239  0.0731
 2001TIP3    H227495   0.641   3.706   2.322 -2.7381 -0.0904 -1.4611
 2002TIP3   OH227496   1.817   2.356  13.510  0.1254  0.4494  0.8242
 2002TIP3    H127497   1.729   2.340  13.543  0.4469 -0.3264  1.3298
 2002TIP3    H227498   1.871   2.363  13.589  0.6382  0.1804  0.4991
 2003TIP3   OH227499   6.280   0.220  13.309 -0.0245  0.1185 -0.9451
 2003TIP3    H127500   6.290   0.309  13.275  2.7134  0.7520  1.1396
 2003TIP3    H227501   6.311   0.225  13.399 -2.0580 -2.5147  0.0302
 2004TIP3   OH227502   2.253   4.914  14.139  0.1217 -0.8504  0.2353
 2004TIP3    H127503   2.251   4.916  14.044 -0.7363  1.3678  0.2340
 2004TIP3    H227504   2.167   4.947  14.165  0.4725 -1.0739  1.7727
 2005TIP3   OH227505   4.466   1.028  17.018 -0.0571  0.1668 -0.5755
 2005TIP3    H127506   4.477   0.971  17.095 -0.4732  2.4402  1.2632
 2005TIP3    H227507   4.373   1.050  17.018  0.6532  3.8496  1.1413
 2006TIP3   OH227508   3.754   0.825  15.723 -0.4858 -0.1299  0.5026
 2006TIP3    H127509   3.798   0.746  15.690  0.7384 -0.0724  1.9184
 2006TIP3    H227510   3.668   0.794  15.751 -0.9132 -0.4936 -1.0958
 2007TIP3   OH227511   6.767   1.625  13.547 -0.0154  0.8660  0.7543
 2007TIP3    H127512   6.710   1.563  13.591  0.0582 -0.5450 -1.0516
 2007TIP3    H227513   6.707   1.687  13.504 -0.1115  1.1014  1.2185
 2008TIP3   OH227514   6.140   2.080   3.732 -0.2056 -0.4104  0.1741
 2008TIP3    H127515   6.100   2.059   3.647 -1.3255 -0.3838  0.6801
 2008TIP3    H227516   6.075   2.052   3.796 -0.3830  1.6671  0.9675
 2009TIP3   OH227517   0.073   6.316   1.048 -0.1940 -0.1643 -0.1437
 2009TIP3    H127518   0.115   6.233   1.027  0.4742 -0.0825  0.7727
 2009TIP3    H227519  -0.007   6.292   1.094  0.3712 -0.3247  0.8003
 2010TIP3   OH227520   5.908   3.473   3.028 -0.3713  0.0692 -0.4434
 2010TIP3    H127521   5.943   3.435   2.947  0.1696  0.7853 -0.5597
 2010TIP3    H227522   5.816   3.448   3.028  0.4073 -3.4169  0.7436
 2011TIP3   OH227523   2.005   0.538  11.255 -0.1970 -0.0899 -0.7967
 2011TIP3    H127524   1.943   0.503  11.319  0.1043  3.2460  1.5543
 2011TIP3    H227525   1.974   0.504  11.171 -3.2513 -1.1823  0.6230
 2012TIP3   OH227526   3.313   0.777  16.147  0.4291 -0.0165 -0.1334
 2012TIP3    H127527   3.344   0.859  16.186  2.6455 -0.9770  0.2922
 2012TIP3    H227528   3.330   0.710  16.214 -3.2762 -0.6290  0.3718
 2013TIP3   OH227529   2.121   3.953  14.608  0.4302  0.8226 -0.0383
 2013TIP3    H127530   2.029   3.978  14.610  0.2093  0.1940 -1.1058
 2013TIP3    H227531   2.167   4.022  14.655 -0.8179  0.0158  2.5364
 2014TIP3   OH227532   5.935   4.151   1.439 -0.0563 -0.4009 -0.8043
 2014TIP3    H127533   5.848   4.163   1.400  0.0806  1.3761 -0.6594
 2014TIP3    H227534   5.995   4.189   1.374  0.3639  0.6002  0.1465
 2015TIP3   OH227535   6.095   6.736   0.317  0.3399  0.0265 -0.1793
 2015TIP3    H127536   6.131   6.762   0.232 -0.9215  0.6732 -0.5365
 2015TIP3    H227537   6.165   6.685   0.358  1.8364  1.6188 -0.6369
 2016TIP3   OH227538   3.263   2.749   4.310 -0.1612 -0.1527 -0.4941
 2016TIP3    H127539   3.213   2.749   4.392  1.8261 -2.3945  0.8301
 2016TIP3    H227540   3.341   2.698   4.329  0.6333 -0.3392 -3.6898
 2017TIP3   OH227541   1.609   4.866   6.206  0.2669  0.3326  0.1153
 2017TIP3    H127542   1.550   4.802   6.165  0.1706  0.1846  0.4853
 2017TIP3    H227543   1.693   4.821   6.212  0.1170  0.1242  0.6741
 2018TIP3   OH227544   2.542   0.563  16.917 -0.3767 -0.1414 -0.1540
 2018TIP3    H127545   2.471   0.603  16.969 -0.5993  1.1596 -1.4242
 2018TIP3    H227546   2.535   0.469  16.937 -0.1907  0.3219  2.4671
 2019TIP3   OH227547   5.915   2.064  11.368  0.0257 -0.0878  0.0659
 2019TIP3    H127548   5.996   2.028  11.331  0.1816 -0.6378  0.9214
 2019TIP3    H227549   5.865   1.987  11.395 -0.0515  0.2950  1.0480
 2020TIP3   OH227550   6.558   5.088   4.254 -0.1056 -0.2799  0.5018
 2020TIP3    H127551   6.533   5.003   4.288  0.4972 -1.4221 -1.7288
 2020TIP3    H227552   6.525   5.089   4.165  0.6028  1.5089  0.2148
 2021TIP3   OH227553   2.592   0.083   4.173 -1.0148  0.1722  0.3407
 2021TIP3    H127554   2.677   0.043   4.159  0.2453  1.6429  2.9598
 2021TIP3    H227555   2.543   0.019   4.224 -0.1953  0.6054  1.7197
 2022TIP3   OH227556   5.775   5.562   1.324  0.9774 -0.1589 -0.0742
 2022TIP3    H127557   5.822   5.520   1.252 -1.7245 -2.5514 -0.6376
 2022TIP3    H227558   5.797   5.508   1.400  0.3978 -0.3506 -0.0387
 2023TIP3   OH227559   5.872   3.408  13.924  0.1773 -0.1562 -0.5725
 2023TIP3    H127560   5.812   3.468  13.879 -0.0708 -0.0610 -0.1216
 2023TIP3    H227561   5.878   3.333  13.866 -0.1359 -0.0335 -0.7707
 2024TIP3   OH227562   0.849   1.478  16.592  0.2197  0.2761 -0.2933
 2024TIP3    H127563   0.806   1.461  16.676  1.1602 -3.2983 -0.3596
 2024TIP3    H227564   0.785   1.449  16.527  1.2149 -1.5293 -0.5362
 2025TIP3   OH227565   1.156   6.732  11.835  0.2761 -0.5669  0.2735
 2025TIP3    H127566   1.122   6.648  11.805  1.1322 -0.7753 -0.1306
 2025TIP3    H227567   1.081   6.775  11.876 -0.2958 -1.3061  0.0145
 2026TIP3   OH227568   2.017   3.384   5.569  0.1263  0.4220  0.3222
 2026TIP3    H127569   2.082   3.402   5.637  0.8679 -0.3792 -0.1439
 2026TIP3    H227570   2.043   3.299   5.533 -0.9409  0.2789 -0.1670
 2027TIP3   OH227571   6.784   4.464  15.374  0.1793  0.4526 -0.3575
 2027TIP3    H127572   6.782   4.528  15.445 -0.7092 -0.3801  0.4022
 2027TIP3    H227573   6.692   4.448  15.354  0.4196  0.8581 -1.8943
 2028TIP3   OH227574   1.583   3.742  11.285 -0.1230  0.0689 -0.8231
 2028TIP3    H127575   1.663   3.790  11.267 -1.0361  1.1640 -2.1602
 2028TIP3    H227576   1.528   3.803  11.333  0.4082 -1.2269  1.6260
 2029TIP3   OH227577   5.902   5.009   4.711  0.3646 -0.1790 -0.4120
 2029TIP3    H127578   5.813   4.975   4.715  0.3508 -0.1448 -0.4205
 2029TIP3    H227579   5.952   4.943   4.662  0.0144  0.4977 -1.7057
 2030TIP3   OH227580   6.824   2.796  12.833 -0.0423  0.4547  0.2697
 2030TIP3    H127581   6.878   2.771  12.908  2.1990  0.4547 -1.2476
 2030TIP3    H227582   6.812   2.890  12.843  0.2169  0.4508  0.6518
 2031TIP3   OH227583   4.919   4.680   1.763  0.1687  0.2965 -0.0091
 2031TIP3    H127584   4.899   4.596   1.804 -1.2511  0.5144 -0.2085
 2031TIP3    H227585   4.971   4.657   1.685 -1.1041 -0.4950 -0.6458
 2032TIP3   OH227586   1.218   3.804  14.980  0.2826  0.9800  0.0134
 2032TIP3    H127587   1.214   3.881  14.923  0.2068  0.9879  0.0294
 2032TIP3    H227588   1.183   3.834  15.064  1.4179  1.2699  0.4039
 2033TIP3   OH227589   0.902   5.169   3.863 -0.6809 -0.1470  0.0589
 2033TIP3    H127590   0.843   5.164   3.938 -0.8356 -0.3252 -0.0740
 2033TIP3    H227591   0.845   5.159   3.787 -0.9592  2.7585 -0.2290
 2034TIP3   OH227592   3.074   3.990   2.351 -0.1369 -0.2092  0.2002
 2034TIP3    H127593   3.060   3.909   2.303  1.9130 -1.9834  2.3393
 2034TIP3    H227594   3.166   4.011   2.337 -0.2958  0.9988  0.7783
 2035TIP3   OH227595   6.127   3.116  15.856 -0.0812 -0.5975  0.3584
 2035TIP3    H127596   6.052   3.174  15.870 -1.3304 -2.4023  1.5699
 2035TIP3    H227597   6.115   3.083  15.767  1.1842  1.6606 -0.7253
 2036TIP3   OH227598   0.893   1.805  13.111  0.1199  0.1792 -0.5339
 2036TIP3    H127599   0.907   1.883  13.164 -1.4595  1.2691 -1.6368
 2036TIP3    H227600   0.979   1.783  13.076  0.6027  1.3187 -0.0912
 2037TIP3   OH227601   3.059   4.710  11.282  0.0581 -0.6811  0.3356
 2037TIP3    H127602   3.115   4.669  11.349 -0.4242 -0.2990  0.9753
 2037TIP3    H227603   3.008   4.637  11.246  1.8441 -1.2683 -1.1573
 2038TIP3   OH227604   0.448   4.917   5.771  0.0158  0.0830 -0.3031
 2038TIP3    H127605   0.370   4.866   5.791 -1.4230  2.4106  0.5294
 2038TIP3    H227606   0.482   4.880   5.690 -1.2649 -1.7637 -0.0457
 2039TIP3   OH227607   2.957   5.819  14.208  0.3552  0.0416  0.1924
 2039TIP3    H127608   2.928   5.755  14.273  2.3849 -0.5449  0.5954
 2039TIP3    H227609   3.017   5.769  14.151 -1.8633  0.3389 -2.6187
 2040TIP3   OH227610   2.428   5.659  16.636 -0.4490 -0.0013 -0.2564
 2040TIP3    H127611   2.420   5.710  16.555 -1.3264  2.4856  1.3151
 2040TIP3    H227612   2.338   5.648  16.666 -0.0074  1.0848  1.5405
 2041TIP3   OH227613   0.107   4.533   1.247 -0.3925 -0.5635 -0.0915
 2041TIP3    H127614   0.202   4.549   1.247 -0.5663  0.5475 -0.3702
 2041TIP3    H227615   0.073   4.592   1.181 -1.4273 -0.0567  0.8671
 2042TIP3   OH227616   1.896   1.592   4.907 -0.0099 -0.2917  0.1441
 2042TIP3    H127617   1.809   1.566   4.936 -0.5244  1.3925  0.1887
 2042TIP3    H227618   1.904   1.683   4.932  1.3171 -0.0807 -0.9112
 2043TIP3   OH227619   4.123   5.342  14.486 -0.3425  0.5530  0.1668
 2043TIP3    H127620   4.151   5.252  14.472 -1.9567  0.0225  0.2024
 2043TIP3    H227621   4.200   5.385  14.525  0.6806 -0.6082 -0.4961
 2044TIP3   OH227622   6.524   1.691  11.519  0.4086  0.1337 -0.2652
 2044TIP3    H127623   6.513   1.619  11.457  1.1947  0.1228 -0.4034
 2044TIP3    H227624   6.452   1.681  11.581 -0.0904 -0.1516 -0.8859
 2045TIP3   OH227625   5.863   5.143  15.828 -0.1277  0.0742  0.2923
 2045TIP3    H127626   5.912   5.199  15.768 -0.1226 -0.2775 -0.0328
 2045TIP3    H227627   5.927   5.081  15.863 -0.2386 -0.0629  0.2535
 2046TIP3   OH227628   6.244   0.245  16.445  0.0178  0.1662  0.3604
 2046TIP3    H127629   6.211   0.290  16.368 -1.6065 -0.3857  0.6867
 2046TIP3    H227630   6.274   0.315  16.503 -2.0181  0.8551  0.6705
 2047TIP3   OH227631   2.169   5.747  13.480  0.4450 -0.3439  0.1224
 2047TIP3    H127632   2.105   5.760  13.550 -0.7881 -0.7071 -0.8957
 2047TIP3    H227633   2.233   5.817  13.491 -0.5200  0.4519  0.7358
 2048TIP3   OH227634   2.966   4.431   4.329 -0.1355  0.0392 -0.9261
 2048TIP3    H127635   2.879   4.413   4.363  0.2298  1.2962  0.8137
 2048TIP3    H227636   2.953   4.499   4.263 -0.3248  1.8629  0.8856
 2049TIP3   OH227637   2.543   3.596   4.413 -0.1003  0.1998  0.4817
 2049TIP3    H127638   2.597   3.545   4.353 -0.1466  0.6523  0.0423
 2049TIP3    H227639   2.468   3.624   4.360 -1.0994 -0.9268  1.2350
 2050TIP3   OH227640   6.776   0.976   3.883  0.2692  0.0762  0.0838
 2050TIP3    H127641   6.784   0.882   3.864  2.1090  0.0883  0.5906
 2050TIP3    H227642   6.865   1.003   3.904  0.0303  2.2602 -1.4391
 2051TIP3   OH227643   5.712   1.113  12.540 -0.6039  0.0849  0.5280
 2051TIP3    H127644   5.771   1.165  12.484 -2.8587 -0.3766 -2.5369
 2051TIP3    H227645   5.741   1.023  12.528 -1.3927 -0.0642 -0.3636
 2052TIP3   OH227646   0.879   2.709  13.092 -0.0852 -0.3360  0.1329
 2052TIP3    H127647   0.892   2.656  13.014  0.6062  0.6411 -0.4351
 2052TIP3    H227648   0.882   2.800  13.061 -0.4390  0.0618  1.1943
 2053TIP3   OH227649   6.385   2.578  12.075 -0.9629 -0.2234 -0.0821
 2053TIP3    H127650   6.438   2.620  12.007 -1.6263  5.0632  2.1332
 2053TIP3    H227651   6.296   2.582  12.041 -1.5456  3.9870  1.3435
 2054TIP3   OH227652   6.189   0.661   5.154 -1.0365  0.0965  0.0265
 2054TIP3    H127653   6.180   0.746   5.198 -2.2899 -0.4988  0.9972
 2054TIP3    H227654   6.157   0.598   5.219 -0.4448 -1.0842 -0.8057
 2055TIP3   OH227655   1.332   2.284  13.402 -0.4932 -0.5487 -0.3038
 2055TIP3    H127656   1.340   2.195  13.435  1.5046 -0.7011 -1.0310
 2055TIP3    H227657   1.272   2.277  13.328  1.2017 -1.7321 -1.6472
 2056TIP3   OH227658   1.787   6.342   0.817 -0.4307 -0.5890 -0.4177
 2056TIP3    H127659   1.879   6.326   0.837 -0.0147  1.2068 -0.6881
 2056TIP3    H227660   1.740   6.315   0.896  0.2779 -1.8266 -0.3997
 2057TIP3   OH227661   1.523   1.578  14.976 -0.0165 -0.3583  0.4474
 2057TIP3    H127662   1.590   1.578  15.044  1.1383 -2.7933 -0.5353
 2057TIP3    H227663   1.476   1.495  14.989 -0.5560 -0.3048 -0.9737
 2058TIP3   OH227664   5.735   1.243   1.397 -0.3821  0.1532 -0.3185
 2058TIP3    H127665   5.772   1.293   1.470 -0.1144  0.0367 -0.3757
 2058TIP3    H227666   5.808   1.193   1.362  0.4026  2.7616 -2.8674
 2059TIP3   OH227667   1.541   3.710  17.052  0.1594 -0.0738  0.6665
 2059TIP3    H127668   1.502   3.649  17.114 -1.2674 -0.9251 -0.9806
 2059TIP3    H227669   1.608   3.659  17.006 -0.3849 -0.1353 -0.0687
 2060TIP3   OH227670   4.582   2.898   2.523 -0.1800 -0.5555 -0.0490
 2060TIP3    H127671   4.505   2.877   2.576 -0.2337 -2.1569 -0.7060
 2060TIP3    H227672   4.560   2.865   2.435  1.6580 -2.0448 -0.0027
 2061TIP3   OH227673   3.422   3.431   2.007 -0.2988 -0.3894 -0.1427
 2061TIP3    H127674   3.461   3.355   2.049 -0.4786 -0.4728 -0.1259
 2061TIP3    H227675   3.490   3.464   1.948  0.5587  0.6597  1.3459
 2062TIP3   OH227676   4.328   1.941   0.461  0.1744  0.3002  0.0612
 2062TIP3    H127677   4.372   2.024   0.476 -0.0894  0.6240 -0.8679
 2062TIP3    H227678   4.397   1.876   0.464  0.2269  0.3882  1.9743
 2063TIP3   OH227679   5.136   4.797  11.086  0.0228  0.2002  0.1547
 2063TIP3    H127680   5.183   4.856  11.026  0.0617  0.8206  0.7770
 2063TIP3    H227681   5.070   4.853  11.127 -0.5039 -0.4021  0.1287
 2064TIP3   OH227682   3.670   2.704  10.998  0.2928 -0.4200  0.2118
 2064TIP3    H127683   3.765   2.692  11.008  0.2724 -0.4210  0.4201
 2064TIP3    H227684   3.649   2.664  10.914  0.4451 -0.6078  0.2614
 2065TIP3   OH227685   0.275   0.279  16.656 -0.0994 -0.4286  0.5884
 2065TIP3    H127686   0.239   0.192  16.673  1.5014 -1.5377 -1.2593
 2065TIP3    H227687   0.209   0.323  16.603 -0.1220 -1.2539 -0.0862
 2066TIP3   OH227688   4.396   4.357   4.570 -0.5333  0.4856  0.1664
 2066TIP3    H127689   4.402   4.359   4.474  0.5198  0.6535  0.2264
 2066TIP3    H227690   4.333   4.287   4.588 -0.9703  0.6436 -0.6452
 2067TIP3   OH227691   2.794   1.144  15.825  0.2670 -0.0060  0.1858
 2067TIP3    H127692   2.761   1.210  15.886  1.1697 -0.8302  1.6131
 2067TIP3    H227693   2.808   1.193  15.743  1.0298  1.6250  1.2373
 2068TIP3   OH227694   0.417   2.680   4.623 -0.0493  0.1854 -0.2861
 2068TIP3    H127695   0.404   2.585   4.620  1.2845  0.0010 -0.4770
 2068TIP3    H227696   0.509   2.691   4.643 -0.8007  1.4631  3.0445
 2069TIP3   OH227697   0.469   5.883   5.529 -0.2736 -0.5516  0.6627
 2069TIP3    H127698   0.529   5.812   5.506  0.5358  0.6698 -1.2233
 2069TIP3    H227699   0.525   5.960   5.535 -1.5813  0.6371 -1.2325
 2070TIP3   OH227700   6.555   2.739   0.620  0.2732 -0.3882 -0.4501
 2070TIP3    H127701   6.613   2.803   0.662  1.5982 -2.8268  1.7536
 2070TIP3    H227702   6.597   2.722   0.536 -0.1053  1.5581 -1.0850
 2071TIP3   OH227703   5.601   2.010  16.459 -0.5700 -0.5258  0.0882
 2071TIP3    H127704   5.671   1.968  16.508 -0.1069  0.3775  0.2220
 2071TIP3    H227705   5.565   1.940  16.404 -0.5236 -1.3387  1.0564
 2072TIP3   OH227706   6.654   1.670   1.918 -0.3486  0.7364  0.3986
 2072TIP3    H127707   6.738   1.644   1.880 -0.0272  2.5212 -0.2319
 2072TIP3    H227708   6.589   1.617   1.872  0.4109 -0.8860  1.1057
 2073TIP3   OH227709   5.571   3.828   4.704 -0.2071 -0.0379 -0.1187
 2073TIP3    H127710   5.652   3.796   4.665  0.6622  1.9745 -0.0710
 2073TIP3    H227711   5.570   3.791   4.792 -0.1494 -1.3214 -0.6309
 2074TIP3   OH227712   3.774   4.022   0.168  0.0296  0.1595  0.4986
 2074TIP3    H127713   3.852   4.071   0.142 -0.6607 -0.1748 -2.7597
 2074TIP3    H227714   3.807   3.943   0.210  1.3620  0.7641  0.6318
 2075TIP3   OH227715   2.669   3.616   1.893 -0.4310  0.3216 -0.2543
 2075TIP3    H127716   2.596   3.627   1.832 -0.1676  1.3093 -0.4059
 2075TIP3    H227717   2.669   3.697   1.945 -0.0157 -0.0690  0.3657
 2076TIP3   OH227718   5.806   0.833   3.571  0.4497  0.1343  0.1631
 2076TIP3    H127719   5.848   0.758   3.530 -2.3453 -1.3471 -0.1945
 2076TIP3    H227720   5.779   0.801   3.657  1.7230  1.6616  1.1890
 2077TIP3   OH227721   5.896   4.849  12.092 -0.1256  0.1514 -0.5117
 2077TIP3    H127722   5.860   4.917  12.034  1.3692 -1.8633 -4.1635
 2077TIP3    H227723   5.823   4.788  12.105 -0.0038 -0.3525 -2.0001
 2078TIP3   OH227724   2.878   1.227   4.499 -0.0382  0.3429  0.0089
 2078TIP3    H127725   2.842   1.266   4.419 -0.2045 -0.8518 -0.5059
 2078TIP3    H227726   2.803   1.217   4.557  0.1623  1.6896  0.5429
 2079TIP3   OH227727   2.127   6.444  10.673  0.3157  0.3770  0.7211
 2079TIP3    H127728   2.037   6.471  10.654  1.0831  3.0885  0.4017
 2079TIP3    H227729   2.178   6.475  10.598  1.4713 -1.7487  0.5433
 2080TIP3   OH227730   4.675   5.841   0.818 -0.0799 -0.7126 -0.0247
 2080TIP3    H127731   4.737   5.828   0.890 -0.8978 -0.2175  0.7817
 2080TIP3    H227732   4.699   5.774   0.754  0.4186 -1.4177  0.8712
 2081TIP3   OH227733   3.245   6.181  13.476 -0.3196  0.3766  0.0227
 2081TIP3    H127734   3.305   6.145  13.410 -1.4073 -1.8545  0.1642
 2081TIP3    H227735   3.220   6.266  13.441  1.7597  0.7475 -0.7400
 2082TIP3   OH227736   1.095   2.707  15.534 -0.5700 -0.2491 -0.6523
 2082TIP3    H127737   1.096   2.791  15.488 -2.0398  0.4833  0.5730
 2082TIP3    H227738   1.185   2.694  15.564 -0.3130  0.8433 -0.9257
 2083TIP3   OH227739   0.495   4.044   4.701  0.6580 -0.0828 -0.4964
 2083TIP3    H127740   0.551   3.981   4.746  0.1905 -0.0796  0.1085
 2083TIP3    H227741   0.480   4.005   4.615  0.2685 -0.8725 -0.0857
 2084TIP3   OH227742   0.415   2.918  14.928 -0.0400  0.0666  0.1281
 2084TIP3    H127743   0.480   2.851  14.906 -0.3207 -0.2792  0.3380
 2084TIP3    H227744   0.456   3.001  14.903  0.4761 -0.1504  0.2451
 2085TIP3   OH227745   5.070   2.170   3.565 -0.7028 -0.2003 -0.1764
 2085TIP3    H127746   5.047   2.193   3.654 -2.2255 -1.4182 -0.2112
 2085TIP3    H227747   5.120   2.245   3.532  1.2822 -0.3811  2.1613
 2086TIP3   OH227748   6.124   4.280  13.226 -0.8267  0.0832 -0.1575
 2086TIP3    H127749   6.210   4.243  13.207 -1.3150 -0.9500 -0.4678
 2086TIP3    H227750   6.116   4.277  13.321 -0.8010 -0.4951 -0.1719
 2087TIP3   OH227751   3.183   2.376   0.814 -0.4609 -0.5487  0.6633
 2087TIP3    H127752   3.262   2.323   0.821 -1.1399 -1.4861  1.5784
 2087TIP3    H227753   3.170   2.388   0.720  1.1831  0.2978  0.5067
 2088TIP3   OH227754   5.257   3.527  15.182  0.0781 -0.0166  0.1100
 2088TIP3    H127755   5.225   3.523  15.272  0.1599 -2.2404  0.0771
 2088TIP3    H227756   5.326   3.461  15.177  1.5596  1.5239 -1.0581
 2089TIP3   OH227757   4.579   6.314  13.157 -0.3441 -0.1501  0.2766
 2089TIP3    H127758   4.672   6.320  13.139 -0.3431  1.7915  0.7175
 2089TIP3    H227759   4.573   6.285  13.248 -0.0932  1.1397  0.7351
 2090TIP3   OH227760   5.480   4.498   2.675 -0.2558 -0.1926 -0.2918
 2090TIP3    H127761   5.421   4.476   2.747 -0.8985 -3.0729 -1.5172
 2090TIP3    H227762   5.567   4.474   2.707 -0.4121 -0.5519 -0.1307
 2091TIP3   OH227763   1.128   1.758  11.462 -0.8700 -0.0405  0.4661
 2091TIP3    H127764   1.039   1.786  11.482 -0.0598  0.9763  3.0126
 2091TIP3    H227765   1.161   1.824  11.401 -1.7098 -0.2471 -0.2365
 2092TIP3   OH227766   4.431   0.081  10.632  0.1433  0.0899  0.1392
 2092TIP3    H127767   4.366   0.145  10.601  0.0481 -0.2270 -0.3246
 2092TIP3    H227768   4.516   0.120  10.610  0.0665 -0.6564 -1.6275
 2093TIP3   OH227769   1.115   5.521   5.271  0.0500 -0.1741  0.3614
 2093TIP3    H127770   1.070   5.598   5.305  0.3229 -0.6284  1.8204
 2093TIP3    H227771   1.058   5.489   5.200 -1.7147 -0.4728  1.8406
 2094TIP3   OH227772   4.424   0.552   3.839  0.7322  0.1855  0.4235
 2094TIP3    H127773   4.518   0.532   3.842  1.0561  1.6364  0.8476
 2094TIP3    H227774   4.420   0.647   3.848 -0.6267  0.5138 -2.5288
 2095TIP3   OH227775   4.746   4.339  11.555 -0.4128 -0.3594  0.0358
 2095TIP3    H127776   4.697   4.266  11.590  0.0922 -0.1051  1.3126
 2095TIP3    H227777   4.732   4.411  11.617  0.7218  0.0224 -0.1094
 2096TIP3   OH227778   1.861   2.270   2.682 -0.0144  0.2641  0.5780
 2096TIP3    H127779   1.888   2.185   2.717  1.0609  0.4745  0.2947
 2096TIP3    H227780   1.771   2.282   2.713 -0.2246 -1.0390  0.4998
 2097TIP3   OH227781   0.522   3.389   2.501  0.3490 -0.1476  0.2571
 2097TIP3    H127782   0.580   3.463   2.483 -0.5098  0.3626 -0.4659
 2097TIP3    H227783   0.526   3.379   2.597  1.9968 -0.4529  0.1900
 2098TIP3   OH227784   1.824   0.685   5.011 -0.0010 -0.1926 -0.2315
 2098TIP3    H127785   1.878   0.614   4.975 -1.0433 -2.2424  1.9351
 2098TIP3    H227786   1.754   0.640   5.058  0.0365  2.2439  2.4453
 2099TIP3   OH227787   6.707   6.112   0.814 -0.1618  0.3499  0.3925
 2099TIP3    H127788   6.645   6.130   0.886 -1.8429 -1.3679 -0.5414
 2099TIP3    H227789   6.665   6.042   0.764  1.4143  0.8539 -1.7331
 2100TIP3   OH227790   2.096   5.714  16.043  0.9594 -0.7315 -0.2151
 2100TIP3    H127791   2.157   5.667  16.100  1.1253 -0.6254 -0.3057
 2100TIP3    H227792   2.080   5.797  16.087  0.1899 -1.1153  0.2453
 2101TIP3   OH227793   2.097   6.092   0.078  0.2147 -0.5543  0.6523
 2101TIP3    H127794   2.047   6.100   0.159  0.6193  0.1824  0.8348
 2101TIP3    H227795   2.163   6.160   0.083 -1.6296  1.6079 -1.6223
 2102TIP3   OH227796   4.112   4.629  16.606 -0.2359 -0.2917  0.6013
 2102TIP3    H127797   4.127   4.535  16.599  0.9514 -0.1988  1.5326
 2102TIP3    H227798   4.199   4.668  16.606 -0.7246  0.9744 -1.3274
 2103TIP3   OH227799   4.615   3.859  10.634 -0.2508 -0.1757  0.0174
 2103TIP3    H127800   4.641   3.815  10.714  1.9214  1.5305  0.3629
 2103TIP3    H227801   4.698   3.883  10.592 -1.2707  2.2759 -0.8044
 2104TIP3   OH227802   3.294   3.350   2.365  0.2947 -0.5050 -0.6672
 2104TIP3    H127803   3.309   3.305   2.282  0.8732  1.3886 -1.6520
 2104TIP3    H227804   3.366   3.320   2.422 -0.0524 -1.7451 -0.8434
 2105TIP3   OH227805   2.627   5.846  16.633  0.7556 -0.3727  0.2456
 2105TIP3    H127806   2.568   5.781  16.672  1.3499  0.3355  2.4644
 2105TIP3    H227807   2.572   5.921  16.613  0.5194 -0.5682  0.1666
 2106TIP3   OH227808   3.696   0.646  14.267  0.2020  0.5396  0.1663
 2106TIP3    H127809   3.663   0.614  14.351  0.4322 -0.0649  0.0253
 2106TIP3    H227810   3.650   0.730  14.254  0.4680  0.8393  1.0864
 2107TIP3   OH227811   0.863   4.071  17.265 -0.1685  0.0463 -0.1101
 2107TIP3    H127812   0.853   4.061  17.170 -0.8420 -0.0374 -0.0389
 2107TIP3    H227813   0.957   4.070  17.280 -0.0659 -0.2415 -0.7464
 2108TIP3   OH227814   2.593   5.471  12.009 -0.0565  0.0661  0.1245
 2108TIP3    H127815   2.613   5.487  11.917  1.2339 -1.1980  0.1530
 2108TIP3    H227816   2.502   5.441  12.009 -0.2737  0.7015 -0.6568
 2109TIP3   OH227817   5.343   3.146  12.731 -0.4469  0.0389 -0.0094
 2109TIP3    H127818   5.274   3.103  12.680  0.2822 -0.2379 -0.7809
 2109TIP3    H227819   5.389   3.074  12.774  3.3895 -0.6221 -4.4623
 2110TIP3   OH227820   1.209   2.081  11.843 -0.2853 -0.1710  0.6900
 2110TIP3    H127821   1.278   2.064  11.908 -0.4497 -1.2172  0.6181
 2110TIP3    H227822   1.242   2.154  11.791  1.3148 -1.3788 -0.0747
 2111TIP3   OH227823   4.538   6.392  14.901 -0.1962 -0.2178  0.5798
 2111TIP3    H127824   4.470   6.384  14.969 -0.8634  1.6859  0.1803
 2111TIP3    H227825   4.489   6.409  14.821  0.6137 -2.0253 -0.3660
 2112TIP3   OH227826   0.529   4.537   0.203  0.2062  0.0656  0.2057
 2112TIP3    H127827   0.527   4.487   0.122  2.5563 -1.1113  0.8039
 2112TIP3    H227828   0.445   4.519   0.244  0.2214 -1.8574 -0.5128
 2113TIP3   OH227829   5.561   5.676  14.955  0.4676  0.1766 -0.2537
 2113TIP3    H127830   5.577   5.722  14.873 -0.7197 -1.1846 -1.3002
 2113TIP3    H227831   5.495   5.730  14.999 -0.1559  0.0516 -0.9999
 2114TIP3   OH227832   1.823   0.972  15.777 -0.1791  1.0563 -0.6005
 2114TIP3    H127833   1.830   1.065  15.754 -0.3064  1.0452 -0.6904
 2114TIP3    H227834   1.816   0.971  15.873  1.6311  1.0206 -0.4376
 2115TIP3   OH227835   4.907   4.311   3.971 -0.0109 -0.0993  0.2190
 2115TIP3    H127836   4.892   4.313   3.876 -3.3891  0.7061  0.6531
 2115TIP3    H227837   4.923   4.218   3.990  0.2713 -0.3386 -1.0778
 2116TIP3   OH227838   6.313   1.662  14.238 -0.0866 -0.3234  0.3326
 2116TIP3    H127839   6.360   1.744  14.224  0.0833 -0.1337  1.8502
 2116TIP3    H227840   6.245   1.683  14.303 -1.1839 -0.9868 -0.5494
 2117TIP3   OH227841   5.332   1.328   3.071 -0.0710 -0.4104  0.0380
 2117TIP3    H127842   5.284   1.259   3.025 -3.0357  1.1928  0.4818
 2117TIP3    H227843   5.394   1.361   3.006 -1.5463 -0.6868 -1.5929
 2118TIP3   OH227844   5.544   5.902   2.139  0.7000  0.3296  0.4786
 2118TIP3    H127845   5.577   5.835   2.080 -0.0313  0.1019  0.3136
 2118TIP3    H227846   5.464   5.935   2.097  0.5866  0.7037  0.9642
 2119TIP3   OH227847   3.803   0.297  11.427  0.1582 -0.3652 -0.0619
 2119TIP3    H127848   3.722   0.338  11.396  0.5079  0.1651 -0.2751
 2119TIP3    H227849   3.782   0.203  11.428 -1.2776 -0.0883  2.3080
 2120TIP3   OH227850   4.894   0.859   5.259 -0.4284 -0.2281  0.3125
 2120TIP3    H127851   4.894   0.954   5.250  2.3704 -0.1348  0.6021
 2120TIP3    H227852   4.985   0.836   5.275 -0.7283 -3.1196 -1.3873
 2121TIP3   OH227853   4.184   1.239   4.939 -0.2394 -0.1061  0.2481
 2121TIP3    H127854   4.184   1.162   4.996 -2.0990 -0.0256  0.4172
 2121TIP3    H227855   4.130   1.303   4.985 -0.0940  0.6975 -0.6663
 2122TIP3   OH227856   0.767   6.106  11.935 -0.7081  0.4100 -0.1683
 2122TIP3    H127857   0.808   6.041  11.878  1.1805 -1.1237  2.7262
 2122TIP3    H227858   0.798   6.190  11.901 -1.0173 -0.2707 -2.3358
 2123TIP3   OH227859   0.666   0.680  10.813 -0.5341  0.5191  0.2669
 2123TIP3    H127860   0.658   0.584  10.809 -1.2074  0.6090 -0.8275
 2123TIP3    H227861   0.665   0.700  10.907  1.3970 -0.6788  0.5959
 2124TIP3   OH227862   0.565   5.402  11.853  0.1344 -0.4520  0.0105
 2124TIP3    H127863   0.628   5.444  11.911 -0.1685  0.2228 -0.1411
 2124TIP3    H227864   0.532   5.327  11.903  1.0642 -0.8250  0.0851
 2125TIP3   OH227865   4.976   3.766  13.184  0.4820 -0.3180 -0.6852
 2125TIP3    H127866   5.067   3.772  13.155  1.6426  1.3549  2.7726
 2125TIP3    H227867   4.981   3.765  13.279 -3.1619  0.8514 -0.3250
 2126TIP3   OH227868   6.448   4.237  16.256  0.2731  0.1458 -0.4218
 2126TIP3    H127869   6.419   4.325  16.231 -1.1444 -0.1664  0.0741
 2126TIP3    H227870   6.429   4.183  16.179  1.5612  0.3221 -0.9011
 2127TIP3   OH227871   1.144   3.661   4.589 -0.1296 -0.4108  0.0356
 2127TIP3    H127872   1.077   3.647   4.522  1.0016 -2.1747 -0.8193
 2127TIP3    H227873   1.214   3.707   4.543 -0.9777  2.1253  1.1174
 2128TIP3   OH227874   4.066   6.039  12.190 -0.5122  0.1213  0.4320
 2128TIP3    H127875   4.015   6.119  12.203 -0.9601 -0.0534 -0.2038
 2128TIP3    H227876   4.036   6.004  12.106  2.3986  1.2738 -1.2160
 2129TIP3   OH227877   1.690   3.927  10.985  0.0887 -0.1160  0.4988
 2129TIP3    H127878   1.621   3.981  10.945  0.9267  0.7019  0.1329
 2129TIP3    H227879   1.753   3.913  10.915  1.3677  0.9670  1.3765
 2130TIP3   OH227880   4.957   5.070   0.706  0.0494  0.2595  0.4962
 2130TIP3    H127881   5.021   5.070   0.635 -2.2335  0.1410 -1.7176
 2130TIP3    H227882   5.002   5.112   0.779  1.8258  2.5046 -1.7161
 2131TIP3   OH227883   1.381   0.276  15.219  0.2315  0.3319  0.1000
 2131TIP3    H127884   1.352   0.240  15.135  1.2017  0.0022 -0.1046
 2131TIP3    H227885   1.420   0.361  15.197  1.4148 -0.1990  0.0580
 2132TIP3   OH227886   1.991   5.629   1.606  0.7345 -0.4321 -1.4232
 2132TIP3    H127887   2.078   5.651   1.572  0.7188  1.1600 -0.5348
 2132TIP3    H227888   1.944   5.713   1.607 -0.4518 -1.0834 -0.8875
 2133TIP3   OH227889   0.735   6.266  11.447 -0.0309 -0.7067  0.1689
 2133TIP3    H127890   0.774   6.252  11.360 -0.0228 -2.1350  0.3751
 2133TIP3    H227891   0.668   6.332  11.432  0.7561 -0.0630 -0.6884
 2134TIP3   OH227892   5.673   1.472   3.032 -0.2454  0.3356  0.1877
 2134TIP3    H127893   5.702   1.386   3.064  1.3295  1.4141  1.8468
 2134TIP3    H227894   5.753   1.517   3.006 -0.9230  1.6641  0.3000
 2135TIP3   OH227895   5.707   4.747   3.430 -0.0938  0.2050 -0.3681
 2135TIP3    H127896   5.713   4.785   3.343  0.5294 -0.5591 -0.6742
 2135TIP3    H227897   5.615   4.718   3.437 -0.1190  0.1661 -0.8190
 2136TIP3   OH227898   4.998   5.757   1.173 -0.1427  0.4037  0.2941
 2136TIP3    H127899   5.091   5.753   1.197 -0.3013 -0.7469  0.7571
 2136TIP3    H227900   4.974   5.849   1.186  0.8433  0.6452  0.4926
 2137TIP3   OH227901   4.291   2.152  15.024  0.0912 -0.2394  0.2527
 2137TIP3    H127902   4.254   2.092  14.959 -0.8092  1.0927 -0.5096
 2137TIP3    H227903   4.383   2.125  15.031  0.1759 -0.5081 -1.4671
 2138TIP3   OH227904   2.508   2.007   6.158 -0.1897 -0.4467  0.1387
 2138TIP3    H127905   2.596   2.014   6.123  0.2231 -0.3548  1.1717
 2138TIP3    H227906   2.479   1.919   6.135  0.7737 -1.0409  1.1598
 2139TIP3   OH227907   6.364   1.707  13.850  0.4612 -0.0197  0.6633
 2139TIP3    H127908   6.315   1.763  13.910 -0.2783 -0.0912  0.1332
 2139TIP3    H227909   6.426   1.767  13.808  1.5016 -0.0970  2.0000
 2140TIP3   OH227910   2.428   4.618   5.201 -0.2129  0.0256 -0.1553
 2140TIP3    H127911   2.343   4.583   5.228  0.0855  0.2026  1.0777
 2140TIP3    H227912   2.490   4.547   5.220  0.1083  0.4316  0.3279
 2141TIP3   OH227913   5.321   5.108  11.810  0.2546  0.3362  0.7154
 2141TIP3    H127914   5.256   5.144  11.750 -0.5010  1.2542  2.0436
 2141TIP3    H227915   5.394   5.169  11.806 -0.1116  0.8302  1.2738
 2142TIP3   OH227916   4.404   0.211  14.256  0.1651 -0.5036 -0.5061
 2142TIP3    H127917   4.318   0.241  14.286  0.1281 -2.4994  1.6235
 2142TIP3    H227918   4.465   0.276  14.291 -0.2060 -0.9422  1.0265
 2143TIP3   OH227919   1.900   1.760  15.489  0.4633  0.0649 -0.4401
 2143TIP3    H127920   1.959   1.784  15.418  2.1552  1.7536  1.4112
 2143TIP3    H227921   1.886   1.842  15.537 -3.3379 -0.2736 -0.6619
 2144TIP3   OH227922   1.399   3.333  16.300 -0.6082 -0.1998 -0.1198
 2144TIP3    H127923   1.446   3.412  16.273 -0.3662 -0.2811  0.0640
 2144TIP3    H227924   1.369   3.294  16.218 -0.9725  0.2266 -0.2004
 2145TIP3   OH227925   3.142   2.563  13.034  0.0777 -0.2863 -0.3633
 2145TIP3    H127926   3.111   2.649  13.005 -0.7572 -0.9165 -1.3825
 2145TIP3    H227927   3.066   2.506  13.027  0.6279 -1.1191  0.3053
 2146TIP3   OH227928   4.603   4.991   2.824 -0.1460  0.0438  0.0738
 2146TIP3    H127929   4.587   5.077   2.785  0.0609  1.0013  1.9521
 2146TIP3    H227930   4.638   4.938   2.752  1.9463  2.2202 -0.6758
 2147TIP3   OH227931   5.278   5.852  15.861 -0.4277  0.1065 -0.6726
 2147TIP3    H127932   5.189   5.821  15.878 -0.7492  0.8092 -1.0347
 2147TIP3    H227933   5.299   5.909  15.935  0.0697 -0.7523 -0.1348
 2148TIP3   OH227934   1.782   3.030   3.753  0.7046  0.1599  0.7120
 2148TIP3    H127935   1.760   3.070   3.837  0.5388 -0.2543  0.8675
 2148TIP3    H227936   1.786   3.104   3.692 -0.2702  0.3430  0.8500
 2149TIP3   OH227937   5.444   0.780   0.294 -0.5572  0.1535 -0.2917
 2149TIP3    H127938   5.504   0.848   0.264 -1.8683  0.9372 -1.2478
 2149TIP3    H227939   5.372   0.783   0.232 -2.3781  0.3597  1.7251
 2150TIP3   OH227940   0.316   4.583   4.015 -0.4340 -0.0115  0.6166
 2150TIP3    H127941   0.409   4.583   4.038  0.1574  1.6264 -1.3900
 2150TIP3    H227942   0.304   4.505   3.961 -0.0669  0.0550  0.4330
 2151TIP3   OH227943   3.593   1.006   1.483  0.1624  0.4804  0.2653
 2151TIP3    H127944   3.554   1.039   1.402 -0.1170  0.9956  0.6007
 2151TIP3    H227945   3.524   1.016   1.548  1.0647  2.1421  1.0442
 2152TIP3   OH227946   3.791   0.431   3.082 -0.0677  0.0720  0.3023
 2152TIP3    H127947   3.734   0.481   3.140 -1.0604 -2.3072  1.5333
 2152TIP3    H227948   3.865   0.405   3.138 -0.7316 -1.7357  0.4140
 2153TIP3   OH227949   3.867   2.830   5.051  0.4595 -0.1814 -0.4317
 2153TIP3    H127950   3.862   2.864   4.962  2.2755  2.4443  0.3249
 2153TIP3    H227951   3.796   2.875   5.098  0.4334 -0.4175 -0.2413
 2154TIP3   OH227952   4.345   4.743  16.557 -1.0110 -0.1456 -0.2678
 2154TIP3    H127953   4.366   4.811  16.493 -3.6860  0.2023 -0.8767
 2154TIP3    H227954   4.398   4.765  16.633  0.5789  0.7252 -1.5460
 2155TIP3   OH227955   0.709   2.724   0.497  0.1422  0.9792 -0.6335
 2155TIP3    H127956   0.716   2.736   0.403 -0.6810  2.0848 -0.5742
 2155TIP3    H227957   0.775   2.784   0.534  0.6863  0.3122 -0.5104
 2156TIP3   OH227958   2.785   0.998  14.949  0.4657 -0.3064 -0.1012
 2156TIP3    H127959   2.726   1.071  14.969  0.2150 -0.2495 -0.9926
 2156TIP3    H227960   2.727   0.925  14.928  0.5205  0.5950 -4.2114
 2157TIP3   OH227961   3.806   4.579  17.065 -0.0421 -0.2928 -0.1905
 2157TIP3    H127962   3.767   4.573  17.153  2.5843  1.1411  1.2004
 2157TIP3    H227963   3.820   4.672  17.052  0.5624 -0.5787 -1.7130
 2158TIP3   OH227964   5.253   3.719  16.836 -0.1094  0.2799  0.3698
 2158TIP3    H127965   5.191   3.677  16.896 -0.4748  1.2461  0.6786
 2158TIP3    H227966   5.298   3.646  16.794 -1.9496 -0.4855 -0.3939
 2159TIP3   OH227967   4.533   2.884   1.121  0.2822 -0.0088  0.5030
 2159TIP3    H127968   4.627   2.874   1.138  0.2564 -0.2142  0.5322
 2159TIP3    H227969   4.528   2.928   1.037  0.4049 -2.6954 -1.0367
 2160TIP3   OH227970   3.809   0.003  13.777  0.5139 -0.1776  0.0435
 2160TIP3    H127971   3.847  -0.062  13.719  0.8093 -1.0779  1.2017
 2160TIP3    H227972   3.788   0.077  13.720  1.4527 -0.7380 -1.0731
 2161TIP3   OH227973   2.648   4.672   1.412 -0.1697 -0.4278 -0.2677
 2161TIP3    H127974   2.712   4.654   1.344 -1.1460  0.7900 -1.5658
 2161TIP3    H227975   2.591   4.595   1.413 -0.5620 -0.1624 -1.3387
 2162TIP3   OH227976   1.307   3.171   5.980  0.1464 -0.0157  0.5160
 2162TIP3    H127977   1.236   3.233   5.964 -0.5807 -1.1896 -1.1192
 2162TIP3    H227978   1.313   3.166   6.076 -0.1560  2.0807  0.6900
 2163TIP3   OH227979   6.627   4.045   0.829  0.3574 -0.0620  0.4349
 2163TIP3    H127980   6.596   4.048   0.738  1.2669  0.0049  0.1137
 2163TIP3    H227981   6.552   4.074   0.881 -0.1073  0.1086 -0.3144
 2164TIP3   OH227982   2.005   2.285  14.564  0.4719 -0.3691  0.0042
 2164TIP3    H127983   2.019   2.374  14.532  1.8150 -0.9878 -1.2894
 2164TIP3    H227984   1.963   2.240  14.492  0.2621 -0.9109  0.4587
 2165TIP3   OH227985   5.071   2.594   0.983  0.2874 -0.1494  0.2942
 2165TIP3    H127986   5.125   2.516   0.985  1.1324  0.4203  0.2510
 2165TIP3    H227987   5.041   2.605   1.073  0.1195 -0.5484  0.2890
 2166TIP3   OH227988   3.923   4.152  10.171  0.2215  0.7905  0.1767
 2166TIP3    H127989   3.873   4.219  10.217 -0.6897  0.1045  0.2094
 2166TIP3    H227990   3.959   4.197  10.094 -0.7830  1.1977 -0.0610
 2167TIP3   OH227991   3.256   1.652  14.088  0.5332  0.0906  0.1819
 2167TIP3    H127992   3.263   1.558  14.105 -2.0400 -0.3156 -0.4985
 2167TIP3    H227993   3.288   1.663  13.998 -0.4378 -0.3956 -0.2357
 2168TIP3   OH227994   0.798   5.851  12.271  0.2728  0.4699 -0.6956
 2168TIP3    H127995   0.850   5.926  12.302  0.5235  0.3412 -0.8032
 2168TIP3    H227996   0.845   5.775  12.304 -0.8720  0.3754  0.8452
 2169TIP3   OH227997   3.813   0.833   5.584  0.7111 -0.1402 -0.1064
 2169TIP3    H127998   3.767   0.867   5.660 -2.3083 -0.5866 -1.5956
 2169TIP3    H227999   3.846   0.747   5.612  0.5100  0.1323  0.9777
 2170TIP3   OH228000   0.619   4.492   1.560  0.0992  0.1773 -0.7243
 2170TIP3    H128001   0.628   4.411   1.510  3.2459 -0.2177  0.2567
 2170TIP3    H228002   0.540   4.480   1.612 -0.7614 -1.2723 -2.2952
 2171TIP3   OH228003   3.296   4.117   5.143 -0.1653 -0.1913 -0.5313
 2171TIP3    H128004   3.295   4.120   5.048 -2.3686 -0.9575 -0.5758
 2171TIP3    H228005   3.274   4.026   5.165  1.9802 -0.4895  0.7565
 2172TIP3   OH228006   0.586   3.051  14.436  0.6580  0.1565  0.9540
 2172TIP3    H128007   0.576   2.957  14.418 -0.0469  0.4833 -0.4647
 2172TIP3    H228008   0.670   3.057  14.482  1.5433 -0.9942 -0.4195
 2173TIP3   OH228009   4.461   3.647   3.281 -0.0453 -0.2479  0.3192
 2173TIP3    H128010   4.515   3.570   3.262 -0.7276 -0.3380 -1.4291
 2173TIP3    H228011   4.524   3.719   3.286  0.2946 -0.3002 -2.0096
 2174TIP3   OH228012   3.713   2.250   1.908 -0.6621  0.0556 -0.2512
 2174TIP3    H128013   3.750   2.328   1.866  0.6484  0.3920  1.4021
 2174TIP3    H228014   3.646   2.220   1.848  0.4166  1.0931 -2.0655
 2175TIP3   OH228015   6.768   0.996  11.985 -0.8707 -0.0904  0.1030
 2175TIP3    H128016   6.714   0.956  12.053 -1.1259  0.9336  0.5190
 2175TIP3    H228017   6.766   1.089  12.005  0.3764  0.0492 -0.3672
 2176TIP3   OH228018   2.768   1.400   0.398 -0.3597  0.2689  0.2741
 2176TIP3    H128019   2.858   1.408   0.367 -0.4813  3.1035  0.3872
 2176TIP3    H228020   2.742   1.311   0.375  1.1540  0.6039 -3.4390
 2177TIP3   OH228021   4.627   0.992   4.749 -0.4511  0.1533  0.2972
 2177TIP3    H128022   4.714   1.025   4.727 -0.2921  0.0654  0.7702
 2177TIP3    H228023   4.567   1.059   4.717 -0.3685 -0.7741 -1.9909
 2178TIP3   OH228024   3.891   0.581   5.701  1.1231 -0.3182  0.1283
 2178TIP3    H128025   3.973   0.590   5.749 -0.1105  0.5038  2.1970
 2178TIP3    H228026   3.823   0.579   5.768 -0.5723 -1.3084 -1.4921
 2179TIP3   OH228027   2.560   4.639  15.908 -0.2040 -0.4562  0.1058
 2179TIP3    H128028   2.618   4.709  15.877 -2.4029  2.4688  2.0674
 2179TIP3    H228029   2.525   4.600  15.828 -0.2680  1.9820 -1.1532
 2180TIP3   OH228030   0.414   2.231   5.265  0.1258 -0.0412 -0.2985
 2180TIP3    H128031   0.395   2.161   5.328 -0.0394 -0.1574 -0.4757
 2180TIP3    H228032   0.462   2.296   5.316 -2.0008  0.9608  0.5610
 2181TIP3   OH228033   5.575   1.244   5.616 -0.2816 -0.6314 -0.2463
 2181TIP3    H128034   5.596   1.154   5.640 -1.7794 -0.8982  0.1557
 2181TIP3    H228035   5.609   1.296   5.689  0.3861 -0.8869 -0.3712
 2182TIP3   OH228036   6.376   6.043  15.379 -0.0077 -0.0376 -0.7266
 2182TIP3    H128037   6.352   5.996  15.458 -1.4982  0.4431 -0.8678
 2182TIP3    H228038   6.472   6.038  15.376  0.0712 -0.0729  1.0749
 2183TIP3   OH228039   2.933   6.648   6.375  0.9769  0.7588 -0.2085
 2183TIP3    H128040   2.911   6.586   6.306 -0.6432  1.7900 -0.6683
 2183TIP3    H228041   2.858   6.646   6.435  1.5146  1.2636  0.5042
 2184TIP3   OH228042   5.169   5.084   0.508 -0.0855  0.5398  0.4013
 2184TIP3    H128043   5.191   5.124   0.424 -1.3042  2.7414  1.0378
 2184TIP3    H228044   5.250   5.087   0.558 -0.1097  2.2535  0.3936
 2185TIP3   OH228045   2.994   3.578  13.060 -0.1284 -0.3302  0.0270
 2185TIP3    H128046   2.971   3.523  13.136 -0.2154 -1.1658 -0.5843
 2185TIP3    H228047   2.929   3.648  13.061  0.1314 -0.0775  0.9671
 2186TIP3   OH228048   3.318   3.118   4.622  0.7028  0.3089 -0.0473
 2186TIP3    H128049   3.382   3.058   4.659 -0.1402 -0.6057 -0.0441
 2186TIP3    H228050   3.341   3.124   4.529  1.3012  0.6477  0.1209
 2187TIP3   OH228051   4.532   2.563   6.337 -0.4891 -0.0596  0.0569
 2187TIP3    H128052   4.452   2.521   6.368 -0.0564 -2.0285 -1.3000
 2187TIP3    H228053   4.603   2.514   6.379  0.0185  0.5330 -0.0950
 2188TIP3   OH228054   0.318   6.626   0.898  0.1797 -0.1690  0.1471
 2188TIP3    H128055   0.273   6.552   0.858  0.1903  0.8108 -1.7991
 2188TIP3    H228056   0.249   6.689   0.919  0.2606 -0.3233  0.8996
 2189TIP3   OH228057   4.656   3.205   0.681 -0.1473  0.8481  0.0507
 2189TIP3    H128058   4.572   3.206   0.634 -1.4897 -2.4423  1.9338
 2189TIP3    H228059   4.635   3.242   0.767  0.2107 -0.2031  0.6123
 2190TIP3   OH228060   6.163   4.806  12.666 -0.0723  0.0113  0.1578
 2190TIP3    H128061   6.235   4.853  12.623 -1.2725  1.1679 -0.6832
 2190TIP3    H228062   6.199   4.779  12.750  1.1830  1.0578 -0.0042
 2191TIP3   OH228063   0.106   3.245  16.730 -0.2027 -0.1148  0.3248
 2191TIP3    H128064   0.192   3.264  16.766  0.4934 -1.3710 -0.6146
 2191TIP3    H228065   0.059   3.328  16.733  0.9501  0.5181  1.0824
 2192TIP3   OH228066   2.257   3.218   3.912  0.9834 -0.2588 -0.3124
 2192TIP3    H128067   2.260   3.236   3.818  0.5477  1.9570  0.0455
 2192TIP3    H228068   2.172   3.174   3.925 -0.5630  2.4134 -0.5769
 2193TIP3   OH228069   1.185   6.213   3.724  0.5933  0.1867  0.3700
 2193TIP3    H128070   1.167   6.307   3.717 -2.8204 -0.4525 -1.3118
 2193TIP3    H228071   1.127   6.182   3.793  1.3641 -0.7885  0.6128
 2194TIP3   OH228072   1.456   1.475   4.781  0.1361 -0.0368  0.6877
 2194TIP3    H128073   1.391   1.531   4.824  0.9873  1.0294  0.6169
 2194TIP3    H228074   1.523   1.462   4.848  1.1706  1.1236 -0.0807
 2195TIP3   OH228075   6.524   2.444  13.193  0.3089  0.4694 -0.4047
 2195TIP3    H128076   6.475   2.378  13.242  1.4828  0.8530  1.3865
 2195TIP3    H228077   6.477   2.526  13.210  1.0204  0.6895  0.5574
 2196TIP3   OH228078   6.212   5.354   4.474 -0.1837  0.5804  0.5779
 2196TIP3    H128079   6.220   5.362   4.569 -0.8164  0.3723  0.6603
 2196TIP3    H228080   6.152   5.280   4.462  0.3531  0.2258  0.0040
 2197TIP3   OH228081   3.441   4.013  14.921  0.0890 -0.1221  0.2592
 2197TIP3    H128082   3.437   3.918  14.937  3.7734 -0.3175  1.0930
 2197TIP3    H228083   3.414   4.052  15.004 -0.8051 -0.4416  0.1281
 2198TIP3   OH228084   6.611   6.486   0.543  0.6032  0.0442 -0.0051
 2198TIP3    H128085   6.588   6.455   0.630  0.3091  0.9454  0.2522
 2198TIP3    H228086   6.584   6.416   0.484  0.4675 -0.4139  0.5972
 2199TIP3   OH228087   5.187   0.249   0.166  0.6296 -0.0475  0.2473
 2199TIP3    H128088   5.129   0.278   0.096  1.5931 -0.3301 -0.6818
 2199TIP3    H228089   5.143   0.173   0.204 -1.4382  1.9183  2.0554
 2200TIP3   OH228090   3.613   2.416  15.304  0.2400  0.1917 -0.6789
 2200TIP3    H128091   3.656   2.461  15.377  0.7494  0.3814 -1.0925
 2200TIP3    H228092   3.680   2.412  15.236  0.0805 -0.8649 -0.7840
 2201TIP3   OH228093   0.461   2.764   1.137 -0.0895  0.4464 -0.4973
 2201TIP3    H128094   0.408   2.685   1.131  0.9419 -0.2677 -0.4438
 2201TIP3    H228095   0.438   2.815   1.059 -0.5398 -0.0353 -0.6820
 2202TIP3   OH228096   0.066   6.296  17.083  0.4254 -0.2731  0.0811
 2202TIP3    H128097  -0.029   6.304  17.092  0.5048 -0.1117  0.9042
 2202TIP3    H228098   0.088   6.218  17.134  0.6556 -0.7216 -0.6975
 2203TIP3   OH228099   2.712   3.504  16.862  0.0695  0.2998  0.3393
 2203TIP3    H128100   2.697   3.599  16.864  1.2150  0.4847  0.6136
 2203TIP3    H228101   2.657   3.470  16.933 -0.2288  0.7696  0.3415
 2204TIP3   OH228102   6.419   4.917  15.921 -0.2098 -0.4145  0.4381
 2204TIP3    H128103   6.338   4.954  15.956 -0.7642 -1.5606  0.3854
 2204TIP3    H228104   6.404   4.823  15.919  0.7256 -0.5622 -0.5965
 2205TIP3   OH228105   0.005   0.835  13.010  0.0726 -0.0559  0.0921
 2205TIP3    H128106  -0.007   0.914  12.956  0.0917 -1.2312 -1.7137
 2205TIP3    H228107   0.099   0.829  13.024  0.1404 -0.1567 -0.4018
 2206TIP3   OH228108   5.970   3.952  16.448  0.5314 -0.4909  0.3316
 2206TIP3    H128109   6.064   3.966  16.447  0.2345  1.9158 -0.5563
 2206TIP3    H228110   5.945   3.959  16.540  0.6788  4.2783  0.2591
 2207TIP3   OH228111   0.209   1.308  17.139 -0.0129  0.2721  0.1088
 2207TIP3    H128112   0.155   1.260  17.076  0.4015 -0.4190  0.2793
 2207TIP3    H228113   0.182   1.400  17.128 -2.4626 -0.2212  1.4070
 2208TIP3   OH228114   3.718   0.549   2.413 -0.0889 -0.0679 -0.2042
 2208TIP3    H128115   3.733   0.541   2.507 -3.0776 -0.3156  0.3275
 2208TIP3    H228116   3.669   0.630   2.403 -3.7658 -2.1659 -0.8830
 2209TIP3   OH228117   3.663   2.800  13.344 -0.0432  0.3324  0.4316
 2209TIP3    H128118   3.608   2.742  13.292  0.3156  0.3365  0.0435
 2209TIP3    H228119   3.670   2.880  13.292 -0.3387  0.6437  0.8525
 2210TIP3   OH228120   0.120   1.182  12.624 -0.4779 -0.4362 -0.1709
 2210TIP3    H128121   0.164   1.219  12.547  0.0184  0.0162  0.3251
 2210TIP3    H228122   0.166   1.100  12.641 -1.2988 -1.0937 -1.0083
 2211TIP3   OH228123   0.395   6.012  15.527  0.6599  0.2958  0.2526
 2211TIP3    H128124   0.416   5.992  15.436  0.8856 -1.5949  0.6836
 2211TIP3    H228125   0.469   6.065  15.558  1.3649 -0.3986 -0.2195
 2212TIP3   OH228126   3.176   2.506   3.443 -0.2141  0.0871  0.1205
 2212TIP3    H128127   3.259   2.539   3.478 -0.5553  0.8837  0.2136
 2212TIP3    H228128   3.142   2.578   3.390  0.0492 -0.9119 -1.4900
 2213TIP3   OH228129   4.835   5.645  15.412 -0.4358  0.2616  0.0588
 2213TIP3    H128130   4.747   5.671  15.439 -0.7672 -1.2926  0.5554
 2213TIP3    H228131   4.824   5.616  15.321 -0.7412 -1.1919  0.5259
 2214TIP3   OH228132   5.468   4.386   5.690 -0.2440  0.9220  0.1999
 2214TIP3    H128133   5.531   4.424   5.628  0.9092 -3.4674 -1.6920
 2214TIP3    H228134   5.415   4.327   5.636  0.3577 -2.6478  3.1925
 2215TIP3   OH228135   1.589   3.291  16.526  0.1917  0.3327 -0.0942
 2215TIP3    H128136   1.515   3.305  16.467  0.7164  0.8995 -0.6324
 2215TIP3    H228137   1.651   3.240  16.475  1.4656  2.3983 -0.7451
 2216TIP3   OH228138   0.687   0.104  16.397  0.3197 -0.6381 -0.0610
 2216TIP3    H128139   0.750   0.173  16.375 -0.6381  0.7474  1.3292
 2216TIP3    H228140   0.649   0.078  16.313  0.3001  0.9446 -0.5711
 2217TIP3   OH228141   2.112   6.706   2.461 -0.6026 -0.2478 -0.4248
 2217TIP3    H128142   2.070   6.619   2.465 -0.3507 -0.4047 -1.0880
 2217TIP3    H228143   2.183   6.701   2.525  0.3961 -1.0804 -1.5530
 2218TIP3   OH228144   1.212   0.098   3.847  0.6679 -0.0189  0.2413
 2218TIP3    H128145   1.298   0.138   3.846  1.5907 -1.9142 -0.6917
 2218TIP3    H228146   1.220   0.022   3.790 -1.4193 -0.6660  0.7249
 2219TIP3   OH228147   0.527   3.567   0.845  0.1508 -0.1057  0.4824
 2219TIP3    H128148   0.608   3.616   0.862  0.5142 -0.3173 -0.5340
 2219TIP3    H228149   0.553   3.475   0.848  0.3825 -0.1573 -1.6600
 2220TIP3   OH228150   3.922   1.134   5.429 -0.5027  0.2432 -0.3252
 2220TIP3    H128151   3.916   1.161   5.521 -1.2475  0.9256 -0.5666
 2220TIP3    H228152   3.840   1.089   5.412  0.2973 -1.3237 -0.2238
 2221TIP3   OH228153   5.748   5.374  12.269  0.3210 -0.2433  0.0761
 2221TIP3    H128154   5.701   5.306  12.317  0.1170 -0.0562  0.1407
 2221TIP3    H228155   5.779   5.330  12.190  0.9968 -0.6584  0.5635
 2222TIP3   OH228156   6.510   1.183   4.625 -0.2433 -0.1672 -0.4919
 2222TIP3    H128157   6.475   1.160   4.540 -0.8124  0.8028 -0.5275
 2222TIP3    H228158   6.594   1.137   4.630  0.0794  0.2561 -1.8213
 2223TIP3   OH228159   3.031   5.682   0.098  0.3062 -0.3271 -0.1888
 2223TIP3    H128160   3.078   5.617   0.150 -0.5393 -1.0878 -0.3497
 2223TIP3    H228161   2.967   5.632   0.048 -0.9977  0.7143  0.3717
 2224TIP3   OH228162   3.332   4.834  13.738 -0.0964 -0.6468 -0.0182
 2224TIP3    H128163   3.406   4.892  13.761  0.8236 -1.5623 -0.5921
 2224TIP3    H228164   3.301   4.868  13.654  0.9803 -1.4617 -0.7681
 2225TIP3   OH228165   0.926   2.974   4.283 -0.0492 -0.3835  0.0555
 2225TIP3    H128166   0.953   2.884   4.303 -0.5398 -0.0595  2.4811
 2225TIP3    H228167   0.970   3.028   4.348 -0.4785  1.0480 -0.7931
 2226TIP3   OH228168   2.426   2.626  11.057 -0.8655 -0.4174 -0.1794
 2226TIP3    H128169   2.417   2.703  11.001 -0.5844 -0.5036 -0.3422
 2226TIP3    H228170   2.510   2.587  11.032 -1.3713 -1.2311 -0.6700
 2227TIP3   OH228171   0.479   3.701  14.547  0.3066 -0.0090  0.5803
 2227TIP3    H128172   0.478   3.795  14.531  2.0339 -0.3308 -2.1746
 2227TIP3    H228173   0.572   3.679  14.556 -0.0059 -1.5329  0.4219
 2228TIP3   OH228174   2.489   1.350  15.988  0.2025  0.3177 -0.0307
 2228TIP3    H128175   2.472   1.382  16.076 -0.5391 -1.1575  0.3975
 2228TIP3    H228176   2.580   1.371  15.971  0.4434  0.3179  1.2210
 2229TIP3   OH228177   0.729   3.756  15.893 -0.0837 -0.3928  0.2525
 2229TIP3    H128178   0.732   3.819  15.821  0.7956 -1.4804 -0.7097
 2229TIP3    H228179   0.666   3.793  15.955  0.5277  1.5063 -0.1855
 2230TIP3   OH228180   2.494   4.822  12.497 -0.3922 -1.2980  0.2067
 2230TIP3    H128181   2.545   4.757  12.447  0.7829 -0.8690  0.8213
 2230TIP3    H228182   2.418   4.840  12.441  0.2232 -1.8080 -0.8343
 2231TIP3   OH228183   2.172   6.493  11.990  0.4875  0.5561  0.4130
 2231TIP3    H128184   2.189   6.486  11.896 -0.0268  2.3476  0.1617
 2231TIP3    H228185   2.091   6.444  12.003  1.7853 -1.7737  0.3903
 2232TIP3   OH228186   1.704   2.962   1.245 -0.0833 -0.1250 -0.5557
 2232TIP3    H128187   1.722   2.895   1.310  0.5475  1.3158  0.8171
 2232TIP3    H228188   1.722   2.920   1.161  1.4303 -1.3281  0.3284
 2233TIP3   OH228189   5.437   3.138   1.805  0.1884 -0.6472  0.0529
 2233TIP3    H128190   5.464   3.098   1.887 -1.2299 -0.4139  0.6485
 2233TIP3    H228191   5.390   3.069   1.758 -1.9589  0.1564  0.9340
 2234TIP3   OH228192   6.319   5.442   0.737  0.4743 -0.0595  0.3379
 2234TIP3    H128193   6.238   5.465   0.784 -0.8995 -1.1076 -1.3708
 2234TIP3    H228194   6.367   5.387   0.798 -2.3147 -3.3084 -0.1192
 2235TIP3   OH228195   1.085   5.796  11.378 -0.1361  0.4894 -0.1066
 2235TIP3    H128196   1.018   5.807  11.446 -0.0561  1.1849 -0.1398
 2235TIP3    H228197   1.162   5.768  11.426 -0.2676  0.3193  0.0081
 2236TIP3   OH228198   2.027   0.560   2.246  0.5675 -0.1797  0.1029
 2236TIP3    H128199   1.956   0.587   2.189 -0.2112  1.2609  1.6576
 2236TIP3    H228200   2.076   0.641   2.263  1.2305 -0.7229  0.8447
 2237TIP3   OH228201   2.858   4.822   3.581  0.0320 -0.1825 -0.1310
 2237TIP3    H128202   2.763   4.828   3.587 -0.0481 -1.1079 -0.3411
 2237TIP3    H228203   2.876   4.729   3.577  0.8692  0.0088 -1.4597
 2238TIP3   OH228204   6.253   6.726   2.431  0.1849  0.5456  0.6879
 2238TIP3    H128205   6.297   6.645   2.406  1.2952  0.1963  3.4723
 2238TIP3    H228206   6.209   6.705   2.513 -2.8180  1.7427 -0.4714
 2239TIP3   OH228207   6.556   4.222   4.108  0.2321  0.0990  0.5561
 2239TIP3    H128208   6.624   4.289   4.121  0.3589 -0.0556  0.6860
 2239TIP3    H228209   6.482   4.253   4.160 -0.0832  0.6785 -0.2101
 2240TIP3   OH228210   5.317   1.927   1.822  0.2820 -0.9865 -0.7589
 2240TIP3    H128211   5.244   1.972   1.864  2.9304  2.9022  0.2594
 2240TIP3    H228212   5.279   1.846   1.787 -5.1338  1.9412 -2.8568
 2241TIP3   OH228213   4.736   2.596   4.895  0.7237 -0.2165 -0.2031
 2241TIP3    H128214   4.801   2.638   4.839  1.9325 -1.6892  0.0306
 2241TIP3    H228215   4.715   2.514   4.850  2.5278 -1.9659  1.9159
 2242TIP3   OH228216   3.894   5.687   1.500  0.2602  0.3549  0.0678
 2242TIP3    H128217   3.971   5.695   1.443  1.1455  0.6110  1.2666
 2242TIP3    H228218   3.819   5.695   1.440  1.1452  2.2415 -0.8962
 2243TIP3   OH228219   5.269   3.495   0.616 -0.0442 -0.3023  0.0106
 2243TIP3    H128220   5.255   3.589   0.626 -1.8738 -0.6362  0.9823
 2243TIP3    H228221   5.339   3.475   0.679 -0.0718  0.3056  0.2400
 2244TIP3   OH228222   4.401   4.311   1.738 -0.0660  0.1987 -0.3947
 2244TIP3    H128223   4.346   4.312   1.816 -0.4454 -3.3046 -0.4871
 2244TIP3    H228224   4.340   4.321   1.665  0.0540  1.3000 -0.3669
 2245TIP3   OH228225   6.241   1.905   1.673 -0.4064  0.6384  0.4434
 2245TIP3    H128226   6.328   1.934   1.645 -0.3158  0.5248  0.6020
 2245TIP3    H228227   6.183   1.978   1.650 -0.4316  0.3102 -0.5497
 2246TIP3   OH228228   0.403   5.679  14.055 -0.0365  0.6229 -0.3188
 2246TIP3    H128229   0.439   5.642  14.135 -0.5443  0.7100 -0.0485
 2246TIP3    H228230   0.313   5.647  14.051 -0.5177  1.8765 -0.0311
 2247TIP3   OH228231   3.981   4.745   2.004 -0.3967  0.2692 -0.4325
 2247TIP3    H128232   4.043   4.817   2.008 -0.8454  0.6183  1.1948
 2247TIP3    H228233   4.031   4.667   2.029 -0.7569  0.7103  1.9304
 2248TIP3   OH228234   3.098   1.838  15.329 -0.1645  0.1531 -0.4419
 2248TIP3    H128235   3.083   1.914  15.273  1.5394  1.0784  0.2807
 2248TIP3    H228236   3.190   1.816  15.314  0.0415 -0.2021  1.2250
 2249TIP3   OH228237   4.512   5.169   3.688  0.2328  0.4210  0.3658
 2249TIP3    H128238   4.427   5.170   3.732  0.1465  0.5298  0.1962
 2249TIP3    H228239   4.494   5.202   3.600  0.8032  2.5074  0.9621
 2250TIP3   OH228240   2.574   3.267  10.477  0.5910  0.5138 -0.1923
 2250TIP3    H128241   2.512   3.292  10.545  0.9386  0.3101  0.2077
 2250TIP3    H228242   2.535   3.298  10.396 -1.3309 -1.8524 -0.2824
 2251TIP3   OH228243   3.827   0.863   3.028  0.7517  0.8762 -0.3806
 2251TIP3    H128244   3.749   0.807   3.023 -1.0793  3.3036 -1.0330
 2251TIP3    H228245   3.896   0.805   3.061 -1.3748 -1.3314  0.5119
 2252TIP3   OH228246   3.010   1.445  10.800 -0.0991 -0.2818 -0.0286
 2252TIP3    H128247   3.004   1.530  10.756 -1.3947 -0.9453 -1.2141
 2252TIP3    H228248   3.104   1.431  10.814  0.2427  0.5994 -1.3126
 2253TIP3   OH228249   0.872   0.315   3.815  0.0552 -0.5899 -0.4318
 2253TIP3    H128250   0.792   0.320   3.763  0.2619 -0.2691 -0.7304
 2253TIP3    H228251   0.874   0.398   3.863 -0.3240 -1.0409  0.3794
 2254TIP3   OH228252   0.110   6.484  15.262 -0.1375 -0.2268  0.2604
 2254TIP3    H128253   0.146   6.407  15.219 -0.4632 -0.8428  1.0641
 2254TIP3    H228254   0.015   6.473  15.255 -0.2033  0.6897 -0.6229
 2255TIP3   OH228255   2.315   3.183  11.643  0.3599 -0.3239 -0.3148
 2255TIP3    H128256   2.355   3.207  11.726  1.2809 -0.4794 -0.7009
 2255TIP3    H228257   2.260   3.259  11.620  1.0018  0.2100 -0.1266
 2256TIP3   OH228258   4.416   3.117   5.640 -0.0539  0.6282 -0.0843
 2256TIP3    H128259   4.478   3.160   5.698 -0.6255  0.4721  0.6536
 2256TIP3    H228260   4.458   3.034   5.617  0.3910  0.9094 -0.3057
 2257TIP3   OH228261   4.818   1.400  12.841 -0.4639 -0.2931 -0.1137
 2257TIP3    H128262   4.847   1.471  12.785  0.8014 -1.4480 -0.9759
 2257TIP3    H228263   4.871   1.408  12.920 -1.3217  0.5412  0.4006
 2258TIP3   OH228264   2.671   0.508  13.530  0.2162 -0.2785  0.2833
 2258TIP3    H128265   2.749   0.518  13.585  0.4645  0.9544 -0.2299
 2258TIP3    H228266   2.598   0.505  13.591  0.6573 -1.3635  0.7724
 2259TIP3   OH228267   6.823   1.198   6.071 -0.2196 -0.6738 -0.1055
 2259TIP3    H128268   6.848   1.163   6.156  1.6636 -0.5919 -0.5760
 2259TIP3    H228269   6.871   1.281   6.064 -2.2392  0.5530 -0.2771
 2260TIP3   OH228270   3.910   4.166   2.490  0.4490 -0.2074  0.8930
 2260TIP3    H128271   3.833   4.189   2.438  0.1590  1.5168  2.0018
 2260TIP3    H228272   3.875   4.129   2.571  0.7435  0.5895  1.4058
 2261TIP3   OH228273   5.114   1.022   5.605  0.0954  0.6871  0.3947
 2261TIP3    H128274   5.077   1.032   5.693  0.5011  1.8030  0.4533
 2261TIP3    H228275   5.050   1.065   5.548 -0.5047 -0.6244  0.0409
 2262TIP3   OH228276   1.366   3.168  15.145 -0.5993  0.1846 -0.6092
 2262TIP3    H128277   1.366   3.229  15.218  0.0482  0.5407 -0.8991
 2262TIP3    H228278   1.458   3.164  15.117 -0.2419 -2.3732  0.6237
 2263TIP3   OH228279   0.171   4.581   4.877 -0.0000  0.4668 -0.4870
 2263TIP3    H128280   0.124   4.500   4.855  3.3658 -1.8627  0.0042
 2263TIP3    H228281   0.244   4.584   4.816  0.6627  2.5176  0.3167
 2264TIP3   OH228282   2.820   0.623  12.998  0.2975 -0.3866 -0.2216
 2264TIP3    H128283   2.769   0.584  13.069 -0.1853  2.1765  0.9418
 2264TIP3    H228284   2.793   0.575  12.919 -2.9770  0.0004  0.5359
 2265TIP3   OH228285   5.114   6.389  15.782 -0.1249 -0.3673  0.2961
 2265TIP3    H128286   5.027   6.422  15.759  0.1206  0.9978  1.2339
 2265TIP3    H228287   5.136   6.329  15.711 -0.8674  1.0050 -1.1660
 2266TIP3   OH228288   3.218   3.877   2.137 -0.4860 -0.5273  0.3816
 2266TIP3    H128289   3.258   3.805   2.089 -1.4216 -0.4057 -0.6027
 2266TIP3    H228290   3.201   3.943   2.071 -0.0405  0.4413  1.2055
 2267TIP3   OH228291   4.157   1.599  16.944  0.7070  0.4463  0.3519
 2267TIP3    H128292   4.232   1.602  17.004 -0.1486  1.6255  1.3978
 2267TIP3    H228293   4.137   1.691  16.926 -0.8320  0.1667  0.5334
 2268TIP3   OH228294   2.719   2.433   3.213  0.0724 -0.0831 -0.3283
 2268TIP3    H128295   2.727   2.500   3.282 -0.3407 -0.0635 -0.2928
 2268TIP3    H228296   2.776   2.362   3.242  0.9122  0.4594 -0.6188
 2269TIP3   OH228297   1.783   6.302  13.341  0.1721  0.1593  0.8839
 2269TIP3    H128298   1.774   6.359  13.265 -0.9462 -1.6001 -0.3752
 2269TIP3    H228299   1.764   6.214  13.308 -1.6549 -0.5231  3.4297
 2270TIP3   OH228300   0.295   0.792   4.007 -0.1452 -0.6416  0.5108
 2270TIP3    H128301   0.295   0.888   4.009 -1.3438 -0.5771 -0.9466
 2270TIP3    H228302   0.338   0.766   4.089  0.8234  1.1327  0.6156
 2271TIP3   OH228303   1.386   4.474   0.165  0.3781 -0.3949  0.1899
 2271TIP3    H128304   1.309   4.499   0.115  0.8258  0.1584 -0.2312
 2271TIP3    H228305   1.456   4.467   0.100  0.6294 -1.1634  0.5269
 2272TIP3   OH228306   2.940   0.748   2.447 -0.0033  0.1277  0.9266
 2272TIP3    H128307   2.951   0.671   2.392 -1.0270 -0.3873  1.4233
 2272TIP3    H228308   2.875   0.802   2.402  1.8897  1.5380 -0.2703
 2273TIP3   OH228309   2.977   3.832  16.967  0.1515  0.6185 -0.0383
 2273TIP3    H128310   2.938   3.750  16.937  0.1786  0.7410 -0.4172
 2273TIP3    H228311   2.919   3.900  16.934 -0.1656  0.7328  0.7336
 2274TIP3   OH228312   0.570   4.782  11.051  0.1845  0.0412  0.6388
 2274TIP3    H128313   0.572   4.873  11.082 -0.9766  1.0619 -1.9975
 2274TIP3    H228314   0.479   4.769  11.025  1.1510 -0.3451 -3.0407
 2275TIP3   OH228315   2.348   1.466  14.128  0.4026  0.1331 -0.8970
 2275TIP3    H128316   2.267   1.424  14.156  0.1775 -0.5155 -2.4104
 2275TIP3    H228317   2.412   1.446  14.196 -0.5558  0.1573  0.0193
 2276TIP3   OH228318   5.911   5.211   0.012 -0.0206 -0.3147  0.1830
 2276TIP3    H128319   6.005   5.232   0.008 -0.3265  0.9551 -1.5344
 2276TIP3    H228320   5.907   5.128   0.059  2.0851 -1.0352 -0.7830
 2277TIP3   OH228321   2.552   5.038  12.703 -0.0269 -0.0770 -0.3269
 2277TIP3    H128322   2.641   5.049  12.670 -0.5528  0.8636 -1.5005
 2277TIP3    H228323   2.502   5.008  12.628 -0.9789  0.7682 -0.0566
 2278TIP3   OH228324   2.270   2.495  14.522  0.4487  0.4815 -0.3815
 2278TIP3    H128325   2.363   2.516  14.522  0.7323 -0.6405  1.1358
 2278TIP3    H228326   2.257   2.444  14.443  1.1747  0.4287 -0.4745
 2279TIP3   OH228327   1.537   6.012   1.427 -0.3786  0.0026 -0.2947
 2279TIP3    H128328   1.492   6.005   1.511  1.1345  1.6516  0.7408
 2279TIP3    H228329   1.501   5.941   1.374 -0.1286 -2.2549  2.3333
 2280TIP3   OH228330   3.330   5.452  12.031 -0.1375 -0.1616 -0.1527
 2280TIP3    H128331   3.397   5.494  12.085 -1.0234 -0.1805  0.9830
 2280TIP3    H228332   3.324   5.508  11.954  1.6344 -0.5112 -0.5938
 2281TIP3   OH228333   0.957   2.741   3.394  0.5467 -0.3881  0.0035
 2281TIP3    H128334   0.959   2.830   3.359  0.0248 -0.5000 -0.3308
 2281TIP3    H228335   0.899   2.746   3.470 -1.0174 -0.7983 -1.1064
 2282TIP3   OH228336   5.314   0.925  13.145 -0.2960 -0.0792 -0.3729
 2282TIP3    H128337   5.242   0.975  13.107 -1.8033 -3.2758 -2.1427
 2282TIP3    H228338   5.378   0.919  13.074  0.6150  0.5827  0.3592
 2283TIP3   OH228339   4.288   3.309   2.002 -0.0782  0.3297 -0.1524
 2283TIP3    H128340   4.218   3.343   1.946  0.3463  2.1906  0.3936
 2283TIP3    H228341   4.356   3.377   1.999  0.3417  0.0392  1.8738
 2284TIP3   OH228342   6.644   2.540   1.879 -0.0050  0.3569 -0.2314
 2284TIP3    H128343   6.609   2.452   1.894  0.4723  0.4872  1.8482
 2284TIP3    H228344   6.567   2.592   1.856 -1.1081  0.3428  2.9560
 2285TIP3   OH228345   1.495   3.172  13.312 -0.3307  0.2247 -0.0609
 2285TIP3    H128346   1.588   3.195  13.317 -0.4017  0.2636  2.1984
 2285TIP3    H228347   1.493   3.090  13.262  0.8445  0.4793 -0.5643
 2286TIP3   OH228348   2.573   2.805  17.296 -0.2353  0.3644  0.7653
 2286TIP3    H128349   2.553   2.851  17.215 -1.2753 -1.2920  0.0338
 2286TIP3    H228350   2.545   2.865  17.365 -1.1440  1.0112 -0.1404
 2287TIP3   OH228351   5.594   3.621  12.194  0.0029  0.0150 -0.0734
 2287TIP3    H128352   5.635   3.606  12.279  0.2486 -0.3151 -0.2489
 2287TIP3    H228353   5.667   3.639  12.135 -0.2276  1.2941 -0.0096
 2288TIP3   OH228354   3.142   4.707  14.799 -0.7203  0.5010  0.4788
 2288TIP3    H128355   3.082   4.725  14.871 -3.1248  1.7093 -1.6424
 2288TIP3    H228356   3.180   4.792  14.777  1.9919 -0.2514  1.8272
 2289TIP3   OH228357   4.613   4.379  11.048 -0.3332 -0.0696  0.3554
 2289TIP3    H128358   4.641   4.453  10.994  0.5706  0.0533  0.9700
 2289TIP3    H228359   4.549   4.333  10.994 -2.1247  2.0413  0.5374
 2290TIP3   OH228360   5.689   3.506   4.049  0.1026 -0.5562  0.1823
 2290TIP3    H128361   5.618   3.443   4.034  0.8183 -1.4695  0.5149
 2290TIP3    H228362   5.653   3.590   4.021 -0.7385 -1.1797 -0.6682
 2291TIP3   OH228363   6.426   3.143  16.384  0.5637 -0.5065  0.0342
 2291TIP3    H128364   6.467   3.226  16.362  0.4542 -0.4984 -0.1439
 2291TIP3    H228365   6.335   3.153  16.355  1.1059 -1.5576 -2.2681
 2292TIP3   OH228366   3.572   1.271  14.516  0.3421 -0.0268  0.5398
 2292TIP3    H128367   3.498   1.214  14.538 -1.8180  2.1176 -0.6725
 2292TIP3    H228368   3.551   1.354  14.558  1.0809  1.1869 -1.3947
 2293TIP3   OH228369   3.919   6.429  14.328 -0.1520 -0.4116  0.6636
 2293TIP3    H128370   3.882   6.358  14.276  0.4615 -3.2963  3.7559
 2293TIP3    H228371   4.005   6.445  14.289  0.0934 -2.1166  0.4072
 2294TIP3   OH228372   2.541   3.484   2.269 -0.4355  0.1097  0.1033
 2294TIP3    H128373   2.551   3.460   2.361  0.4189  0.0620 -0.0010
 2294TIP3    H228374   2.600   3.559   2.257 -0.7550  0.2932 -0.3379
 2295TIP3   OH228375   2.542   2.697   3.584  0.0838 -0.1215  0.8860
 2295TIP3    H128376   2.599   2.665   3.514 -0.9561 -1.4633  0.6196
 2295TIP3    H228377   2.566   2.789   3.594  1.4663 -0.3504 -0.0155
 2296TIP3   OH228378   6.348   5.189   5.036 -0.1414 -0.0319 -0.1178
 2296TIP3    H128379   6.263   5.191   4.993  0.1478 -2.2125 -0.9289
 2296TIP3    H228380   6.405   5.242   4.980 -0.4255 -0.5516 -0.9162
 2297TIP3   OH228381   0.184   0.939  16.271 -0.0530 -0.2939  0.1573
 2297TIP3    H128382   0.219   1.020  16.235  1.8337 -1.3628 -0.5424
 2297TIP3    H228383   0.175   0.956  16.365  1.3553  0.3992  0.1901
 2298TIP3   OH228384   4.560   6.188  16.983 -0.3500  0.5282 -0.1660
 2298TIP3    H128385   4.535   6.186  17.075 -0.9268  0.8983 -0.3136
 2298TIP3    H228386   4.493   6.136  16.938  0.0017  0.2389 -0.3618
 2299TIP3   OH228387   3.114   2.509  15.678 -0.2152 -0.0132 -0.3114
 2299TIP3    H128388   3.191   2.515  15.734 -0.6737  0.6126  0.2791
 2299TIP3    H228389   3.067   2.432  15.711 -1.2256  1.1674  1.1846
 2300TIP3   OH228390   1.835   1.061   1.851  0.0886  0.2371 -0.2413
 2300TIP3    H128391   1.820   1.118   1.927 -2.2979 -0.7767  0.1446
 2300TIP3    H228392   1.894   0.993   1.884 -1.8984 -0.9152  1.2183
 2301TIP3   OH228393   0.346   5.462   2.110 -1.0599 -0.2255 -0.1312
 2301TIP3    H128394   0.375   5.528   2.174 -1.1075 -0.8884  0.5792
 2301TIP3    H228395   0.424   5.408   2.095 -1.1483 -0.2859 -0.3795
 2302TIP3   OH228396   5.061   5.558  13.558  0.8300 -0.0129 -0.0176
 2302TIP3    H128397   5.150   5.540  13.590  1.1178  0.3414 -0.6015
 2302TIP3    H228398   5.044   5.648  13.583  0.8927  0.1301 -0.4822
 2303TIP3   OH228399   4.757   4.470   2.369 -0.8276  0.5624 -0.6654
 2303TIP3    H128400   4.709   4.444   2.447  0.7697 -0.2601  0.0791
 2303TIP3    H228401   4.733   4.405   2.303 -0.9527  0.3294 -0.3908
 2304TIP3   OH228402   3.000   3.605  14.255 -0.1174 -0.7273 -0.0241
 2304TIP3    H128403   2.947   3.631  14.180 -2.5245 -1.1577  1.4044
 2304TIP3    H228404   2.949   3.535  14.297  2.1377 -1.9221  0.8786
 2305TIP3   OH228405   2.269   1.043  13.313  0.8715 -0.1795 -0.0648
 2305TIP3    H128406   2.282   0.971  13.374 -1.3631 -1.2070 -0.7169
 2305TIP3    H228407   2.250   1.000  13.229  1.5489  1.1897 -0.9511
 2306TIP3   OH228408   2.798   3.121   2.035 -0.4003  0.0775 -0.0476
 2306TIP3    H128409   2.742   3.199   2.034  1.3164  1.3673 -0.5500
 2306TIP3    H228410   2.745   3.053   1.995 -2.0341  0.9136  0.6088
 2307TIP3   OH228411   3.486   6.733   3.346  0.7842  0.4006 -0.0922
 2307TIP3    H128412   3.521   6.676   3.415 -1.8848 -2.8908 -1.2231
 2307TIP3    H228413   3.561   6.750   3.289  1.7258 -2.0409  0.3019
 2308TIP3   OH228414   2.717   3.004   3.608  0.3745 -0.0247  0.3550
 2308TIP3    H128415   2.754   3.090   3.585 -0.8857  0.4522  0.0137
 2308TIP3    H228416   2.636   3.025   3.654 -0.6972 -1.0261 -1.0023
 2309TIP3   OH228417   5.038   3.227   1.124 -0.2314  1.1961  0.3151
 2309TIP3    H128418   5.105   3.239   1.056  1.1016 -0.2472  1.3138
 2309TIP3    H228419   5.073   3.272   1.201  0.1123 -0.4659  1.1560
 2310TIP3   OH228420   5.640   2.975  17.223  0.8084  0.0152  0.4530
 2310TIP3    H128421   5.703   2.990  17.293 -0.9432 -0.7024  2.2782
 2310TIP3    H228422   5.590   2.898  17.251 -0.4737  0.1718 -1.2127
 2311TIP3   OH228423   0.407   4.538  16.942 -0.1429 -0.2646  0.0159
 2311TIP3    H128424   0.347   4.465  16.925 -1.4991  1.0248 -1.0797
 2311TIP3    H228425   0.369   4.611  16.894  1.9769  0.8065 -0.1248
 2312TIP3   OH228426   3.008   2.350   5.793 -0.3941  0.1058  0.0480
 2312TIP3    H128427   3.000   2.445   5.805 -0.3336  0.0706  0.3839
 2312TIP3    H228428   2.987   2.314   5.879 -3.2179 -0.3381 -0.7284
 2313TIP3   OH228429   1.566   6.774   3.948  0.3693  0.0767 -0.1254
 2313TIP3    H128430   1.633   6.707   3.965  0.5818 -0.0607 -1.4044
 2313TIP3    H228431   1.594   6.816   3.867  0.6430  2.2524  1.0281
 2314TIP3   OH228432   4.435   4.428   5.047 -0.3661  0.1278 -0.8342
 2314TIP3    H128433   4.495   4.423   4.972 -1.6352 -1.3928 -1.8177
 2314TIP3    H228434   4.384   4.507   5.032  0.2626  0.5277 -0.8881
 2315TIP3   OH228435   4.584   4.270  17.251  0.0278  0.7470 -0.8245
 2315TIP3    H128436   4.537   4.215  17.314  0.4110  0.2343 -0.9736
 2315TIP3    H228437   4.523   4.339  17.228  0.2170  1.5663  0.9078
 2316TIP3   OH228438   0.200   2.046  14.908 -0.9680 -0.7500 -0.0188
 2316TIP3    H128439   0.182   2.092  14.990  0.0104 -0.9254  0.3065
 2316TIP3    H228440   0.114   2.020  14.876 -1.3446 -1.1253  1.2193
 2317TIP3   OH228441   2.182   3.509  17.171  0.2112 -0.1385 -0.1861
 2317TIP3    H128442   2.170   3.484  17.080 -0.3441 -1.3614  0.2135
 2317TIP3    H228443   2.189   3.605  17.169 -0.6556 -0.0884 -1.4061
 2318TIP3   OH228444   6.676   0.255  11.640  0.1680  0.4451  0.0428
 2318TIP3    H128445   6.766   0.229  11.662 -0.5974 -1.2772  1.4261
 2318TIP3    H228446   6.642   0.294  11.720 -0.8218 -0.4308  0.0662
 2319TIP3   OH228447   1.719   1.910   2.276 -0.1622  0.0309  0.0154
 2319TIP3    H128448   1.785   1.979   2.278  0.8686 -0.9432  0.5502
 2319TIP3    H228449   1.736   1.858   2.355 -2.5320  0.6212  0.9919
 2320TIP3   OH228450   4.721   4.409   3.145 -0.3257  0.1148 -0.3489
 2320TIP3    H128451   4.676   4.413   3.229 -0.5344  0.6918 -0.4848
 2320TIP3    H228452   4.763   4.494   3.136 -2.5992  1.1567 -2.0758
 2321TIP3   OH228453   0.967   6.738  16.564  0.3006  0.1990 -0.3201
 2321TIP3    H128454   0.965   6.719  16.470  1.7106 -1.5587 -0.0621
 2321TIP3    H228455   0.891   6.793  16.579 -1.3125 -1.3914 -2.1013
 2322TIP3   OH228456   2.446   5.109  12.371  0.4271 -0.7329  0.8834
 2322TIP3    H128457   2.401   5.026  12.352 -1.4851  0.2599  0.8794
 2322TIP3    H228458   2.383   5.177  12.347  1.9801  0.7547  0.8236
 2323TIP3   OH228459   1.040   5.081   1.610 -0.5375  0.2204  0.5151
 2323TIP3    H128460   1.097   5.130   1.669  1.5044 -0.2578 -0.9433
 2323TIP3    H228461   1.012   5.145   1.544  0.1549 -0.0000 -0.0118
 2324TIP3   OH228462   5.145   1.665  15.656  0.1427 -0.2697 -0.1775
 2324TIP3    H128463   5.119   1.588  15.707 -1.9436  1.5546  1.7122
 2324TIP3    H228464   5.070   1.724  15.661  1.6315  1.9018 -1.6023
 2325TIP3   OH228465   0.940   4.806  15.750 -0.1492 -0.1242 -0.2905
 2325TIP3    H128466   1.023   4.850  15.768 -0.1420  1.1129 -2.9407
 2325TIP3    H228467   0.928   4.747  15.824  4.4764 -2.4215 -0.9849
 2326TIP3   OH228468   5.858   0.785  10.443 -0.2416  0.6722 -0.0398
 2326TIP3    H128469   5.890   0.852  10.504 -0.0695  0.2669  0.3212
 2326TIP3    H228470   5.896   0.703  10.476 -2.3657  0.0120  0.9467
 2327TIP3   OH228471   3.197   5.318   1.731 -0.3899 -0.0762  0.6783
 2327TIP3    H128472   3.212   5.409   1.757 -1.5830  0.0906  0.8204
 2327TIP3    H228473   3.171   5.273   1.811 -2.2896  0.0376  0.1718
 2328TIP3   OH228474   3.736   0.293  15.402 -0.4833  0.3467 -0.2341
 2328TIP3    H128475   3.795   0.368  15.394  1.9041 -1.4379 -0.6121
 2328TIP3    H228476   3.654   0.329  15.436  1.3247  2.7683  1.8998
 2329TIP3   OH228477   3.883   1.815   5.374 -0.5235 -0.0423  0.3217
 2329TIP3    H128478   3.978   1.832   5.378  0.3709 -3.9062 -0.6943
 2329TIP3    H228479   3.843   1.899   5.399  3.1262  1.6401  1.2410
 2330TIP3   OH228480   3.262   4.702  13.107 -0.3142 -0.4261  0.4801
 2330TIP3    H128481   3.341   4.697  13.053  1.1268  0.7897  2.3245
 2330TIP3    H228482   3.230   4.792  13.096 -1.3198 -0.8346 -0.0522
 2331TIP3   OH228483   4.934   1.280  14.054  0.1531  0.2836 -0.4219
 2331TIP3    H128484   5.004   1.292  14.118  0.5594  0.7314 -0.9460
 2331TIP3    H228485   4.907   1.369  14.030 -0.3311  0.1187 -0.5162
 2332TIP3   OH228486   2.383   3.468   3.328  0.4717  0.1885 -0.2234
 2332TIP3    H128487   2.301   3.457   3.279 -0.7624 -0.5246  1.8771
 2332TIP3    H228488   2.438   3.396   3.297 -0.1884 -0.1271 -0.6977
 2333TIP3   OH228489   4.611   2.920  11.296  0.2106  0.0268  0.1621
 2333TIP3    H128490   4.700   2.915  11.329 -0.3636  0.6056  1.9249
 2333TIP3    H228491   4.557   2.881  11.365 -1.0294  0.9906 -0.2214
 2334TIP3   OH228492   4.367   0.091   0.152  0.5631  0.0352  0.0522
 2334TIP3    H128493   4.276   0.107   0.128  0.3936  1.3320  1.4542
 2334TIP3    H228494   4.408   0.059   0.071 -0.5059  1.9648 -1.3241
 2335TIP3   OH228495   2.741   5.309   2.318 -0.2623  0.2383  0.7004
 2335TIP3    H128496   2.743   5.404   2.330 -2.3793  0.6233 -1.3173
 2335TIP3    H228497   2.765   5.296   2.227  0.7489 -1.2778  1.1410
 2336TIP3   OH228498   4.304   1.228   6.188 -0.1339  0.2110 -0.3510
 2336TIP3    H128499   4.341   1.168   6.123 -1.4901 -1.4539  0.3263
 2336TIP3    H228500   4.333   1.193   6.272 -0.3203  0.9620  0.0295
 2337TIP3   OH228501   2.198   5.447  12.643  0.0061 -0.1239  0.2481
 2337TIP3    H128502   2.266   5.441  12.710 -0.7832  0.2857  1.1077
 2337TIP3    H228503   2.120   5.477  12.691 -1.0423 -1.5034 -0.5149
 2338TIP3   OH228504   1.566   1.246  16.710 -0.4736  0.7459  0.5369
 2338TIP3    H128505   1.572   1.172  16.649 -2.8336  1.0613 -0.1878
 2338TIP3    H228506   1.626   1.224  16.781  0.8947 -0.5657 -0.9439
 2339TIP3   OH228507   4.087   3.469  16.354 -0.4038 -0.1299 -0.0349
 2339TIP3    H128508   4.111   3.438  16.266  1.0243 -0.6905  0.5366
 2339TIP3    H228509   4.051   3.392  16.398  2.1879 -0.8207  1.0351
 2340TIP3   OH228510   1.599   5.902   1.028 -0.7221  0.0152  0.7711
 2340TIP3    H128511   1.542   5.826   1.016 -1.6224  1.0206 -2.2069
 2340TIP3    H228512   1.543   5.977   1.009  1.3212  1.0837 -1.7432
 2341TIP3   OH228513   5.831   4.149  12.901 -0.3421  0.2568  0.0445
 2341TIP3    H128514   5.899   4.189  12.846 -0.6648  0.6775 -0.0603
 2341TIP3    H228515   5.750   4.194  12.874 -0.4190  0.8820  1.2575
 2342TIP3   OH228516   0.903   6.289  11.715 -0.0172  1.0221 -0.3291
 2342TIP3    H128517   0.892   6.220  11.650  2.0783  1.1685 -0.8998
 2342TIP3    H228518   0.817   6.329  11.723 -1.1373 -1.1945 -0.4795
 2343TIP3   OH228519   0.306   2.823   3.127 -0.1624  0.4524 -0.0296
 2343TIP3    H128520   0.361   2.865   3.193  2.0122  0.3324 -1.6308
 2343TIP3    H228521   0.269   2.895   3.077  1.2254  0.5662 -0.9584
 2344TIP3   OH228522   4.886   3.218   5.186 -0.0746  0.8658  0.3085
 2344TIP3    H128523   4.923   3.295   5.229  0.7706  0.8326 -0.3206
 2344TIP3    H228524   4.963   3.167   5.158 -0.6139  0.1529  0.0924
 2345TIP3   OH228525   5.213   1.765  13.893 -0.2761 -0.1003 -0.2129
 2345TIP3    H128526   5.166   1.689  13.928  0.5287 -0.6054 -0.2028
 2345TIP3    H228527   5.273   1.791  13.963  0.2654 -0.1739 -0.6433
 2346TIP3   OH228528   4.686   1.678  16.873 -0.0670 -0.6139 -0.4444
 2346TIP3    H128529   4.634   1.686  16.953 -0.4514 -0.5750 -0.6931
 2346TIP3    H228530   4.717   1.587  16.874 -1.8147 -1.2773 -1.2823
 2347TIP3   OH228531   2.638   6.705   2.816  0.7465 -0.0632 -0.3603
 2347TIP3    H128532   2.670   6.692   2.727  0.2316 -0.3904 -0.5051
 2347TIP3    H228533   2.571   6.773   2.808  0.5460 -0.2440 -0.2687
 2348TIP3   OH228534   2.061   4.593  14.952  0.5557  0.3089 -0.1324
 2348TIP3    H128535   2.102   4.670  14.991  1.8630 -1.7537  2.9314
 2348TIP3    H228536   1.982   4.579  15.005  1.5890 -1.7385  0.9709
 2349TIP3   OH228537   0.452   5.821   1.932  0.2171  1.0172  0.2536
 2349TIP3    H128538   0.458   5.811   2.027 -0.6078  1.0313  0.3191
 2349TIP3    H228539   0.368   5.865   1.919 -0.0038  0.3733 -0.5288
 2350TIP3   OH228540   5.410   6.730  15.468  0.1120 -0.2275  0.5486
 2350TIP3    H128541   5.429   6.795  15.535  0.1984 -0.5498  0.8421
 2350TIP3    H228542   5.341   6.675  15.506 -1.3010  0.7988 -0.4195
 2351TIP3   OH228543   1.594   5.156   5.246  0.0243 -0.4476 -0.6241
 2351TIP3    H128544   1.664   5.115   5.196  0.0026 -0.8454 -0.3339
 2351TIP3    H228545   1.599   5.115   5.333 -1.9536 -2.1030 -1.2384
 2352TIP3   OH228546   2.808   5.977  15.112  0.1514  0.3240  0.2927
 2352TIP3    H128547   2.843   5.893  15.079  1.6490  0.8747  0.3776
 2352TIP3    H228548   2.753   5.952  15.186 -1.0614 -0.7220 -0.8996
 2353TIP3   OH228549   5.199   0.589  11.953 -0.4097 -0.0720 -0.0068
 2353TIP3    H128550   5.156   0.546  12.027 -2.3534  2.0343  0.1956
 2353TIP3    H228551   5.287   0.609  11.985 -0.9302  0.0359  1.4340
 2354TIP3   OH228552   3.838   1.143  13.421  0.5462 -0.4109 -0.4199
 2354TIP3    H128553   3.925   1.165  13.390  0.5824  0.1227  0.0486
 2354TIP3    H228554   3.848   1.058  13.465  1.6256  1.2487  2.8860
 2355TIP3   OH228555   3.423   0.243   1.495 -0.0779 -0.3770  0.1829
 2355TIP3    H128556   3.454   0.187   1.424 -2.3792  2.9583 -3.9122
 2355TIP3    H228557   3.498   0.298   1.517  0.7199 -1.5829  0.5887
 2356TIP3   OH228558   2.998   0.797  13.968 -0.2384 -0.0976  0.0400
 2356TIP3    H128559   2.913   0.815  14.009  0.6552  2.0539  1.0915
 2356TIP3    H228560   3.044   0.744  14.033 -0.7204 -1.2641 -0.5302
 2357TIP3   OH228561   2.122   3.493  12.892 -0.2297  0.1172 -0.1160
 2357TIP3    H128562   2.128   3.582  12.927  0.0778 -0.0324  0.2257
 2357TIP3    H228563   2.183   3.491  12.818  0.1119  0.0614  0.1641
 2358TIP3   OH228564   5.437   2.208  10.613 -0.0545  0.1358  0.0304
 2358TIP3    H128565   5.434   2.213  10.517 -0.2917  0.6648  0.0630
 2358TIP3    H228566   5.513   2.262  10.637  0.7250 -0.9414  0.0822
 2359TIP3   OH228567   1.713   5.548   3.987  0.1017 -0.2388 -0.3288
 2359TIP3    H128568   1.654   5.609   4.032  0.0479 -0.2817 -0.3416
 2359TIP3    H228569   1.731   5.591   3.903  0.4617 -0.0049 -0.1368
 2360TIP3   OH228570   4.614   2.996   4.700  0.2755 -0.1426  0.1891
 2360TIP3    H128571   4.648   3.032   4.782 -0.6814 -0.1724  0.6134
 2360TIP3    H228572   4.692   2.973   4.650  0.9029  1.6910  0.2597
 2361TIP3   OH228573   2.905   2.178   5.618  0.3121 -0.5849  0.5602
 2361TIP3    H128574   2.984   2.124   5.615  0.0660 -0.9830  1.0444
 2361TIP3    H228575   2.928   2.252   5.674  0.5985 -0.2686  0.0307
 2362TIP3   OH228576   2.198   4.073   0.238 -0.0020  0.7519 -0.0499
 2362TIP3    H128577   2.213   4.063   0.144  0.6628  0.9016  0.0316
 2362TIP3    H228578   2.283   4.053   0.277 -0.5316 -0.3311  0.5943
 2363TIP3   OH228579   0.428   6.706  15.472  0.1157  0.1310  0.6485
 2363TIP3    H128580   0.476   6.624  15.457  0.3366 -0.0540  2.1627
 2363TIP3    H228581   0.342   6.678  15.504 -1.2825  0.4455 -2.4893
 2364TIP3   OH228582   0.418   2.759  15.838 -0.7167 -0.4244 -0.3638
 2364TIP3    H128583   0.481   2.795  15.900  0.2709 -0.6669 -1.1937
 2364TIP3    H228584   0.388   2.835  15.787  0.0663 -0.5262 -0.9803
 2365TIP3   OH228585   5.771   5.011  14.267 -0.2294 -0.5105  0.0475
 2365TIP3    H128586   5.782   4.985  14.359 -1.0226  0.2903  0.3798
 2365TIP3    H228587   5.680   4.990  14.247 -0.4690  0.6205 -0.1200
 2366TIP3   OH228588   3.431   1.167  16.092  0.3155 -0.5931  0.6762
 2366TIP3    H128589   3.442   1.163  15.997 -0.0657 -0.8886  0.6419
 2366TIP3    H228590   3.337   1.157  16.106  0.4123 -0.9375  1.1069
 2367TIP3   OH228591   4.704   6.314  14.496  0.1400  0.2533 -0.2281
 2367TIP3    H128592   4.610   6.299  14.485  0.4557 -2.1326 -0.2781
 2367TIP3    H228593   4.710   6.394  14.548 -1.8453  1.4550 -1.6752
 2368TIP3   OH228594   5.716   2.032  16.060 -0.6800  0.2650 -0.4689
 2368TIP3    H128595   5.795   2.012  16.109 -0.8830 -1.4169 -0.7792
 2368TIP3    H228596   5.741   2.106  16.004  0.5278  0.0322 -0.2657
 2369TIP3   OH228597   2.971   0.329  17.165 -0.0280 -0.5246 -0.1621
 2369TIP3    H128598   3.006   0.246  17.133 -2.2291 -1.1805 -1.0595
 2369TIP3    H228599   2.879   0.329  17.137 -0.3429  1.7996  0.6348
 2370TIP3   OH228600   5.981   5.327  11.697 -0.0613 -0.2624 -0.3906
 2370TIP3    H128601   6.052   5.279  11.655 -1.0824 -0.7721 -1.5762
 2370TIP3    H228602   5.902   5.303  11.648 -1.3963 -1.1780  2.0387
 2371TIP3   OH228603   2.458   2.671   4.623  0.0282  0.0267  0.3744
 2371TIP3    H128604   2.443   2.636   4.710 -2.4915  0.3252  0.1317
 2371TIP3    H228605   2.454   2.595   4.565  0.2464  0.0169  0.3700
 2372TIP3   OH228606   0.598   2.589  16.477 -0.5908  0.5179  0.4006
 2372TIP3    H128607   0.508   2.618  16.491 -0.1940  2.1547 -0.1799
 2372TIP3    H228608   0.599   2.498  16.507 -2.6020  0.2324 -0.2163
 2373TIP3   OH228609   0.069   3.352   3.696  0.4917  0.3747 -0.6214
 2373TIP3    H128610  -0.000   3.388   3.751 -0.6943 -1.6687 -0.6572
 2373TIP3    H228611   0.125   3.304   3.757  1.8928  1.9434 -0.6069
 2374TIP3   OH228612   3.085   5.008  11.300 -0.1482 -0.1064  0.1253
 2374TIP3    H128613   3.115   5.038  11.386 -0.2463  0.8121 -0.1453
 2374TIP3    H228614   3.091   4.913  11.303 -1.4185 -0.1708  1.6154
 2375TIP3   OH228615   5.067   3.682  11.396  0.5656  0.2599  0.0231
 2375TIP3    H128616   4.997   3.617  11.398  0.0183  0.8499  1.6958
 2375TIP3    H228617   5.051   3.733  11.317 -1.0710  0.5460  0.5138
 2376TIP3   OH228618   3.588   6.281   4.357  0.2925 -0.3561 -0.3491
 2376TIP3    H128619   3.671   6.250   4.394  0.7831  0.9041 -0.3388
 2376TIP3    H228620   3.573   6.365   4.400 -0.4842 -0.1085 -1.0845
 2377TIP3   OH228621   1.375   2.968  16.106  0.1895  0.1524 -0.6047
 2377TIP3    H128622   1.293   2.977  16.154 -0.1356 -1.2624 -0.8708
 2377TIP3    H228623   1.385   3.051  16.059 -0.8608  0.4972 -0.2314
 2378TIP3   OH228624   2.035   6.206   2.448 -0.3922  0.0161 -0.2786
 2378TIP3    H128625   1.963   6.152   2.416 -0.4341  0.0535 -0.2477
 2378TIP3    H228626   2.041   6.186   2.541  1.6259 -2.2944 -0.8367
 2379TIP3   OH228627   4.720   4.428   4.164  0.4557 -0.1012  0.2111
 2379TIP3    H128628   4.730   4.440   4.259 -1.1480 -1.8931  0.6602
 2379TIP3    H228629   4.784   4.361   4.142  0.2112 -0.3219  0.1791
 2380TIP3   OH228630   6.237   0.614  13.504  0.6583  0.6283  0.0984
 2380TIP3    H128631   6.275   0.530  13.477  0.9431 -0.4901  3.4533
 2380TIP3    H228632   6.153   0.590  13.543 -0.3591  2.2516 -1.0014
 2381TIP3   OH228633   3.743   6.332   1.729  0.0187  0.4530  0.6261
 2381TIP3    H128634   3.770   6.242   1.710 -0.4125 -0.0324  2.1802
 2381TIP3    H228635   3.743   6.375   1.643 -0.8369 -1.3077 -0.3331
 2382TIP3   OH228636   1.921   0.309   4.277  0.1770  0.0284  0.2652
 2382TIP3    H128637   1.925   0.331   4.184  0.0099 -0.4158  0.1523
 2382TIP3    H228638   1.841   0.353   4.308 -0.4427 -0.8217 -0.0769
 2383TIP3   OH228639   6.200   2.996   5.338 -0.6756 -0.4502  0.1891
 2383TIP3    H128640   6.248   3.075   5.363 -1.6337  0.6721 -1.4093
 2383TIP3    H228641   6.193   3.001   5.243 -2.7178 -1.2967  0.2507
 2384TIP3   OH228642   0.923   2.758  13.361  0.1595 -0.3918 -0.0370
 2384TIP3    H128643   0.834   2.769  13.395 -1.0505 -0.5257 -2.8585
 2384TIP3    H228644   0.911   2.749  13.267  3.4038  2.5866 -0.9359
 2385TIP3   OH228645   0.345   6.761  11.075  0.2027 -0.0889  0.1057
 2385TIP3    H128646   0.287   6.756  11.151  0.2586 -0.4888  0.1250
 2385TIP3    H228647   0.285   6.764  11.000  0.1325 -2.2713  0.0146
 2386TIP3   OH228648   4.068   0.310  17.312 -0.1029 -0.2230  0.1347
 2386TIP3    H128649   4.053   0.218  17.290  0.9145  0.0281 -1.9111
 2386TIP3    H228650   4.159   0.326  17.287  0.1020  1.0663  1.5703
 2387TIP3   OH228651   1.042   0.745   0.219  0.5636 -0.3584 -0.0297
 2387TIP3    H128652   1.050   0.653   0.196  2.7586  0.4799 -3.3127
 2387TIP3    H228653   0.954   0.770   0.193  0.8638 -0.9797 -1.7424
 2388TIP3   OH228654   0.591   3.418  13.929  0.6126  0.2459  0.4783
 2388TIP3    H128655   0.650   3.494  13.926  2.8238 -1.2820  1.9221
 2388TIP3    H228656   0.620   3.363  13.856 -1.2366  0.8818 -0.8032
 2389TIP3   OH228657   4.080   2.518   4.386  0.1374  0.0905 -0.1649
 2389TIP3    H128658   4.149   2.540   4.324  0.2429  0.7836  0.1922
 2389TIP3    H228659   4.124   2.467   4.454  0.0007 -0.7678 -0.6995
 2390TIP3   OH228660   5.943   1.219   4.462 -0.0668 -0.0490 -0.1528
 2390TIP3    H128661   5.899   1.266   4.533  0.9604  0.3760  0.2295
 2390TIP3    H228662   6.012   1.278   4.434  2.5701 -1.9874  1.6583
 2391TIP3   OH228663   3.079   4.159  15.039  0.0865  0.4487 -0.0555
 2391TIP3    H128664   3.038   4.202  14.964 -3.8473 -1.2473  0.8635
 2391TIP3    H228665   3.108   4.074  15.005  0.6963  0.7094 -0.1941
 2392TIP3   OH228666   4.643   6.009   0.466 -0.1368 -0.5791 -0.2731
 2392TIP3    H128667   4.643   6.059   0.384  1.0482  0.8248  0.5240
 2392TIP3    H228668   4.559   6.031   0.507  0.9585  2.1633  0.7813
 2393TIP3   OH228669   6.657   2.769  17.188 -0.0851  0.1794 -0.1980
 2393TIP3    H128670   6.650   2.827  17.112 -0.7733  1.3656  0.7271
 2393TIP3    H228671   6.639   2.681  17.153  0.1080  0.6277 -1.4816
 2394TIP3   OH228672   0.647   5.782  13.948 -0.1260 -0.6561 -0.7279
 2394TIP3    H128673   0.560   5.745  13.963  0.0221 -0.1532  1.8358
 2394TIP3    H228674   0.637   5.835  13.869 -2.2452 -0.3539 -0.3186
 2395TIP3   OH228675   3.189   1.773   1.373 -0.4380  0.1845 -0.1231
 2395TIP3    H128676   3.280   1.762   1.400 -1.0068  0.8503  2.2644
 2395TIP3    H228677   3.190   1.757   1.278  2.1934  0.5465 -0.2220
 2396TIP3   OH228678   5.185   1.391   6.251 -0.2960 -0.4645  0.0785
 2396TIP3    H128679   5.181   1.331   6.326  0.4895 -0.4377  0.1486
 2396TIP3    H228680   5.138   1.469   6.281 -2.9513 -1.6678 -0.6468
 2397TIP3   OH228681   3.900   5.724  12.690 -0.2072  0.4936 -0.4017
 2397TIP3    H128682   3.906   5.768  12.776  0.3745 -0.2701 -0.0363
 2397TIP3    H228683   3.974   5.663  12.690 -0.4229  0.2241 -1.3062
 2398TIP3   OH228684   4.080   2.435   5.406 -0.2894 -0.0265 -0.4267
 2398TIP3    H128685   4.095   2.417   5.313  1.7625 -0.9396  0.0322
 2398TIP3    H228686   4.047   2.352   5.441  1.2504 -0.4406  0.0998
 2399TIP3   OH228687   3.522   0.077   6.251  0.1552 -0.0088  0.0017
 2399TIP3    H128688   3.588   0.125   6.201  0.0300  0.5660  0.3790
 2399TIP3    H228689   3.506   0.132   6.328  0.3754 -0.8978  0.6967
 2400TIP3   OH228690   2.370   3.661  15.928 -0.2123  0.0756 -0.6027
 2400TIP3    H128691   2.437   3.642  15.994 -0.2080  1.1345 -0.2893
 2400TIP3    H228692   2.369   3.583  15.872 -1.1213 -1.4471  1.3844
 2401TIP3   OH228693   4.635   6.577   4.051  0.3693  0.5002 -0.5932
 2401TIP3    H128694   4.729   6.585   4.070  0.0603  2.5253  0.3335
 2401TIP3    H228695   4.632   6.551   3.959  1.8705  1.5405 -0.9858
 2402TIP3   OH228696   3.118   4.173   0.461  0.2057 -0.9927 -0.5975
 2402TIP3    H128697   3.169   4.244   0.422  1.1186 -2.0860 -1.4808
 2402TIP3    H228698   3.185   4.112   0.494 -0.5578 -1.1426  0.7354
 2403TIP3   OH228699   3.503   2.457   2.961 -0.5692 -0.1467  0.2441
 2403TIP3    H128700   3.540   2.509   3.032  0.0695 -1.2878  0.7761
 2403TIP3    H228701   3.433   2.511   2.925  0.2629  1.1830  0.5817
 2404TIP3   OH228702   1.982   3.662   0.400 -0.2891  0.1001 -0.0934
 2404TIP3    H128703   1.991   3.701   0.487 -0.2868  0.7122 -0.3590
 2404TIP3    H228704   1.896   3.692   0.369 -0.9548 -1.3411  0.2914
 2405TIP3   OH228705   4.987   4.608   3.087 -0.0001 -0.2734 -0.2444
 2405TIP3    H128706   5.072   4.595   3.128 -0.7552 -4.4864  0.3804
 2405TIP3    H228707   4.941   4.668   3.146  1.7835  0.4151  0.5167
 2406TIP3   OH228708   2.361   3.220   0.582 -0.4016  0.0191  0.1977
 2406TIP3    H128709   2.417   3.148   0.555 -0.3674  0.5254 -1.1861
 2406TIP3    H228710   2.272   3.187   0.570 -0.4929  1.1293 -3.5825
 2407TIP3   OH228711   6.602   3.939   2.476  0.4584 -0.5063 -0.2944
 2407TIP3    H128712   6.549   4.009   2.515  0.6480 -0.4463 -0.1446
 2407TIP3    H228713   6.574   3.860   2.523  1.7834 -0.2088  1.0578
 2408TIP3   OH228714   5.191   1.670   2.357  0.5005 -0.0828  0.6050
 2408TIP3    H128715   5.133   1.738   2.392  0.0969  0.6973 -1.4277
 2408TIP3    H228716   5.279   1.707   2.365  0.2936  0.6705 -0.3810
 2409TIP3   OH228717   4.461   5.562  13.607 -0.1805 -0.3853 -0.2065
 2409TIP3    H128718   4.491   5.642  13.650  0.2071 -0.1865 -0.8317
 2409TIP3    H228719   4.377   5.543  13.648  1.1652 -1.4505  2.2231
 2410TIP3   OH228720   4.038   1.251   1.439 -0.6074 -0.1877 -0.2972
 2410TIP3    H128721   3.958   1.229   1.487 -0.1039 -1.9274 -0.1926
 2410TIP3    H228722   4.049   1.345   1.453 -1.8652 -0.1865  0.8691
 2411TIP3   OH228723   2.363   4.974   1.189 -0.1316  0.2558  0.3639
 2411TIP3    H128724   2.385   4.985   1.282 -2.1271 -1.3204  1.1252
 2411TIP3    H228725   2.306   5.049   1.169 -0.0948  0.3398  0.5687
 2412TIP3   OH228726   0.681   2.585  16.214 -0.4418  0.0542 -0.0301
 2412TIP3    H128727   0.658   2.612  16.303 -1.7330 -1.8766  0.3003
 2412TIP3    H228728   0.764   2.539  16.223  0.8053  2.1301 -0.3069
 2413TIP3   OH228729   1.384   0.165   5.073 -0.0953  0.0961  0.8113
 2413TIP3    H128730   1.396   0.260   5.075 -3.0094  0.6254 -0.6194
 2413TIP3    H228731   1.472   0.129   5.079  0.9841  2.8016  3.2752
 2414TIP3   OH228732   1.609   1.928  16.904 -0.0724 -0.2741 -0.1447
 2414TIP3    H128733   1.636   2.019  16.892  0.3993  0.2395  3.6394
 2414TIP3    H228734   1.515   1.929  16.885 -0.2221  1.1812  0.5377
 2415TIP3   OH228735   5.038   3.612  16.992  0.5578  0.0669  0.9473
 2415TIP3    H128736   5.065   3.550  17.060  1.9431 -3.1507 -2.2597
 2415TIP3    H228737   4.956   3.576  16.958 -0.0920  1.6118  0.7697
 2416TIP3   OH228738   4.214   6.310  14.192  0.0021 -0.4023  0.0248
 2416TIP3    H128739   4.262   6.348  14.118 -1.9338 -0.0612 -1.1362
 2416TIP3    H228740   4.208   6.381  14.256  0.9877 -0.4461  0.1802
 2417TIP3   OH228741   0.042   0.943  14.337 -0.1520 -0.4077 -0.1877
 2417TIP3    H128742   0.013   0.974  14.251  0.5885 -0.9705 -0.6546
 2417TIP3    H228743  -0.032   0.961  14.395 -0.6392  0.0384 -0.9257
 2418TIP3   OH228744   5.769   3.885  14.802 -0.1419 -0.5606 -0.4508
 2418TIP3    H128745   5.819   3.883  14.884 -0.3463  0.2600 -0.2919
 2418TIP3    H228746   5.735   3.975  14.797 -0.7007 -0.7968 -1.0958
 2419TIP3   OH228747   4.309   3.734  14.411 -0.6797 -0.2036 -0.1249
 2419TIP3    H128748   4.334   3.712  14.500 -0.6978 -2.4171 -0.6131
 2419TIP3    H228749   4.243   3.669  14.387 -3.0201  2.2099 -0.7280
 2420TIP3   OH228750   2.573   2.369  14.012  0.0830 -0.1824  0.1164
 2420TIP3    H128751   2.575   2.274  13.998 -0.2041 -0.3502  1.1069
 2420TIP3    H228752   2.608   2.380  14.101  0.6085  0.6887 -0.1909
 2421TIP3   OH228753   2.734   2.366   3.642  0.0692  0.0776  0.2260
 2421TIP3    H128754   2.713   2.334   3.730  0.4674 -2.1647 -0.4173
 2421TIP3    H228755   2.810   2.314   3.616  0.1652  0.9531 -1.3223
 2422TIP3   OH228756   6.070   0.032  16.403 -0.0885 -0.6235 -0.4754
 2422TIP3    H128757   6.068   0.074  16.317  2.8297 -2.0573 -1.3764
 2422TIP3    H228758   6.149   0.067  16.445 -0.8922 -0.7410  1.2462
 2423TIP3   OH228759   5.008   0.741   3.806 -0.0188 -0.1612 -0.2122
 2423TIP3    H128760   5.103   0.745   3.816  0.1084  0.6772 -1.4428
 2423TIP3    H228761   4.973   0.767   3.891  0.8716  0.4239 -0.0153
 2424TIP3   OH228762   2.801   2.396   2.276  0.2949 -0.0574  0.0784
 2424TIP3    H128763   2.788   2.487   2.302  1.0205 -0.1965  0.9722
 2424TIP3    H228764   2.895   2.381   2.286  0.5551 -0.2819 -2.1938
 2425TIP3   OH228765   4.489   4.024  10.865 -0.1411 -0.3460  0.3584
 2425TIP3    H128766   4.546   3.962  10.819 -1.0449  0.0918 -1.4359
 2425TIP3    H228767   4.415   3.971  10.895 -0.0387 -0.4545  0.4184
 2426TIP3   OH228768   1.896   0.575  17.283  0.6784 -0.3258  0.0499
 2426TIP3    H128769   1.805   0.547  17.293  1.0936 -2.3524 -1.2989
 2426TIP3    H228770   1.948   0.501  17.313  1.8873  0.4256 -0.1422
 2427TIP3   OH228771   1.262   6.028  11.649 -0.1991  0.8432  0.8029
 2427TIP3    H128772   1.337   5.981  11.613 -1.8252 -1.8725  0.7569
 2427TIP3    H228773   1.234   6.086  11.578  0.1323 -0.2160 -0.2311
 2428TIP3   OH228774   6.600   3.649  12.547  0.1011 -0.8205  0.4422
 2428TIP3    H128775   6.566   3.731  12.513 -1.6037 -1.5587  0.2537
 2428TIP3    H228776   6.636   3.672  12.633 -0.0787  0.1799  0.2611
 2429TIP3   OH228777   0.017   1.780   1.253  0.4811 -0.0803  0.5028
 2429TIP3    H128778   0.088   1.812   1.309  0.9218 -0.3342  0.1007
 2429TIP3    H228779  -0.027   1.713   1.305  0.8022 -0.2173  0.5961
 2430TIP3   OH228780   5.485   0.829   6.049 -0.4280  0.0918 -0.4318
 2430TIP3    H128781   5.421   0.874   6.104  0.3078  0.0048  0.5132
 2430TIP3    H228782   5.474   0.736   6.070 -0.8485 -0.0505 -1.2116
 2431TIP3   OH228783   0.175   5.369  12.786 -0.6211  0.1091  0.7747
 2431TIP3    H128784   0.241   5.330  12.729  1.8116 -0.6815  3.8087
 2431TIP3    H228785   0.154   5.453  12.746  0.9992 -0.3395 -1.1648
 2432TIP3   OH228786   1.250   6.527   2.440 -0.2232  0.3334  0.0320
 2432TIP3    H128787   1.168   6.537   2.490 -0.4079  0.9740 -0.3822
 2432TIP3    H228788   1.293   6.612   2.449 -0.4485  0.5948 -1.2226
 2433TIP3   OH228789   4.697   4.916  15.407  0.4112 -0.2589 -0.1313
 2433TIP3    H128790   4.693   4.879  15.495  1.8222  0.8782  0.4497
 2433TIP3    H228791   4.780   4.963  15.404 -0.7079  1.7974 -1.2531
 2434TIP3   OH228792   5.688   3.295  14.635  0.7589 -0.2051 -0.3980
 2434TIP3    H128793   5.688   3.359  14.564 -2.1100  1.7041  1.1162
 2434TIP3    H228794   5.599   3.257  14.633  0.9551 -0.8770  1.4707
 2435TIP3   OH228795   3.804   0.027  11.357  0.0129  0.2019  0.1486
 2435TIP3    H128796   3.757  -0.056  11.340 -0.5205  0.1115  1.9000
 2435TIP3    H228797   3.894  -0.000  11.374  0.2660  0.1781 -1.1389
 2436TIP3   OH228798   5.397   6.175  11.790 -0.3013  0.0265 -0.1583
 2436TIP3    H128799   5.304   6.184  11.812 -0.1465 -1.3938  1.2049
 2436TIP3    H228800   5.397   6.119  11.712 -0.5916  0.1986 -0.2846
 2437TIP3   OH228801   0.933   5.972  14.053  0.3137 -0.5142  0.0505
 2437TIP3    H128802   0.995   6.033  14.094 -0.1953 -0.6497  1.0444
 2437TIP3    H228803   0.918   6.009  13.966  0.2019  0.6671  0.5455
 2438TIP3   OH228804   6.008   6.811   4.049 -0.5249  0.5563 -0.0776
 2438TIP3    H128805   6.026   6.870   4.123  0.4802 -0.4134  0.4829
 2438TIP3    H228806   6.085   6.820   3.993 -0.2508 -0.3787  0.1336
 2439TIP3   OH228807   1.376   4.502  16.576 -0.4282  0.6151 -0.0125
 2439TIP3    H128808   1.368   4.508  16.671 -1.9476  0.4923 -0.1089
 2439TIP3    H228809   1.341   4.415  16.554 -1.7991  1.3172 -0.8065
 2440TIP3   OH228810   5.708   5.298   5.684 -0.3276 -0.3921 -0.6287
 2440TIP3    H128811   5.715   5.213   5.639  0.2357 -0.2402 -0.8377
 2440TIP3    H228812   5.780   5.350   5.648 -0.2985 -0.0288 -0.0634
 2441TIP3   OH228813   4.011   3.962   5.590 -0.1606 -0.1305  0.1963
 2441TIP3    H128814   4.048   3.935   5.505 -2.2779 -0.1539 -0.7868
 2441TIP3    H228815   4.052   4.047   5.608  0.7668 -0.4009 -0.5379
 2442TIP3   OH228816   5.537   6.058   2.400 -0.2392  0.9422  0.2996
 2442TIP3    H128817   5.521   5.995   2.330 -1.2089  2.4529 -0.9134
 2442TIP3    H228818   5.579   6.132   2.356 -1.2464  2.1008  1.2163
 2443TIP3   OH228819   1.866   2.711  11.529 -0.0016  0.2077 -0.2192
 2443TIP3    H128820   1.802   2.650  11.494 -1.1938  1.4311 -0.2300
 2443TIP3    H228821   1.858   2.789  11.474  1.4255  0.4314 -0.1479
 2444TIP3   OH228822   2.260   5.386  16.838 -0.1201  0.0250  0.2057
 2444TIP3    H128823   2.296   5.430  16.914  2.0379  1.7064 -1.6672
 2444TIP3    H228824   2.252   5.454  16.772 -0.3670 -1.6792 -1.6189
 2445TIP3   OH228825   3.321   4.224  11.959  0.5963  0.1911 -0.1429
 2445TIP3    H128826   3.400   4.206  12.009  0.4724  3.0059  1.2287
 2445TIP3    H228827   3.304   4.317  11.973 -2.3323 -0.0672 -1.3091
 2446TIP3   OH228828   6.401   0.775  14.414  0.0348  0.3779  0.3738
 2446TIP3    H128829   6.449   0.832  14.355  1.0344 -1.3625 -0.5485
 2446TIP3    H228830   6.468   0.728  14.464 -0.7330 -0.4625  0.6645
 2447TIP3   OH228831   2.951   4.353  14.019  0.2871  0.1416 -0.2261
 2447TIP3    H128832   3.019   4.308  14.071  0.5780 -0.9852 -1.5145
 2447TIP3    H228833   2.876   4.294  14.023 -1.0549  1.8707  2.0554
 2448TIP3   OH228834   2.725   2.125   0.676  0.4843  0.1308  0.1059
 2448TIP3    H128835   2.698   2.122   0.584 -0.5220  0.6273  0.3730
 2448TIP3    H228836   2.653   2.085   0.723  1.4165 -1.0209  0.6122
 2449TIP3   OH228837   3.869   3.910   3.628  0.4513  0.2590 -0.7349
 2449TIP3    H128838   3.946   3.856   3.607  0.8192  0.5396 -0.1162
 2449TIP3    H228839   3.798   3.868   3.580  0.4152 -1.7043  0.8804
 2450TIP3   OH228840   3.893   1.540  11.673  0.1301  0.6976 -0.0499
 2450TIP3    H128841   3.884   1.581  11.759  0.9803 -0.6292  0.7093
 2450TIP3    H228842   3.821   1.478  11.668  0.0718  0.7869 -0.2914
 2451TIP3   OH228843   1.322   6.404  15.222  0.4196  0.1190 -0.0336
 2451TIP3    H128844   1.262   6.475  15.246  0.1864  1.2989 -3.5236
 2451TIP3    H228845   1.342   6.360  15.305 -1.6756  2.4790  1.8820
 2452TIP3   OH228846   0.198   2.915   2.531 -0.3527  0.0370  0.8473
 2452TIP3    H128847   0.210   3.004   2.564  3.0657 -0.3472  0.9488
 2452TIP3    H228848   0.231   2.917   2.441 -1.8740 -0.7960  0.2190
 2453TIP3   OH228849   0.998   3.295  15.253 -0.2468 -0.3816  0.0857
 2453TIP3    H128850   1.092   3.307  15.245 -0.3577 -0.6252 -2.2547
 2453TIP3    H228851   0.988   3.211  15.298  0.6587 -0.7798 -0.4417
 2454TIP3   OH228852   4.464   6.213   1.370 -0.7381 -0.0384 -0.0086
 2454TIP3    H128853   4.411   6.232   1.293  0.5939  0.3650 -0.8578
 2454TIP3    H228854   4.495   6.123   1.357  1.4892  0.8360 -1.2196
 2455TIP3   OH228855   1.363   2.941  12.005  1.1176  0.2577 -0.0401
 2455TIP3    H128856   1.421   2.870  12.030  1.3501  0.5891  0.3770
 2455TIP3    H228857   1.414   2.993  11.943  0.2492 -1.0292 -1.9212
 2456TIP3   OH228858   1.493   0.395  16.788  0.6863 -0.5803 -0.2612
 2456TIP3    H128859   1.489   0.429  16.878 -1.5891 -0.5734 -0.3225
 2456TIP3    H228860   1.485   0.472  16.733  0.8817 -0.7057 -0.4665
 2457TIP3   OH228861   4.811   6.476   4.351 -0.4131 -0.6672  0.4559
 2457TIP3    H128862   4.817   6.454   4.444  0.2296  1.8886  1.0870
 2457TIP3    H228863   4.875   6.419   4.310  0.9471 -0.2903  1.9352
 2458TIP3   OH228864   1.202   4.802  12.040  0.2627  0.1185  0.0626
 2458TIP3    H128865   1.200   4.708  12.019 -1.1533  0.1085  0.1735
 2458TIP3    H228866   1.111   4.830  12.031  0.5885  1.3650  0.5848
 2459TIP3   OH228867   6.809   3.948   4.036 -0.4818  0.5503  0.0054
 2459TIP3    H128868   6.715   3.936   4.021 -0.3935 -0.8066  0.3822
 2459TIP3    H228869   6.851   3.890   3.972  0.1112  1.2419 -0.2441
 2460TIP3   OH228870   0.017   4.463  12.344  0.9139 -0.6758  0.2898
 2460TIP3    H128871   0.066   4.528  12.394  1.8303 -0.0634 -1.3359
 2460TIP3    H228872  -0.065   4.506  12.320  1.2364 -0.3355 -0.2194
 2461TIP3   OH228873   2.233   4.856  15.471  0.0698 -0.3565 -0.1617
 2461TIP3    H128874   2.141   4.885  15.469 -0.3853 -1.7422 -2.0641
 2461TIP3    H228875   2.229   4.767  15.506  0.7306 -0.3333 -0.0136
 2462TIP3   OH228876   2.009   5.507   3.069 -0.4742 -0.3634  0.1924
 2462TIP3    H128877   1.975   5.468   3.149 -0.8517 -2.7764 -1.0528
 2462TIP3    H228878   2.078   5.448   3.040  1.7872  2.0670  0.2681
 2463TIP3   OH228879   3.414   3.649   5.531 -0.2171  0.6569 -0.3441
 2463TIP3    H128880   3.424   3.565   5.576 -0.5110 -0.0912 -1.6344
 2463TIP3    H228881   3.332   3.641   5.483 -0.0592  1.5449 -0.7788
 2464TIP3   OH228882   3.660   3.188  13.770 -0.2880 -0.2222  0.3067
 2464TIP3    H128883   3.598   3.170  13.700  0.8917 -0.7412 -0.6428
 2464TIP3    H228884   3.606   3.217  13.844 -1.5027  1.3309 -1.1034
 2465TIP3   OH228885   0.271   4.595   4.399 -0.1141 -0.0203 -0.1454
 2465TIP3    H128886   0.308   4.508   4.388  1.0944  0.6762 -2.2029
 2465TIP3    H228887   0.341   4.654   4.371 -1.5915  1.5203 -0.7876
 2466TIP3   OH228888   3.176   1.120  16.199 -0.0120 -0.0042  0.3900
 2466TIP3    H128889   3.163   1.045  16.257 -0.1757  0.8981  1.5715
 2466TIP3    H228890   3.138   1.194  16.247  0.6186  0.9294 -0.5030
 2467TIP3   OH228891   3.408   1.846  12.850 -0.1246 -0.5864  0.5394
 2467TIP3    H128892   3.450   1.844  12.936  0.7427  0.0238  0.1430
 2467TIP3    H228893   3.441   1.926  12.809  0.2057 -1.3381 -0.7185
 2468TIP3   OH228894   5.467   0.735  16.127  0.1005 -0.7161  0.0696
 2468TIP3    H128895   5.496   0.824  16.150 -3.8956  0.4024  1.6385
 2468TIP3    H228896   5.464   0.735  16.032  2.2569 -0.0145 -0.0694
 2469TIP3   OH228897   1.954   0.453  16.606 -0.3812 -0.0552 -0.2059
 2469TIP3    H128898   1.867   0.461  16.568 -0.3788  0.4139 -0.1124
 2469TIP3    H228899   1.968   0.535  16.652 -0.0308 -0.2707  0.0777
 2470TIP3   OH228900   5.121   5.956   4.802 -0.3317  0.1912  0.4947
 2470TIP3    H128901   5.151   5.962   4.892 -0.2283 -1.1652  0.5750
 2470TIP3    H228902   5.170   6.024   4.756  1.4129 -0.6402  1.0164
 2471TIP3   OH228903   6.797   1.997  12.128  0.1370  0.2975 -0.0433
 2471TIP3    H128904   6.824   2.087  12.145  1.8977  0.0114 -1.0531
 2471TIP3    H228905   6.772   1.997  12.035  0.6441 -0.3500 -0.1882
 2472TIP3   OH228906   6.628   3.915  11.365 -0.1535 -0.4507 -0.0236
 2472TIP3    H128907   6.635   3.902  11.270  1.3708 -0.4779  0.0762
 2472TIP3    H228908   6.632   4.009  11.377 -0.7164 -0.4267 -0.0041
 2473TIP3   OH228909   3.411   0.030  15.666 -0.3360 -0.4001  0.7298
 2473TIP3    H128910   3.320   0.049  15.691 -0.7867  0.7515 -1.4807
 2473TIP3    H228911   3.463   0.094  15.714 -0.8568 -0.1411  0.9536
 2474TIP3   OH228912   3.324   6.503   1.185 -0.3933 -0.3131  0.5609
 2474TIP3    H128913   3.321   6.455   1.268 -1.1616 -0.0696  0.6827
 2474TIP3    H228914   3.387   6.573   1.200  0.9292 -1.4123  0.3044
 2475TIP3   OH228915   0.474   1.876  15.613  0.2250  0.2851 -0.7632
 2475TIP3    H128916   0.508   1.961  15.643 -0.1858 -0.4441  2.0082
 2475TIP3    H228917   0.383   1.894  15.589 -0.4482  0.3471  1.6201
 2476TIP3   OH228918   1.322   0.267  11.452  0.2155 -1.0784 -0.1350
 2476TIP3    H128919   1.273   0.216  11.516 -0.5166  0.3923  0.5509
 2476TIP3    H228920   1.342   0.206  11.381  2.3480 -3.1716  2.0858
 2477TIP3   OH228921   6.229   0.856   4.258 -0.1820 -0.6545 -0.2910
 2477TIP3    H128922   6.134   0.863   4.271 -0.2585  0.5775 -1.3302
 2477TIP3    H228923   6.238   0.821   4.170  0.3235  0.3963 -0.6676
 2478TIP3   OH228924   2.431   5.250   3.232  0.0401 -0.1547 -0.5512
 2478TIP3    H128925   2.438   5.183   3.164 -0.5231 -0.3122 -0.4576
 2478TIP3    H228926   2.416   5.332   3.184  0.6247 -0.1062 -0.6599
 2479TIP3   OH228927   0.272   0.440   5.669 -0.0330  0.3832 -0.5417
 2479TIP3    H128928   0.350   0.387   5.684 -0.5817 -0.0599  0.8740
 2479TIP3    H228929   0.293   0.525   5.708 -1.0993 -0.4746  2.1425
 2480TIP3   OH228930   6.777   2.431  14.512  0.7178  0.0849 -0.3756
 2480TIP3    H128931   6.858   2.456  14.557 -0.3073  0.8520  1.1456
 2480TIP3    H228932   6.798   2.348  14.469  1.8173 -0.6725  1.4865
 2481TIP3   OH228933   5.182   1.624   3.883 -0.3575  0.4361 -0.2727
 2481TIP3    H128934   5.247   1.576   3.831  0.7423  1.5533  0.0547
 2481TIP3    H228935   5.206   1.716   3.873 -1.4701  0.8150  0.4341
 2482TIP3   OH228936   4.136   1.672   5.111 -0.2472 -0.0927  0.3264
 2482TIP3    H128937   4.048   1.649   5.140 -0.2551 -0.4111  0.0598
 2482TIP3    H228938   4.164   1.742   5.170 -0.5904 -0.1467  0.5538
 2483TIP3   OH228939   1.583   5.548  12.554 -0.0588 -0.0919 -0.0507
 2483TIP3    H128940   1.488   5.558  12.552  0.0499  1.6282  0.8626
 2483TIP3    H228941   1.616   5.637  12.566  1.7142 -0.5460 -1.1217
 2484TIP3   OH228942   0.609   5.129  12.829  0.6633  0.1574 -0.7397
 2484TIP3    H128943   0.646   5.050  12.790  0.0992 -0.5027  0.0350
 2484TIP3    H228944   0.552   5.165  12.761 -1.7316 -1.9516 -0.0068
 2485TIP3   OH228945   5.368   6.146  13.642  0.2954 -0.3106 -0.6841
 2485TIP3    H128946   5.378   6.192  13.726  1.4283  0.1670 -1.0674
 2485TIP3    H228947   5.409   6.204  13.578  0.0707 -1.0051 -1.4726
 2486TIP3   OH228948   0.470   6.325  16.875 -0.6276  0.3511 -0.3704
 2486TIP3    H128949   0.436   6.260  16.814  1.2104 -1.4293  0.3759
 2486TIP3    H228950   0.393   6.354  16.924 -1.4810 -1.4916 -0.5279
 2487TIP3   OH228951   1.960   3.600  11.817  0.3688 -0.2790 -0.8176
 2487TIP3    H128952   1.912   3.653  11.753 -0.7067 -1.7855 -1.2917
 2487TIP3    H228953   1.893   3.557  11.868  1.0908  2.3659  2.7804
 2488TIP3   OH228954   4.056   2.241   6.377  0.3906 -0.4045  0.3966
 2488TIP3    H128955   4.077   2.192   6.457 -0.3133  0.5449  1.1972
 2488TIP3    H228956   4.088   2.330   6.394  0.8179 -0.3479 -0.6541
 2489TIP3   OH228957   3.099   2.678  14.283 -0.4264 -1.0609 -0.4844
 2489TIP3    H128958   3.158   2.603  14.276 -1.4639 -2.2784  2.3886
 2489TIP3    H228959   3.155   2.750  14.312 -0.1437 -2.0120  1.4830
 2490TIP3   OH228960   3.733   6.582   1.560  0.1644 -0.0457 -0.2423
 2490TIP3    H128961   3.825   6.562   1.544  0.1621 -0.3263  0.0669
 2490TIP3    H228962   3.725   6.675   1.541  0.4478 -0.0838 -0.5555
 2491TIP3   OH228963   6.628   5.642  15.998  0.1681  0.7159  0.1126
 2491TIP3    H128964   6.661   5.716  15.947  1.0074 -0.4661 -1.1391
 2491TIP3    H228965   6.694   5.627  16.066 -0.5466  1.7759  1.0742
 2492TIP3   OH228966   4.820   1.287   5.512 -0.0869 -0.0864  0.4304
 2492TIP3    H128967   4.759   1.326   5.449 -0.5899 -0.1562  0.8627
 2492TIP3    H228968   4.763   1.247   5.578  0.4230 -1.4305  0.0797
 2493TIP3   OH228969   1.692   5.030  11.697  0.1792  0.1715  0.5885
 2493TIP3    H128970   1.754   5.015  11.769  0.4860 -2.5381 -0.1295
 2493TIP3    H228971   1.626   4.961  11.709  1.2222 -1.5963 -2.6800
 2494TIP3   OH228972   3.736   4.661   1.084 -0.1468  0.5422  0.0819
 2494TIP3    H128973   3.704   4.684   0.996 -0.6901 -0.6994 -0.0560
 2494TIP3    H228974   3.673   4.597   1.117  0.4468  0.4616  1.1035
 2495TIP3   OH228975   5.954   6.809   6.381  0.0271 -0.1912  0.0804
 2495TIP3    H128976   5.928   6.750   6.310 -0.6999 -0.7831  0.8170
 2495TIP3    H228977   5.996   6.752   6.446 -2.6741 -0.3857  1.8472
 2496TIP3   OH228978   2.479   3.307  14.012 -0.2874 -0.6157  0.0689
 2496TIP3    H128979   2.488   3.402  14.005 -0.2423 -0.6343 -0.1532
 2496TIP3    H228980   2.429   3.293  14.092  0.3024 -0.4422  0.4641
 2497TIP3   OH228981   5.407   4.338  12.348  0.3391 -0.3835 -1.0968
 2497TIP3    H128982   5.313   4.352  12.336 -0.3883 -2.6214  1.1462
 2497TIP3    H228983   5.422   4.348  12.442  2.2562 -0.5830 -1.3283
 2498TIP3   OH228984   4.434   4.782   4.229 -0.1897  0.4769 -0.1401
 2498TIP3    H128985   4.435   4.819   4.317  0.1433  0.7561 -0.2581
 2498TIP3    H228986   4.385   4.846   4.177 -0.5548  0.2179 -0.1190
 2499TIP3   OH228987   4.161   5.843   0.974  0.3276 -0.2212 -0.2050
 2499TIP3    H128988   4.089   5.868   1.033 -0.1339  1.2337 -1.3427
 2499TIP3    H228989   4.175   5.920   0.919  1.4441 -1.1846 -1.3236
 2500TIP3   OH228990   3.920   0.771  12.878  0.2590 -0.5347 -0.1522
 2500TIP3    H128991   4.002   0.756  12.831  0.9955  3.2369 -0.4119
 2500TIP3    H228992   3.885   0.852  12.840 -1.8349 -0.1871  2.2511
 2501TIP3   OH228993   3.675   2.454  10.864 -0.5586  0.1442 -0.5074
 2501TIP3    H128994   3.608   2.391  10.888 -0.4020 -0.4693 -1.6201
 2501TIP3    H228995   3.750   2.400  10.836 -0.7534  0.7852 -2.3969
 2502TIP3   OH228996   1.350   1.730   2.760  0.4177  0.4032 -0.0587
 2502TIP3    H128997   1.301   1.649   2.746  0.5334  0.3048  0.1029
 2502TIP3    H228998   1.429   1.720   2.707  1.4716 -0.5109  1.5813
 2503TIP3   OH228999   3.376   2.218   1.505 -0.3460 -0.1119 -0.0395
 2503TIP3    H129000   3.364   2.251   1.416  1.8901 -1.0609 -0.7518
 2503TIP3    H229001   3.313   2.146   1.511 -0.6264  0.0539 -0.7991
 2504TIP3   OH229002   4.600   1.557   5.472 -0.6491  0.5955  0.2336
 2504TIP3    H129003   4.597   1.636   5.527  1.1249 -0.3553  1.8251
 2504TIP3    H229004   4.557   1.490   5.524 -0.3020  0.0356 -0.1873
 2505TIP3   OH229005   3.835   5.792  16.904  0.1853 -0.3743  0.2393
 2505TIP3    H129006   3.829   5.735  16.981  0.3188 -2.8666 -1.4505
 2505TIP3    H229007   3.765   5.762  16.846 -1.2867  2.8452  0.1552
 2506TIP3   OH229008   1.919   0.844  13.191 -0.2439  0.3367 -0.0121
 2506TIP3    H129009   1.828   0.829  13.166  0.1498 -1.3138 -0.5862
 2506TIP3    H229010   1.934   0.781  13.262  0.5852  0.2875 -0.2292
 2507TIP3   OH229011   0.605   2.956  11.870 -0.1358  0.1811 -0.5456
 2507TIP3    H129012   0.612   2.967  11.965 -2.1883  0.0186 -0.3183
 2507TIP3    H229013   0.541   3.022  11.843 -1.9316 -1.7803 -1.3128
 2508TIP3   OH229014   3.451   0.455  12.587 -0.2867  0.1950  0.1936
 2508TIP3    H129015   3.382   0.502  12.633 -0.7523  1.6133 -1.7812
 2508TIP3    H229016   3.532   0.494  12.619 -0.5186  0.1723  0.8129
 2509TIP3   OH229017   3.183   1.468   1.301 -0.7211  0.7441  0.3414
 2509TIP3    H129018   3.252   1.413   1.338 -1.2340 -0.1946 -0.0435
 2509TIP3    H229019   3.229   1.527   1.241 -0.1937  0.5156  0.5130
 2510TIP3   OH229020   4.886   1.393  11.782 -0.1641 -0.0334  0.1713
 2510TIP3    H129021   4.921   1.304  11.791  1.4967  0.4432 -1.2106
 2510TIP3    H229022   4.940   1.446  11.840 -0.9601  0.1438  0.7670
 2511TIP3   OH229023   0.483   4.862   1.102  0.3354  0.1087  0.5496
 2511TIP3    H129024   0.404   4.807   1.100 -0.4948  1.2739 -0.1354
 2511TIP3    H229025   0.550   4.811   1.058 -0.8155  0.1903 -1.3946
 2512TIP3   OH229026   4.390   0.650  11.804  0.2123  1.0804  0.5904
 2512TIP3    H129027   4.327   0.715  11.835 -1.2011 -0.1750  0.4610
 2512TIP3    H229028   4.378   0.575  11.863 -0.3513 -0.1910 -1.0733
 2513TIP3   OH229029   1.245   1.599  13.508  0.0422 -0.6114 -0.2678
 2513TIP3    H129030   1.156   1.570  13.489  0.6324 -1.0108 -2.6786
 2513TIP3    H229031   1.300   1.556  13.443  1.4575  2.8880 -1.6776
 2514TIP3   OH229032   5.525   1.967   1.634 -0.0210 -0.1470  0.4032
 2514TIP3    H129033   5.545   1.882   1.593  0.1293  0.0057  0.1523
 2514TIP3    H229034   5.456   1.948   1.697  0.0625 -0.4700  0.4002
 2515TIP3   OH229035   6.743   2.497   5.111  0.3613  0.2551 -0.1639
 2515TIP3    H129036   6.819   2.452   5.149 -0.3306 -1.3043 -0.5194
 2515TIP3    H229037   6.680   2.503   5.182  0.8978  1.8161  0.2105
 2516TIP3   OH229038   6.467   0.365  11.136  0.4374 -0.1969 -0.2882
 2516TIP3    H129039   6.412   0.287  11.139  1.5649 -1.0338 -0.6497
 2516TIP3    H229040   6.469   0.389  11.044  2.3662 -1.4604 -0.6355
 2517TIP3   OH229041   2.375   5.593   3.265  0.6605 -0.3326  0.1662
 2517TIP3    H129042   2.368   5.559   3.176 -1.2923 -0.9289  0.5040
 2517TIP3    H229043   2.460   5.636   3.267  0.5618  0.1199 -2.1261
 2518TIP3   OH229044   5.880   0.793   2.892  0.2265  0.3464 -0.1223
 2518TIP3    H129045   5.788   0.766   2.896 -0.3923  2.2403 -0.3912
 2518TIP3    H229046   5.899   0.827   2.979  0.1648  1.4079 -0.5093
 2519TIP3   OH229047   3.966   1.982  11.300 -0.3844 -0.1147  0.8089
 2519TIP3    H129048   4.002   2.025  11.223  0.6968 -0.0934  1.3043
 2519TIP3    H229049   3.954   2.052  11.364 -2.5774  0.1030  0.2470
 2520TIP3   OH229050   2.057   2.148  11.991  0.2057 -0.2451 -0.6155
 2520TIP3    H129051   2.099   2.208  11.929  1.7777 -0.1803  0.4547
 2520TIP3    H229052   2.128   2.091  12.021 -0.8583 -1.3408 -0.1080
 2521TIP3   OH229053   3.864   5.310  10.696 -0.3855  0.3949 -0.2675
 2521TIP3    H129054   3.935   5.357  10.652  0.9230 -0.4955  0.7794
 2521TIP3    H229055   3.830   5.250  10.630  0.9935 -0.3469 -0.3444
 2522TIP3   OH229056   5.555   5.095  12.687  0.2837 -0.0025  0.4463
 2522TIP3    H129057   5.574   5.103  12.593 -0.1783  1.2925  0.4384
 2522TIP3    H229058   5.635   5.060  12.725 -0.3245 -2.9903 -0.7408
 2523TIP3   OH229059   3.521   1.745   6.065  0.3566  0.2194 -0.5244
 2523TIP3    H129060   3.525   1.720   6.157  0.8660  2.3417  0.0850
 2523TIP3    H229061   3.500   1.839   6.067 -0.7580  0.0669 -2.5995
 2524TIP3   OH229062   1.094   1.687   0.646  0.1873 -0.0926  0.4725
 2524TIP3    H129063   1.008   1.725   0.631 -0.5009 -0.0606  3.7021
 2524TIP3    H229064   1.077   1.607   0.695  1.9653  0.2301  1.7492
 2525TIP3   OH229065   5.095   5.776  13.906 -0.0286 -0.0468  0.3513
 2525TIP3    H129066   5.072   5.714  13.837 -0.3100  0.5929 -0.1456
 2525TIP3    H229067   5.028   5.844  13.901  0.8195  0.8040  0.2224
 2526TIP3   OH229068   6.463   6.185   4.697 -0.5334 -0.2988  0.0552
 2526TIP3    H129069   6.513   6.255   4.740  0.7608 -0.6289 -0.8505
 2526TIP3    H229070   6.508   6.105   4.722 -2.0660 -0.8604  1.1632
 2527TIP3   OH229071   2.687   2.388   5.791 -0.7772 -0.2549 -0.5045
 2527TIP3    H129072   2.618   2.428   5.844  0.0002 -0.8824  1.0600
 2527TIP3    H229073   2.720   2.316   5.846 -0.7179 -1.6987 -2.3548
 2528TIP3   OH229074   2.138   3.239  10.702 -0.1884 -0.0303  0.3598
 2528TIP3    H129075   2.199   3.176  10.741  1.2267  0.8051 -0.3953
 2528TIP3    H229076   2.068   3.249  10.766  0.8861 -0.4200  1.6293
 2529TIP3   OH229077   6.116   4.672  13.093  0.2433  0.1346  0.1123
 2529TIP3    H129078   6.125   4.747  13.152  2.7911 -1.2957  1.7304
 2529TIP3    H229079   6.053   4.614  13.137 -1.2037  0.9328 -0.8095
 2530TIP3   OH229080   4.852   3.504   3.439 -0.0918  0.4312  0.5909
 2530TIP3    H129081   4.788   3.467   3.378  1.6504 -1.6661 -0.0736
 2530TIP3    H229082   4.807   3.505   3.523 -1.7125  1.0672 -0.2488
 2531TIP3   OH229083   1.259   1.309  16.104 -0.4824  1.1644 -0.0834
 2531TIP3    H129084   1.254   1.223  16.064  1.1592  0.9352  0.1403
 2531TIP3    H229085   1.241   1.370  16.032  0.1951  0.6926 -0.6636
 2532TIP3   OH229086   5.809   6.616   6.781  0.7250 -0.2920 -0.4029
 2532TIP3    H129087   5.822   6.688   6.843 -1.4840 -0.3894  0.2882
 2532TIP3    H229088   5.752   6.554   6.827  0.4470 -1.2239 -1.8992
 2533TIP3   OH229089   3.355   5.530  11.476 -0.9912  0.5350  0.4644
 2533TIP3    H129090   3.335   5.599  11.539  0.2034  1.4777 -0.1537
 2533TIP3    H229091   3.373   5.577  11.394  0.4018 -0.4500  0.1705
 2534TIP3   OH229092   2.542   3.956   0.945  0.1868  0.5039 -0.3548
 2534TIP3    H129093   2.574   4.032   0.993 -0.5354  0.8552 -0.4229
 2534TIP3    H229094   2.584   3.963   0.859 -0.0793  0.9705 -0.4497
 2535TIP3   OH229095   5.121   0.260  16.592  0.3381  0.0922 -1.0675
 2535TIP3    H129096   5.171   0.191  16.548 -0.4214 -0.4049 -1.1756
 2535TIP3    H229097   5.130   0.336  16.535 -1.4252 -0.8035 -2.6513
 2536TIP3   OH229098   4.324   1.226  13.990  0.0385 -0.4936  0.6559
 2536TIP3    H129099   4.411   1.186  13.995 -0.0468 -0.6225  1.1675
 2536TIP3    H229100   4.277   1.190  14.065 -0.6025 -0.7655  0.1337
 2537TIP3   OH229101   5.919   0.849  16.849  0.4819 -0.0019 -0.2427
 2537TIP3    H129102   5.830   0.884  16.845 -0.0066 -1.1675  0.2800
 2537TIP3    H229103   5.954   0.865  16.761 -0.4136  0.0288 -0.6046
 2538TIP3   OH229104   6.350   1.913  10.673  0.2660  0.7596  0.1232
 2538TIP3    H129105   6.443   1.898  10.685  0.3376  0.1705 -1.1071
 2538TIP3    H229106   6.332   1.888  10.583 -0.8605  1.9936 -0.0292
 2539TIP3   OH229107   1.893   0.277   1.081 -0.4509 -0.2641  0.5437
 2539TIP3    H129108   1.861   0.312   0.997 -0.2830  1.7499  1.2713
 2539TIP3    H229109   1.953   0.344   1.114 -1.0269 -0.6967  2.6000
 2540TIP3   OH229110   6.386   6.252  11.543  0.3459  0.5227 -0.0241
 2540TIP3    H129111   6.335   6.189  11.595 -0.8678  0.3066 -1.4317
 2540TIP3    H229112   6.463   6.270  11.598 -0.7615  0.1394  1.7457
 2541TIP3   OH229113   3.307   6.142   3.051  0.1279  0.4412  0.2381
 2541TIP3    H129114   3.312   6.076   3.120 -6.3594 -1.0765 -0.0691
 2541TIP3    H229115   3.267   6.218   3.094  0.2234  1.2240 -1.0032
 2542TIP3   OH229116   1.386   2.509   3.026 -0.5977  0.6418 -0.0046
 2542TIP3    H129117   1.357   2.424   2.992  2.3008 -1.0099  1.2443
 2542TIP3    H229118   1.377   2.569   2.953  3.5208 -2.2631 -3.4352
 2543TIP3   OH229119   5.418   6.161  13.941  0.2506  0.2576 -0.4289
 2543TIP3    H129120   5.389   6.071  13.925 -0.3988  0.6764 -1.7058
 2543TIP3    H229121   5.437   6.163  14.035  0.4294 -1.2516 -0.3999
 2544TIP3   OH229122   4.113   6.105  13.037  0.5060  0.4718  0.8833
 2544TIP3    H129123   4.044   6.073  13.095  1.1153 -1.9348  0.4043
 2544TIP3    H229124   4.069   6.127  12.955  0.2537 -0.8565  0.6483
 2545TIP3   OH229125   1.721   0.062   4.181 -0.1045 -0.7819  0.1195
 2545TIP3    H129126   1.760   0.052   4.094 -0.4758 -0.2610 -0.1095
 2545TIP3    H229127   1.791   0.037   4.241  1.3050  2.0514 -0.2105
 2546TIP3   OH229128   1.692   4.932   5.855  0.7481  0.4321 -0.3663
 2546TIP3    H129129   1.676   4.838   5.850 -0.3906  0.5443  0.6596
 2546TIP3    H229130   1.773   4.940   5.905 -0.0767  0.0015  1.1113
 2547TIP3   OH229131   4.527   5.010   0.825 -0.0229 -0.2215  0.2935
 2547TIP3    H129132   4.475   4.978   0.752  0.4137  0.6505 -0.4129
 2547TIP3    H229133   4.614   4.974   0.810 -0.1500 -0.8386  0.9289
 2548TIP3   OH229134   1.783   2.697  15.241 -0.1885  0.1156 -0.0565
 2548TIP3    H129135   1.728   2.624  15.271  0.6483 -0.4586  0.1103
 2548TIP3    H229136   1.870   2.659  15.230 -0.0338  0.7824 -1.2975
 2549TIP3   OH229137   4.018   6.615   5.525 -0.1492 -0.6723  0.2043
 2549TIP3    H129138   3.937   6.658   5.552 -1.6494 -1.4024 -2.7119
 2549TIP3    H229139   4.080   6.686   5.512  0.1755 -0.1781  3.6013
 2550TIP3   OH229140   1.927   3.516   5.055  0.2746 -0.5369  0.0497
 2550TIP3    H129141   1.941   3.604   5.091  2.5556 -1.6270  2.1155
 2550TIP3    H229142   2.001   3.503   4.996  0.6873 -1.5050  0.7565
 2551TIP3   OH229143   3.488   3.435   0.071  0.1825 -0.4466  0.2578
 2551TIP3    H129144   3.397   3.422   0.097 -0.0003  0.0637 -0.1086
 2551TIP3    H229145   3.509   3.358   0.018 -0.5998  0.2753 -1.1484
 2552TIP3   OH229146   0.533   2.940   4.397  0.6591  0.1202 -0.5337
 2552TIP3    H129147   0.583   3.022   4.405  0.5002  0.2844 -1.1450
 2552TIP3    H229148   0.502   2.940   4.307 -0.7593  0.1922 -0.0685
 2553TIP3   OH229149   4.948   0.230   4.328  0.7771  0.2455  0.1886
 2553TIP3    H129150   5.015   0.218   4.396  1.0586 -0.9094 -0.2683
 2553TIP3    H229151   4.974   0.171   4.258 -1.2173 -0.9886  0.3956
 2554TIP3   OH229152   1.579   2.501  15.274 -0.0481  0.1184  0.3156
 2554TIP3    H129153   1.504   2.455  15.310 -0.0092  0.0629  0.3258
 2554TIP3    H229154   1.627   2.434  15.225  0.8538 -0.2339  1.6100
 2555TIP3   OH229155   5.924   4.890  15.492 -0.0574  0.1037 -0.5661
 2555TIP3    H129156   5.869   4.959  15.531 -1.0199 -0.9085 -0.0603
 2555TIP3    H229157   6.013   4.918  15.509 -0.4426  0.2897  1.3822
 2556TIP3   OH229158   6.308   6.235  11.040 -0.1291 -0.1775 -0.1383
 2556TIP3    H129159   6.281   6.207  10.953  1.3576 -1.3402 -0.2650
 2556TIP3    H229160   6.344   6.156  11.081 -0.0502  0.5297  1.2215
 2557TIP3   OH229161   0.701   1.803   0.045  0.2470  0.2710  0.1904
 2557TIP3    H129162   0.615   1.801   0.002 -0.6766  2.0107  1.8689
 2557TIP3    H229163   0.705   1.888   0.088  2.0775 -0.4959  1.6564
 2558TIP3   OH229164   1.984   4.341   0.660  0.3869 -0.7884 -0.6643
 2558TIP3    H129165   1.986   4.311   0.569 -2.7557  1.2980 -1.6131
 2558TIP3    H229166   2.017   4.430   0.656 -0.7514 -0.3098 -0.0240
 2559TIP3   OH229167   6.013   2.891   2.160  0.0566 -0.2670 -0.5331
 2559TIP3    H129168   6.034   2.873   2.251 -1.8864 -0.3460 -0.0582
 2559TIP3    H229169   6.068   2.830   2.110  1.5602  0.1660  0.5241
 2560TIP3   OH229170   6.753   4.590   2.838  0.3098 -0.2658  0.2695
 2560TIP3    H129171   6.797   4.581   2.922 -0.5913 -1.3736  0.6401
 2560TIP3    H229172   6.693   4.664   2.850  2.5492  1.8125 -0.4965
 2561TIP3   OH229173   2.071   4.851   3.784 -0.3639 -0.1916  0.1495
 2561TIP3    H129174   2.057   4.927   3.726 -3.5664 -1.0856 -0.4363
 2561TIP3    H229175   2.118   4.789   3.729 -0.5095  0.1985 -0.4388
 2562TIP3   OH229176   6.620   4.504  14.525  0.4447  0.1494 -0.4251
 2562TIP3    H129177   6.634   4.560  14.448  1.2795  1.0842  0.3796
 2562TIP3    H229178   6.708   4.491  14.560 -0.0522  0.8898  1.1650
 2563TIP3   OH229179   0.979   5.735   4.538 -0.7351 -0.4662 -0.9557
 2563TIP3    H129180   1.043   5.676   4.578 -0.7545  0.5610  0.6728
 2563TIP3    H229181   1.031   5.793   4.482 -0.4102 -0.4892 -0.6800
 2564TIP3   OH229182   3.772   3.535  11.770  0.5262 -0.1492  0.0668
 2564TIP3    H129183   3.717   3.599  11.726  1.0073 -0.5200 -1.1110
 2564TIP3    H229184   3.710   3.478  11.818 -0.0810 -0.2819 -0.8592
 2565TIP3   OH229185   2.833   5.824   2.644 -0.0814 -0.8015 -0.0154
 2565TIP3    H129186   2.887   5.863   2.576 -1.4452  2.9782  0.8340
 2565TIP3    H229187   2.746   5.817   2.605 -0.8730  1.3902  1.1609
 2566TIP3   OH229188   2.485   6.139  17.045 -0.5785 -0.2520 -0.4880
 2566TIP3    H129189   2.460   6.226  17.016  0.8551  0.3220 -0.1058
 2566TIP3    H229190   2.403   6.099  17.075 -1.1816  1.1394 -0.2052
 2567TIP3   OH229191   5.789   3.158  11.781  0.1543  0.1989  0.0440
 2567TIP3    H129192   5.813   3.246  11.754 -0.2203  1.1943  2.6363
 2567TIP3    H229193   5.869   3.106  11.771 -0.2544  0.0533 -3.9736
 2568TIP3   OH229194   0.024   0.107  13.543  0.7481 -0.2291  0.6554
 2568TIP3    H129195  -0.034   0.125  13.617 -1.0200 -2.7097 -0.0034
 2568TIP3    H229196   0.112   0.110  13.581  0.1980  2.3681  1.9685
 2569TIP3   OH229197   1.960   3.654   4.146  0.5163  0.4319 -0.5594
 2569TIP3    H129198   1.873   3.692   4.147  0.3555  0.0673 -0.5339
 2569TIP3    H229199   1.978   3.636   4.054 -1.2188 -3.4935 -0.3344
 2570TIP3   OH229200   0.498   5.597  11.180 -0.5593 -0.4244  0.0055
 2570TIP3    H129201   0.473   5.657  11.250  1.2618  0.4921 -0.0726
 2570TIP3    H229202   0.552   5.531  11.224 -0.1610 -0.3608 -0.3853
 2571TIP3   OH229203   5.165   5.147   3.769  0.2723  0.1358 -0.6578
 2571TIP3    H129204   5.191   5.226   3.818 -0.0625  0.4981 -1.0499
 2571TIP3    H229205   5.071   5.160   3.753 -0.0432 -0.8973  0.2860
 2572TIP3   OH229206   0.651   4.112  11.446  0.1187  0.1937 -0.3849
 2572TIP3    H129207   0.571   4.075  11.482 -0.5012  0.9372 -0.9790
 2572TIP3    H229208   0.714   4.107  11.518 -0.8335  0.8122  0.5074
 2573TIP3   OH229209   5.097   1.354   0.850 -0.3745  0.1499  0.6661
 2573TIP3    H129210   5.002   1.353   0.860 -0.4112 -0.7240  0.3026
 2573TIP3    H229211   5.128   1.411   0.921 -1.2906  2.3131 -0.5816
 2574TIP3   OH229212   6.644   6.419   3.097  0.2421 -0.2070  0.0029
 2574TIP3    H129213   6.568   6.382   3.141 -1.3024  1.0860 -1.4717
 2574TIP3    H229214   6.641   6.512   3.119  0.8665  0.0166 -0.8383
 2575TIP3   OH229215   5.796   1.930  16.627 -0.3353 -0.0520  0.3848
 2575TIP3    H129216   5.826   1.839  16.625 -0.4918 -0.1093  0.6503
 2575TIP3    H229217   5.751   1.939  16.711 -2.5691 -0.4361 -0.7124
 2576TIP3   OH229218   5.206   3.655  12.594 -0.9395 -0.2153 -0.1448
 2576TIP3    H129219   5.246   3.737  12.566 -0.9748 -0.8948 -2.3877
 2576TIP3    H229220   5.121   3.680  12.630 -0.0055  0.9047  1.4224
 2577TIP3   OH229221   4.292   3.596   0.067 -0.5456  0.5233 -0.2273
 2577TIP3    H129222   4.332   3.670   0.022  0.1574  0.3800  0.1561
 2577TIP3    H229223   4.223   3.566   0.007  1.1028 -0.3902 -1.7736
 2578TIP3   OH229224   3.152   2.917   1.427 -0.4897 -0.1237  0.0755
 2578TIP3    H129225   3.067   2.930   1.469 -0.5451  0.5344 -0.2196
 2578TIP3    H229226   3.200   2.859   1.486 -1.0928 -0.3844  0.3144
 2579TIP3   OH229227   3.844   4.483   4.169 -0.3075 -0.1285 -0.1429
 2579TIP3    H129228   3.917   4.460   4.110 -1.3421 -1.6448 -0.8913
 2579TIP3    H229229   3.774   4.511   4.110 -0.6117  0.5510  0.5283
 2580TIP3   OH229230   5.124   4.415  15.169 -0.3214 -0.5898 -0.9200
 2580TIP3    H129231   5.115   4.331  15.214  0.0488 -0.6680 -0.9955
 2580TIP3    H229232   5.065   4.474  15.217  0.0044 -0.6934 -0.3885
 2581TIP3   OH229233   3.235   4.002  15.428 -0.1641  0.2182 -0.4090
 2581TIP3    H129234   3.173   4.068  15.398  0.6399  0.4416 -1.6381
 2581TIP3    H229235   3.308   4.008  15.367  0.5906 -0.7840  0.3613
 2582TIP3   OH229236   6.186   4.310  11.651  0.8317  0.1747  0.1458
 2582TIP3    H129237   6.267   4.259  11.637  0.3673 -0.7301  0.6275
 2582TIP3    H229238   6.127   4.248  11.694 -0.0449  0.8985  0.0013
 2583TIP3   OH229239   2.909   2.562  16.761 -0.1642 -0.2617 -0.3865
 2583TIP3    H129240   2.957   2.563  16.844 -0.2893 -0.0873 -0.3149
 2583TIP3    H229241   2.849   2.636  16.767 -0.5507 -0.5670 -0.4123
 2584TIP3   OH229242   5.107   5.970  14.591 -0.1932  0.7881  0.5032
 2584TIP3    H129243   5.023   5.992  14.633 -1.3189  0.2535 -1.3377
 2584TIP3    H229244   5.092   5.884  14.552  1.6005  0.1904  1.0635
 2585TIP3   OH229245   6.351   3.968  12.132 -0.9926 -0.0681  0.2266
 2585TIP3    H129246   6.351   3.918  12.214 -0.6014  0.4209  0.5322
 2585TIP3    H229247   6.411   3.920  12.075 -0.1460  0.3755  0.7269
 2586TIP3   OH229248   3.774   3.787  16.300  0.1354 -0.5744  0.0888
 2586TIP3    H129249   3.848   3.756  16.247 -0.2461 -2.2318  0.4672
 2586TIP3    H229250   3.697   3.749  16.258 -0.3609 -0.1518  0.6045
 2587TIP3   OH229251   3.225   4.106   5.683  0.0793  0.4762 -0.2438
 2587TIP3    H129252   3.200   4.150   5.602 -1.4620  0.3974  0.1697
 2587TIP3    H229253   3.314   4.138   5.701 -0.5287  2.4856 -0.5861
 2588TIP3   OH229254   1.292   2.123   5.422  0.1468  0.1524  0.7120
 2588TIP3    H129255   1.220   2.069   5.454 -1.2454  0.1498 -2.1270
 2588TIP3    H229256   1.293   2.199   5.480 -0.0141 -1.3057  2.7323
 2589TIP3   OH229257   1.641   2.128   4.723 -0.6992 -0.4753  0.1620
 2589TIP3    H129258   1.721   2.088   4.758  0.0296 -0.6793 -1.6279
 2589TIP3    H229259   1.582   2.054   4.710 -0.3859 -0.6184 -0.4959
 2590TIP3   OH229260   0.515   5.325  14.254 -0.1614 -0.8484  0.3545
 2590TIP3    H129261   0.506   5.232  14.275 -2.9620 -0.5387  0.9736
 2590TIP3    H229262   0.432   5.364  14.282  0.2172  1.5426 -1.4956
 2591TIP3   OH229263   2.644   2.050  14.479  0.1242 -0.3769 -0.5166
 2591TIP3    H129264   2.562   2.073  14.434 -0.4477  1.0685  1.1226
 2591TIP3    H229265   2.634   2.087  14.567  1.8207 -1.7378  0.3188
 2592TIP3   OH229266   3.314   1.497   3.757  0.1755 -0.1780 -0.1562
 2592TIP3    H129267   3.230   1.543   3.753 -0.5941 -1.3539  1.3295
 2592TIP3    H229268   3.334   1.475   3.666 -1.7192 -0.8799 -0.4355
 2593TIP3   OH229269   6.639   1.995  12.680 -0.1985 -0.2384 -0.3166
 2593TIP3    H129270   6.619   2.058  12.612  1.2557  0.6044 -0.0029
 2593TIP3    H229271   6.572   2.010  12.747  0.0934  0.9419 -0.2725
 2594TIP3   OH229272   2.386   4.505   1.245 -0.0300  0.5445 -0.1460
 2594TIP3    H129273   2.460   4.461   1.287  0.9468  3.2160  1.1885
 2594TIP3    H229274   2.313   4.492   1.305 -0.0711 -0.1991 -0.3471
 2595TIP3   OH229275   5.623   2.927   4.114  0.1602  0.0969  0.2955
 2595TIP3    H129276   5.586   3.003   4.160 -0.3120  1.3078 -1.9723
 2595TIP3    H229277   5.549   2.890   4.066  0.3793 -1.8709  1.3692
 2596TIP3   OH229278   1.487   6.559  17.084 -0.4579 -0.1515  0.2832
 2596TIP3    H129279   1.463   6.529  17.172  0.1613 -0.1763  0.4499
 2596TIP3    H229280   1.561   6.619  17.098  0.2867 -0.9041 -0.2848
 2597TIP3   OH229281   0.411   3.798  13.735  0.4742  0.6048 -0.8694
 2597TIP3    H129282   0.365   3.765  13.812 -0.0077 -1.7803 -2.0895
 2597TIP3    H229283   0.343   3.810  13.669  1.3015 -1.3820 -2.1718
 2598TIP3   OH229284   4.043   3.018   5.909 -1.0192 -0.0585 -0.2366
 2598TIP3    H129285   4.122   3.026   5.963 -0.7281  0.8749 -0.7823
 2598TIP3    H229286   4.014   2.928   5.923 -0.0537 -0.3123  0.2463
 2599TIP3   OH229287   2.189   3.448   3.140 -0.7211 -0.1808 -0.2401
 2599TIP3    H129288   2.202   3.526   3.086  2.4066 -0.7439 -0.4932
 2599TIP3    H229289   2.157   3.382   3.079 -0.2775  0.0591 -0.7515
 2600TIP3   OH229290   3.310   5.424  10.583  0.2509 -0.0681 -0.0748
 2600TIP3    H129291   3.329   5.516  10.600 -0.5686 -0.0141  0.5690
 2600TIP3    H229292   3.388   5.392  10.538  0.4551  0.9916 -0.5069
 2601TIP3   OH229293   0.591   4.870   3.455 -0.4402 -0.5914 -0.2366
 2601TIP3    H129294   0.504   4.901   3.482 -0.3049 -1.1825  0.9300
 2601TIP3    H229295   0.576   4.828   3.370 -1.2831 -0.5927 -0.0992
 2602TIP3   OH229296   5.773   4.328   1.100  0.1231 -0.1731  0.0861
 2602TIP3    H129297   5.698   4.293   1.051  0.0017  0.3451 -0.1087
 2602TIP3    H229298   5.845   4.269   1.080  0.0736  0.0220 -0.7184
 2603TIP3   OH229299   2.016   6.370   0.498 -0.2980 -0.0577  0.2667
 2603TIP3    H129300   1.941   6.335   0.450 -0.3487  1.4258 -0.8223
 2603TIP3    H229301   2.075   6.404   0.430  1.8434 -1.9778  1.0343
 2604TIP3   OH229302   2.124   1.267  17.156  0.0048 -0.2925  0.1361
 2604TIP3    H129303   2.046   1.287  17.104  0.9658  1.4240 -0.7223
 2604TIP3    H229304   2.097   1.194  17.212 -2.3384  0.5131  0.1638
 2605TIP3   OH229305   3.021   6.672   3.044  0.1450 -0.2435 -0.1851
 2605TIP3    H129306   2.997   6.624   3.124 -0.0014 -0.4435 -0.3477
 2605TIP3    H229307   2.949   6.735   3.032  1.5767  1.8674  1.4866
 2606TIP3   OH229308   0.193   5.859   2.616 -0.6081 -0.2147  0.3806
 2606TIP3    H129309   0.112   5.891   2.656 -0.6359 -1.5563  1.4456
 2606TIP3    H229310   0.231   5.801   2.681 -0.1710 -1.7585 -1.1765
 2607TIP3   OH229311   6.009   6.100  12.578  0.1391  0.7070 -0.3788
 2607TIP3    H129312   5.944   6.158  12.538  0.6591  0.9069 -0.9488
 2607TIP3    H229313   5.974   6.082  12.666 -2.0535 -1.3827 -1.5567
 2608TIP3   OH229314   1.842   2.399  11.820  0.3676 -0.1552 -0.0845
 2608TIP3    H129315   1.829   2.481  11.774  1.0103 -0.0310 -0.0586
 2608TIP3    H229316   1.760   2.384  11.867  0.7807  1.2693  1.1739
 2609TIP3   OH229317   5.175   5.149   4.203  0.3444  0.0863  0.3113
 2609TIP3    H129318   5.235   5.103   4.262 -2.9056 -2.1883  2.1616
 2609TIP3    H229319   5.154   5.084   4.136 -0.2773  0.7392 -0.1347
 2610TIP3   OH229320   4.886   1.949   3.487  0.0605 -0.1516 -0.6590
 2610TIP3    H129321   4.907   2.029   3.535  0.1289 -0.6256  0.1283
 2610TIP3    H229322   4.967   1.898   3.488 -0.3035 -0.7478 -0.0855
 2611TIP3   OH229323   2.305   0.591   1.274 -0.0078 -0.3074 -0.2948
 2611TIP3    H129324   2.368   0.532   1.233  0.0699  0.1894 -0.9036
 2611TIP3    H229325   2.287   0.658   1.208 -0.1392  0.3190  0.3564
 2612TIP3   OH229326   2.545   3.795  12.320 -0.1622  0.3947  0.4150
 2612TIP3    H129327   2.483   3.867  12.313 -0.7319 -0.0668  0.6606
 2612TIP3    H229328   2.583   3.787  12.232 -1.2987 -0.0728 -0.0495
 2613TIP3   OH229329   3.286   0.668  14.888 -0.0759 -0.0765 -0.4555
 2613TIP3    H129330   3.260   0.660  14.797  1.0755 -1.6187 -0.6814
 2613TIP3    H229331   3.297   0.578  14.918 -0.9229  0.3763  1.3733
 2614TIP3   OH229332   0.593   6.084   3.732 -0.6429  0.0532  0.0290
 2614TIP3    H129333   0.643   6.135   3.795  3.6555 -2.5384 -0.8644
 2614TIP3    H229334   0.597   6.135   3.651 -2.4020  1.3519  0.7050
 2615TIP3   OH229335   6.326   1.832  15.507 -0.1491  0.4807 -0.3487
 2615TIP3    H129336   6.320   1.764  15.440 -3.0759 -0.0360  0.3280
 2615TIP3    H229337   6.377   1.791  15.577 -0.9767 -0.6723 -0.3830
 2616TIP3   OH229338   0.779   1.719   5.196 -0.1426  0.6429 -0.5557
 2616TIP3    H129339   0.775   1.683   5.284 -1.5628  1.0343 -0.4477
 2616TIP3    H229340   0.852   1.781   5.198  1.8212 -1.5169 -0.5155
 2617TIP3   OH229341   3.124   0.196   3.757  0.1420  0.3227  0.1952
 2617TIP3    H129342   3.060   0.202   3.827  0.6945 -0.6088  0.7985
 2617TIP3    H229343   3.074   0.169   3.680 -0.5117  1.6168  0.1323
 2618TIP3   OH229344   3.472   1.637  16.460  0.0076  0.3711  0.1299
 2618TIP3    H129345   3.439   1.675  16.541  0.4370 -1.7315  1.3569
 2618TIP3    H229346   3.527   1.564  16.488  1.2019  0.3520 -2.0339
 2619TIP3   OH229347   2.423   3.590  10.330  0.0858  0.0988 -0.6613
 2619TIP3    H129348   2.361   3.519  10.314 -0.0281  0.1026 -0.2553
 2619TIP3    H229349   2.490   3.578  10.263  0.7226 -1.1495  0.1574
 2620TIP3   OH229350   5.901   5.380   1.152 -0.5097  0.4866  0.1706
 2620TIP3    H129351   5.866   5.309   1.099  0.3285 -0.0711  0.3365
 2620TIP3    H229352   5.971   5.339   1.203  0.1290  1.4756  0.1123
 2621TIP3   OH229353   3.722   2.026   1.467 -0.4525 -0.0356  0.3404
 2621TIP3    H129354   3.773   1.956   1.507 -1.1927 -0.1663  1.0729
 2621TIP3    H229355   3.632   1.994   1.469 -0.9182  1.2948  1.4684
 2622TIP3   OH229356   4.348   5.004   0.489  0.2763 -0.2917 -0.3389
 2622TIP3    H129357   4.435   4.966   0.480  1.0813  1.0551  1.1121
 2622TIP3    H229358   4.310   4.959   0.565  0.0948 -0.2068 -0.3792
 2623TIP3   OH229359   3.097   0.785  16.929  0.1184  0.3341 -0.0438
 2623TIP3    H129360   3.098   0.772  17.024 -0.8775  1.4328  0.1352
 2623TIP3    H229361   3.101   0.696  16.893 -0.1970 -0.1325  1.0327
 2624TIP3   OH229362   1.965   5.566  11.888  0.3627  0.7515 -0.1990
 2624TIP3    H129363   2.022   5.557  11.812  1.0315 -0.3838  0.4173
 2624TIP3    H229364   1.957   5.661  11.901  0.1485  0.9669 -1.7279
 2625TIP3   OH229365   0.362   0.591  13.274 -0.2010 -0.3792  0.4973
 2625TIP3    H129366   0.308   0.518  13.244  0.9729 -1.4932  0.9794
 2625TIP3    H229367   0.442   0.584  13.222  0.2408  0.0888  1.0959
 2626TIP3   OH229368   1.364   0.100   5.577  0.8331  0.3037  0.3144
 2626TIP3    H129369   1.412   0.023   5.607 -0.2623 -0.4622  0.1583
 2626TIP3    H229370   1.432   0.165   5.559  1.7722 -0.5800  0.5652
 2627TIP3   OH229371   4.305   0.671   0.212 -0.0070 -0.1499  0.3171
 2627TIP3    H129372   4.305   0.765   0.234  0.0377 -0.0444 -0.1348
 2627TIP3    H229373   4.212   0.651   0.199  0.0837  0.1192 -0.8028
 2628TIP3   OH229374   2.390   6.384  17.060 -0.4043  0.0726  0.0173
 2628TIP3    H129375   2.311   6.377  17.114 -0.7912 -0.5427 -0.6055
 2628TIP3    H229376   2.387   6.474  17.027 -0.7040  0.1391  0.2170
 2629TIP3   OH229377   2.837   5.983  12.853 -1.2238 -0.0708 -0.0765
 2629TIP3    H129378   2.844   5.980  12.758  0.0416 -1.9478  0.0216
 2629TIP3    H229379   2.745   6.005  12.870 -1.7702 -0.9242 -1.7320
 2630TIP3   OH229380   0.686   6.063   5.564  0.0431  0.2567 -0.2037
 2630TIP3    H129381   0.739   6.077   5.485 -1.0695 -1.9308 -1.4365
 2630TIP3    H229382   0.749   6.066   5.636  1.6051 -0.5661 -1.4644
 2631TIP3   OH229383   1.772   2.284   6.173  0.0150  0.0946  0.0632
 2631TIP3    H129384   1.702   2.346   6.197 -1.0325 -0.8561 -0.4466
 2631TIP3    H229385   1.730   2.198   6.177  1.3447 -0.5645  0.3625
 2632TIP3   OH229386   2.696   6.043  13.672 -0.6391 -0.1500 -0.0983
 2632TIP3    H129387   2.693   5.961  13.721  1.0776 -0.2954 -0.1788
 2632TIP3    H229388   2.743   6.020  13.591  1.1971  1.1972  0.5240
 2633TIP3   OH229389   1.761   3.708  15.218  0.1337 -0.1318 -0.2481
 2633TIP3    H129390   1.847   3.732  15.183  0.3007 -1.8770 -1.1906
 2633TIP3    H229391   1.702   3.712  15.143 -0.1279 -1.0477 -0.1116
 2634TIP3   OH229392   4.708   2.793  16.532  0.1139 -0.2554  0.2776
 2634TIP3    H129393   4.678   2.822  16.618  2.7517  0.6064  1.0066
 2634TIP3    H229394   4.793   2.836  16.520  1.0300 -2.3583 -1.6370
 2635TIP3   OH229395   1.149   5.932  12.950  0.7847 -0.3167  0.0408
 2635TIP3    H129396   1.089   6.001  12.922  0.7194 -0.6437 -0.6563
 2635TIP3    H229397   1.112   5.852  12.911  2.9653 -0.2106 -2.4960
 2636TIP3   OH229398   5.490   5.037   0.616  0.2695 -0.0638 -0.1360
 2636TIP3    H129399   5.578   5.006   0.639  0.7800  0.7983 -0.8306
 2636TIP3    H229400   5.461   4.978   0.547  1.3090  1.0118 -1.5751
 2637TIP3   OH229401   4.519   1.736   0.464  0.1353  0.2803 -0.1685
 2637TIP3    H129402   4.590   1.787   0.423  0.5298  0.3569  0.6012
 2637TIP3    H229403   4.564   1.667   0.513 -0.3087  0.4358  0.4690
 2638TIP3   OH229404   1.378   6.688  15.529 -0.0220  0.1321 -0.3362
 2638TIP3    H129405   1.417   6.601  15.534 -0.5187 -0.1538 -1.2276
 2638TIP3    H229406   1.284   6.672  15.534 -0.1967  0.4646 -2.0258
 2639TIP3   OH229407   4.815   5.095  12.279  0.8304 -0.0954 -0.0995
 2639TIP3    H129408   4.748   5.055  12.223 -1.0378  2.3931  0.1628
 2639TIP3    H229409   4.827   5.033  12.350  0.0404 -1.3617 -1.0381
 2640TIP3   OH229410   3.966   3.327  11.951  0.3020  0.3951  1.1429
 2640TIP3    H129411   3.920   3.372  11.880 -1.4727 -0.1779  1.8550
 2640TIP3    H229412   4.029   3.271  11.908 -1.9308 -1.2763 -0.1569
 2641TIP3   OH229413   6.371   4.052  11.075  0.2613  0.0207 -0.4781
 2641TIP3    H129414   6.442   4.105  11.037  0.1422 -0.0462 -0.8008
 2641TIP3    H229415   6.347   3.991  11.005  1.3117 -1.3892  0.3406
 2642TIP3   OH229416   6.306   4.188  11.961 -0.2442 -0.1971  0.1025
 2642TIP3    H129417   6.297   4.113  12.020 -1.1288 -0.7638 -0.7131
 2642TIP3    H229418   6.243   4.252  11.993 -0.5928 -0.4296 -0.1169
 2643TIP3   OH229419   2.355   2.991  15.334 -0.3410 -0.0520  0.1458
 2643TIP3    H129420   2.412   2.998  15.258  0.7653  1.7369  1.0786
 2643TIP3    H229421   2.304   3.072  15.334 -3.0525 -1.6189 -0.7069
 2644TIP3   OH229422   1.155   6.195   2.391  0.1543  0.2752  0.7292
 2644TIP3    H129423   1.123   6.251   2.320  0.3003 -0.7425 -0.1552
 2644TIP3    H229424   1.250   6.198   2.383  0.1913  0.5528  1.2062
 2645TIP3   OH229425   6.598   1.896   0.724 -0.1880  0.0668  0.6653
 2645TIP3    H129426   6.552   1.813   0.736  1.9867 -1.7110 -2.0254
 2645TIP3    H229427   6.557   1.935   0.646  0.8037 -0.0642  0.0578
 2646TIP3   OH229428   4.383   2.346  10.348  0.2763  0.5999  0.2288
 2646TIP3    H129429   4.379   2.287  10.423  0.8513  0.2437 -0.0147
 2646TIP3    H229430   4.441   2.416  10.375 -1.0432  1.4982  0.8125
 2647TIP3   OH229431   5.688   4.209  12.596  0.2174  0.5795  0.3444
 2647TIP3    H129432   5.700   4.244  12.508 -1.0577  1.1725  0.3760
 2647TIP3    H229433   5.732   4.125  12.595 -0.8079  0.0251 -1.2482
 2648TIP3   OH229434   3.123   6.152   0.563 -0.1351 -0.0111  0.2299
 2648TIP3    H129435   3.064   6.110   0.626 -1.4792  0.6523 -0.5547
 2648TIP3    H229436   3.066   6.206   0.508  1.0877 -0.0639 -1.1570
 2649TIP3   OH229437   2.054   0.357   0.061 -0.6058 -0.4018 -0.0239
 2649TIP3    H129438   2.071   0.340   0.154 -0.5652  1.6934  0.4116
 2649TIP3    H229439   2.121   0.307   0.015  0.1804 -0.4827  1.1441
 2650TIP3   OH229440   0.230   3.880  14.234 -0.1356  0.0609  0.1719
 2650TIP3    H129441   0.242   3.860  14.326 -1.5477  0.3398  0.4390
 2650TIP3    H229442   0.143   3.920  14.229  0.4471  1.2622 -1.0816
 2651TIP3   OH229443   6.197   6.406  16.470 -0.4905  0.0770  0.1929
 2651TIP3    H129444   6.129   6.375  16.410  0.6975 -1.3053 -0.4802
 2651TIP3    H229445   6.279   6.393  16.423  0.2809  1.7711  0.9695
 2652TIP3   OH229446   3.292   1.655   0.229 -0.1651  0.1941 -0.2586
 2652TIP3    H129447   3.315   1.614   0.146 -1.6690  0.0170 -0.6217
 2652TIP3    H229448   3.212   1.703   0.211 -0.3412  0.4207  1.0109
 2653TIP3   OH229449   4.870   5.127  17.039 -0.1454  0.4851 -0.2904
 2653TIP3    H129450   4.843   5.049  16.991  0.2812  1.4065 -2.1346
 2653TIP3    H229451   4.950   5.101  17.085 -1.0650 -0.6799  0.6952
 2654TIP3   OH229452   4.435   2.746  15.806  0.3187  0.0355 -0.1346
 2654TIP3    H129453   4.470   2.683  15.743  1.5275 -0.6051  1.1310
 2654TIP3    H229454   4.507   2.808  15.820 -0.3678  0.8912 -0.2917
 2655TIP3   OH229455   3.320   0.794   1.896  0.2396  0.2230  0.0066
 2655TIP3    H129456   3.388   0.769   1.959  1.1560  1.5148 -0.4459
 2655TIP3    H229457   3.238   0.772   1.940  0.9087 -2.1826  0.2351
 2656TIP3   OH229458   6.653   5.575   2.889 -0.2170 -0.9700  0.5787
 2656TIP3    H129459   6.648   5.538   2.977 -0.1950 -1.0778  0.5340
 2656TIP3    H229460   6.709   5.652   2.899  0.5647 -1.5214  0.4735
 2657TIP3   OH229461   2.334   5.820   4.902 -0.6187 -0.5394 -0.2353
 2657TIP3    H129462   2.271   5.770   4.850  0.2695 -1.9101 -0.0333
 2657TIP3    H229463   2.416   5.811   4.854 -0.1863 -0.2853  0.4526
 2658TIP3   OH229464   1.701   5.941  15.825 -0.4284 -0.2957  0.2856
 2658TIP3    H129465   1.681   6.023  15.870 -4.3520 -1.3733  0.8878
 2658TIP3    H229466   1.643   5.940  15.749 -0.6442 -2.5132  0.3974
 2659TIP3   OH229467   5.581   1.960  11.478  0.6250 -0.0256  0.1187
 2659TIP3    H129468   5.594   1.933  11.387  1.0905  0.0329  0.1663
 2659TIP3    H229469   5.510   2.024  11.474 -0.5417 -1.2819  0.0133
 2660TIP3   OH229470   2.233   4.225   2.573 -0.1592 -1.5319  0.1369
 2660TIP3    H129471   2.319   4.252   2.542 -0.2127 -1.7186 -0.1842
 2660TIP3    H229472   2.244   4.133   2.598 -0.8713 -2.3953 -2.4144
 2661TIP3   OH229473   6.092   5.054  15.068 -0.0430  0.0727 -0.1469
 2661TIP3    H129474   6.186   5.056  15.051 -0.0400 -0.4578 -0.1997
 2661TIP3    H229475   6.082   5.094  15.154  0.5316 -2.3555  1.1368
 2662TIP3   OH229476   2.194   4.847  13.133 -0.1044 -0.0416  0.1204
 2662TIP3    H129477   2.241   4.927  13.157  1.4774 -0.6741 -0.7424
 2662TIP3    H229478   2.142   4.871  13.057 -0.6373  0.4896  0.6495
 2663TIP3   OH229479   3.878   2.622   2.788 -0.1169 -0.0928  0.2523
 2663TIP3    H129480   3.856   2.674   2.865  2.1799  0.8700  0.3657
 2663TIP3    H229481   3.794   2.595   2.752 -1.3155  1.2422  1.8674
 2664TIP3   OH229482   3.748   4.669   4.765 -0.4709 -0.1969 -0.4326
 2664TIP3    H129483   3.659   4.653   4.736 -0.3181  0.7069 -1.4380
 2664TIP3    H229484   3.764   4.601   4.831 -0.2713 -3.5539 -3.5833
 2665TIP3   OH229485   2.934   5.771  12.991  0.1400 -0.1838  0.3968
 2665TIP3    H129486   2.972   5.711  12.927  1.6756  0.3713  0.7371
 2665TIP3    H229487   2.894   5.841  12.938  1.8070  0.5182 -0.0036
 2666TIP3   OH229488   4.734   5.085  11.559  0.1085  0.2519 -0.1215
 2666TIP3    H129489   4.738   5.072  11.464  0.4153 -1.8008  0.1406
 2666TIP3    H229490   4.798   5.024  11.594 -1.1942 -0.2242  1.5202
 2667TIP3   OH229491   1.481   0.548   0.831 -0.1348 -0.0071 -0.2846
 2667TIP3    H129492   1.557   0.585   0.876 -1.3007  1.3768  0.6596
 2667TIP3    H229493   1.452   0.477   0.888  0.3111 -0.4103 -0.5486
 2668TIP3   OH229494   6.052   3.881  11.874 -0.3022 -0.4315 -0.0217
 2668TIP3    H129495   6.139   3.899  11.840 -1.5577  2.4589 -2.1478
 2668TIP3    H229496   6.058   3.901  11.967  1.1702  0.3105 -0.2498
 2669TIP3   OH229497   1.398   5.542  12.330  0.1071 -0.2067 -0.3693
 2669TIP3    H129498   1.488   5.513  12.318  0.0161  0.0724 -1.8696
 2669TIP3    H229499   1.405   5.635  12.350  0.1536 -0.2140 -0.3512
 2670TIP3   OH229500   0.311   3.170  10.464 -0.2106  0.0639 -0.3298
 2670TIP3    H129501   0.240   3.128  10.512 -0.0234  0.6837  0.5236
 2670TIP3    H229502   0.384   3.109  10.469 -0.0214  0.3536  0.6697
 2671TIP3   OH229503   5.987   1.082   4.857  0.6445  0.3268 -0.0680
 2671TIP3    H129504   5.998   0.996   4.898 -0.7416 -0.2254 -0.8033
 2671TIP3    H229505   6.055   1.136   4.897  1.2052 -0.9656  0.7942
 2672TIP3   OH229506   1.173   2.325  13.728 -0.5671 -0.9950 -0.0221
 2672TIP3    H129507   1.142   2.391  13.790  1.3761  0.2762 -0.3003
 2672TIP3    H229508   1.110   2.328  13.656  0.2548  1.7322 -0.7548
 2673TIP3   OH229509   2.611   1.174  13.878 -0.3382  0.3767 -0.7315
 2673TIP3    H129510   2.691   1.132  13.908  0.0925 -0.6936 -3.1457
 2673TIP3    H229511   2.631   1.268  13.879  1.2470  0.1043 -1.9031
 2674TIP3   OH229512   5.269   4.146  14.316 -0.0223 -0.0238  0.5392
 2674TIP3    H129513   5.326   4.207  14.269  0.5478 -0.1372  1.0648
 2674TIP3    H229514   5.328   4.097  14.373 -0.7918  0.8970  2.2144
 2675TIP3   OH229515   0.263   2.912  15.310 -0.2801 -0.1137 -0.8472
 2675TIP3    H129516   0.266   2.833  15.364 -0.4483 -0.7324 -1.7302
 2675TIP3    H229517   0.226   2.979  15.367  0.3092 -0.5457  0.0622
 2676TIP3   OH229518   6.240   6.617  14.560  0.0506  0.0150  0.5283
 2676TIP3    H129519   6.286   6.694  14.527  1.6467 -1.2501 -0.3611
 2676TIP3    H229520   6.293   6.587  14.634  0.1071 -0.8889  0.1299
 2677TIP3   OH229521   1.058   1.539   0.381  0.3923  0.4043 -0.2897
 2677TIP3    H129522   1.066   1.633   0.365  0.2157  0.6122  0.7591
 2677TIP3    H229523   1.000   1.508   0.312 -1.7394  1.5575  0.8990
 2678TIP3   OH229524   5.871   0.656  14.824  0.7877 -0.0986  0.7647
 2678TIP3    H129525   5.817   0.630  14.749 -1.9535  0.1520  2.5239
 2678TIP3    H229526   5.868   0.752  14.823  2.4082 -0.0138  0.1399
 2679TIP3   OH229527   0.314   0.526   4.197 -0.2755  0.2081  0.2913
 2679TIP3    H129528   0.364   0.596   4.240 -2.0679  1.5897  0.2612
 2679TIP3    H229529   0.366   0.504   4.120  0.4849  1.3246  0.4541
 2680TIP3   OH229530   1.654   5.930  16.629 -0.5777  0.2136 -0.0620
 2680TIP3    H129531   1.631   5.972  16.546  0.4468  0.3036 -0.3131
 2680TIP3    H229532   1.638   5.997  16.696 -2.2457 -0.1428 -0.0721
 2681TIP3   OH229533   2.112   1.359  11.173 -0.1179  0.4964  0.7235
 2681TIP3    H129534   2.138   1.285  11.119  0.4777 -0.4078  2.1885
 2681TIP3    H229535   2.190   1.382  11.223 -0.0618  2.6385 -0.2305
 2682TIP3   OH229536   1.394   5.433  10.162  0.0287 -0.7864 -0.3180
 2682TIP3    H129537   1.446   5.470  10.233 -0.6880 -0.5732  0.1088
 2682TIP3    H229538   1.312   5.407  10.204 -0.7218  0.0834 -1.1987
 2683TIP3   OH229539   6.191   6.435   4.554  0.0197 -0.3639 -0.0511
 2683TIP3    H129540   6.128   6.423   4.483  1.3658 -1.5452 -1.1049
 2683TIP3    H229541   6.250   6.360   4.546  2.4514  1.4402 -0.0329
 2684TIP3   OH229542   0.771   4.047  10.776  0.1819 -0.7485  0.0212
 2684TIP3    H129543   0.734   3.963  10.748  1.9244 -1.4748 -0.2477
 2684TIP3    H229544   0.865   4.037  10.764  0.4910  1.0361  0.6020
 2685TIP3   OH229545   1.209   5.896  14.240  0.0619  0.0917  0.3944
 2685TIP3    H129546   1.159   5.959  14.292  0.2559  0.2945  0.3388
 2685TIP3    H229547   1.179   5.910  14.150  0.1650  0.1646  0.3710
 2686TIP3   OH229548   6.209   1.684   0.104  0.3310  1.0395 -0.2036
 2686TIP3    H129549   6.130   1.729   0.134 -0.7427 -0.8763 -0.0246
 2686TIP3    H229550   6.278   1.715   0.163 -1.1495 -0.4709  2.5360
 2687TIP3   OH229551   4.274   4.621  14.267  0.2309 -0.2120 -0.6147
 2687TIP3    H129552   4.352   4.606  14.320 -0.2833  0.9026  0.5229
 2687TIP3    H229553   4.201   4.600  14.326 -0.3724  1.9809 -0.4885
 2688TIP3   OH229554   2.743   4.452  13.746  0.2020 -0.2585  0.1002
 2688TIP3    H129555   2.820   4.480  13.796  0.7023 -0.4960 -0.5172
 2688TIP3    H229556   2.771   4.370  13.704 -0.0168  0.2114 -0.9878
 2689TIP3   OH229557   3.542   5.540   1.138 -0.4205 -0.7916  0.3053
 2689TIP3    H129558   3.501   5.519   1.054 -0.2991 -0.4217  0.1541
 2689TIP3    H229559   3.528   5.461   1.191  0.2468 -1.3502 -0.3327
 2690TIP3   OH229560   3.784   6.674   5.636 -0.5743 -0.8184 -0.4783
 2690TIP3    H129561   3.734   6.610   5.687  0.7265  0.6299  2.8722
 2690TIP3    H229562   3.719   6.740   5.610 -1.2313 -1.4543 -0.4707
 2691TIP3   OH229563   2.464   6.685  17.026 -0.2402  0.6100  0.4775
 2691TIP3    H129564   2.392   6.716  17.081 -0.9112  0.3875 -0.2678
 2691TIP3    H229565   2.450   6.727  16.942 -0.2874 -0.4901 -0.0859
 2692TIP3   OH229566   6.779   2.039   3.080  0.0947  0.8899 -0.5681
 2692TIP3    H129567   6.708   2.065   3.139  0.6905 -0.9595  1.0678
 2692TIP3    H229568   6.736   2.023   2.996 -1.3596  0.2472  0.2608
 2693TIP3   OH229569   6.527   2.706   2.947  0.1356 -0.2008 -0.1002
 2693TIP3    H129570   6.455   2.761   2.977  0.6106 -0.6454  1.9694
 2693TIP3    H229571   6.569   2.676   3.027  1.7844 -1.0709 -1.2493
 2694TIP3   OH229572   4.423   4.426   0.427  0.1945  0.0488  0.0422
 2694TIP3    H129573   4.346   4.483   0.420  0.1778  0.0910  0.5192
 2694TIP3    H229574   4.497   4.483   0.404  0.1756  0.2630  0.4976
 2695TIP3   OH229575   0.147   3.619   2.955 -0.2194 -0.6527  0.3274
 2695TIP3    H129576   0.109   3.570   3.028  0.0432  0.5359  1.2983
 2695TIP3    H229577   0.080   3.685   2.934 -0.1502 -0.7733 -0.2962
 2696TIP3   OH229578   1.227   1.597   2.102 -0.8860 -0.6950  0.3189
 2696TIP3    H129579   1.199   1.673   2.052  0.7075 -0.0168  0.3990
 2696TIP3    H229580   1.154   1.578   2.160 -1.6494  0.2355 -0.3046
 2697TIP3   OH229581   2.061   3.143   3.078 -0.2990  0.0813 -0.0405
 2697TIP3    H129582   2.128   3.088   3.119  0.5844  1.3593  0.3097
 2697TIP3    H229583   2.063   3.117   2.986 -0.6727 -1.2063  0.2921
 2698TIP3   OH229584   5.616   1.703  11.112  0.1398  0.1503 -0.0221
 2698TIP3    H129585   5.645   1.683  11.201  1.3192  0.5652 -0.2894
 2698TIP3    H229586   5.696   1.697  11.059 -0.2621  1.3353 -0.7975
 2699TIP3   OH229587   2.317   1.795  15.464  0.0067 -0.2901  0.1242
 2699TIP3    H129588   2.411   1.811  15.472  0.0692  0.4562 -1.5495
 2699TIP3    H229589   2.278   1.844  15.536  0.5291  4.4056 -2.3545
 2700TIP3   OH229590   0.722   0.306   2.451 -0.5319 -0.0121 -0.8201
 2700TIP3    H129591   0.808   0.322   2.412  0.1840  0.1125  0.7111
 2700TIP3    H229592   0.732   0.336   2.542 -2.2499  0.1479 -0.6570
 2701TIP3   OH229593   4.813   5.165   5.672  0.2441 -0.0456 -0.5474
 2701TIP3    H129594   4.893   5.197   5.629  0.3489 -0.3554 -0.5833
 2701TIP3    H229595   4.841   5.139   5.759  0.0840  0.3159 -0.3841
 2702TIP3   OH229596   6.150   0.832  11.980 -0.3544 -0.1221  0.0644
 2702TIP3    H129597   6.144   0.908  11.923 -1.8605  0.5447  1.0559
 2702TIP3    H229598   6.098   0.764  11.936  0.5066 -0.4162 -0.5299
 2703TIP3   OH229599   2.634   1.382  12.944 -0.2659 -0.2521 -0.1759
 2703TIP3    H129600   2.691   1.391  12.868  1.8607  2.1610  1.5217
 2703TIP3    H229601   2.547   1.405  12.912  0.6660  1.2704 -1.7809
 2704TIP3   OH229602   3.512   2.273  15.996  0.2300  0.1744  0.2297
 2704TIP3    H129603   3.504   2.230  16.081 -1.2735  1.5188  0.8191
 2704TIP3    H229604   3.463   2.355  16.006  0.5855  0.6706 -1.7300
 2705TIP3   OH229605   2.583   5.634   0.971  0.2562  0.0537 -0.2784
 2705TIP3    H129606   2.539   5.564   0.924  0.4259 -0.6486  0.5815
 2705TIP3    H229607   2.650   5.665   0.910  0.4437 -0.8038 -0.5200
 2706TIP3   OH229608   2.592   4.074   2.620 -0.5066 -0.0115 -0.2894
 2706TIP3    H129609   2.660   4.139   2.605  0.5093 -0.8351  0.5196
 2706TIP3    H229610   2.578   4.033   2.535 -0.5859  0.7148 -0.6297
 2707TIP3   OH229611   5.745   2.472  16.085 -0.1931  0.2232  0.0611
 2707TIP3    H129612   5.794   2.547  16.052  0.6990 -0.4423 -0.1609
 2707TIP3    H229613   5.743   2.484  16.180  3.3107 -1.3580  0.5062
 2708TIP3   OH229614   4.292   6.498  16.378 -0.0075  0.2935  0.2890
 2708TIP3    H129615   4.281   6.546  16.460  0.0088  2.6302 -0.9680
 2708TIP3    H229616   4.381   6.464  16.381  1.5110  3.7590 -0.2922
 2709TIP3   OH229617   1.888   4.659  16.330  0.0741  0.0257  0.2325
 2709TIP3    H129618   1.966   4.615  16.295 -0.3980 -0.0425 -0.7822
 2709TIP3    H229619   1.817   4.597  16.316 -0.3574  0.5376  0.0906
 2710TIP3   OH229620   6.725   4.039   3.033  0.2480 -0.5266 -0.1224
 2710TIP3    H129621   6.650   4.076   2.986 -0.6481 -0.3733  1.3675
 2710TIP3    H229622   6.775   3.993   2.966 -1.1946 -0.6558 -1.1452
 2711TIP3   OH229623   1.899   6.089   6.325  0.2998 -0.0233 -0.5071
 2711TIP3    H129624   1.958   6.025   6.363 -1.0297 -0.1742  1.5016
 2711TIP3    H229625   1.847   6.040   6.262  2.0609  0.0578 -2.0998
 2712TIP3   OH229626   5.816   6.759  16.325  0.7749  0.0995  0.1589
 2712TIP3    H129627   5.898   6.759  16.374 -1.3890 -1.2559  4.2898
 2712TIP3    H229628   5.794   6.666  16.316 -0.2399  0.4281 -0.9498
 2713TIP3   OH229629   2.970   2.261  16.872  0.2451 -0.2937 -0.1952
 2713TIP3    H129630   2.979   2.338  16.817  0.9198  1.1139  1.7801
 2713TIP3    H229631   3.017   2.192  16.825  2.9721  1.4791 -0.2996
 2714TIP3   OH229632   5.700   3.537   0.530  0.0942  0.4818  0.4471
 2714TIP3    H129633   5.661   3.556   0.445 -0.5486  0.2883  0.6935
 2714TIP3    H229634   5.640   3.474   0.570  1.1314 -0.5152  0.4713
 2715TIP3   OH229635   3.091   0.959   2.695 -0.4976  0.0067 -0.4366
 2715TIP3    H129636   3.004   0.996   2.704 -0.1106  1.0217 -0.7471
 2715TIP3    H229637   3.126   0.957   2.784  0.0931  1.9747 -0.5836
 2716TIP3   OH229638   5.433   0.602  16.607 -0.2483  0.3879 -0.2585
 2716TIP3    H129639   5.488   0.529  16.637 -1.8744 -0.5053  0.6577
 2716TIP3    H229640   5.445   0.602  16.512 -0.7654 -1.5874 -0.3777
 2717TIP3   OH229641   0.506   2.737  11.201 -0.0744  0.5413  0.3619
 2717TIP3    H129642   0.466   2.805  11.146  0.1268  1.3010  1.1309
 2717TIP3    H229643   0.596   2.733  11.171 -0.4223 -0.4068 -0.6386
 2718TIP3   OH229644   1.798   4.783  15.684  0.1403 -1.0659  0.4485
 2718TIP3    H129645   1.755   4.698  15.675 -2.1170 -0.0281  0.5044
 2718TIP3    H229646   1.728   4.841  15.715  1.9264  0.5287  1.6978
 2719TIP3   OH229647   2.092   3.968  11.387 -0.2739 -0.2199 -0.5761
 2719TIP3    H129648   2.109   3.939  11.297 -1.9603  0.0801 -1.0255
 2719TIP3    H229649   2.145   4.047  11.397  0.6978 -0.8064 -0.9543
 2720TIP3   OH229650   4.992   5.692   5.747 -0.1275 -0.1562  0.3484
 2720TIP3    H129651   4.925   5.646   5.697  0.3831 -0.4845 -0.0430
 2720TIP3    H229652   5.069   5.636   5.743  0.3543  0.4877  0.2983
 2721TIP3   OH229653   4.721   2.648   4.152  0.4249 -0.2799  0.1090
 2721TIP3    H129654   4.646   2.598   4.185 -0.6113  1.4500  0.4988
 2721TIP3    H229655   4.727   2.623   4.060  0.9384 -2.2653  0.6288
 2722TIP3   OH229656   1.707   6.387  13.783  0.2831 -0.7727  0.1550
 2722TIP3    H129657   1.733   6.295  13.787 -1.4288 -1.2560  1.1205
 2722TIP3    H229658   1.756   6.423  13.709  0.3235 -2.6760 -0.7874
 2723TIP3   OH229659   2.408   4.619   4.407  0.2772  0.3969 -0.1389
 2723TIP3    H129660   2.340   4.675   4.370 -0.0180  0.3756  0.3553
 2723TIP3    H229661   2.488   4.642   4.359  0.0293  0.7981 -0.3618
 2724TIP3   OH229662   5.147   2.433  15.859  0.0057 -0.2658  0.3126
 2724TIP3    H129663   5.109   2.476  15.783 -0.2070  0.6896  0.9492
 2724TIP3    H229664   5.231   2.477  15.872 -0.2348  0.0116  0.9980
 2725TIP3   OH229665   6.796   6.540   0.862  0.6024 -0.3428  0.4225
 2725TIP3    H129666   6.789   6.448   0.836 -0.5935 -0.7175  1.8996
 2725TIP3    H229667   6.846   6.539   0.943 -1.5874 -0.0204  1.8470
 2726TIP3   OH229668   4.129   6.303   1.782 -0.5208  0.2446  0.2204
 2726TIP3    H129669   4.074   6.281   1.707  0.5655  0.4758 -0.6721
 2726TIP3    H229670   4.133   6.222   1.833  0.4579 -0.5847 -1.1113
 2727TIP3   OH229671   5.895   4.351  15.551 -0.0553 -0.3924 -0.2839
 2727TIP3    H129672   5.910   4.440  15.519  1.2382 -0.7422 -0.6996
 2727TIP3    H229673   5.806   4.353  15.585 -0.1329  0.9985 -0.5034
 2728TIP3   OH229674   6.785   5.626  16.591  0.2746  0.1947 -0.8991
 2728TIP3    H129675   6.728   5.656  16.520 -0.0556 -0.6641 -1.0130
 2728TIP3    H229676   6.773   5.691  16.660 -1.0238 -0.0738 -0.8405
 2729TIP3   OH229677   3.351   2.750  12.912  0.2001  0.1621  0.1680
 2729TIP3    H129678   3.392   2.757  12.826 -0.3093  1.2981 -0.0031
 2729TIP3    H229679   3.289   2.678  12.904  0.7313 -0.2536 -0.1770
 2730TIP3   OH229680   4.426   0.457   4.370 -0.2364 -0.3898 -0.4946
 2730TIP3    H129681   4.337   0.457   4.334 -0.6045  0.5917  0.3715
 2730TIP3    H229682   4.415   0.444   4.464  0.4809  0.4739 -0.2730
 2731TIP3   OH229683   0.276   1.702  11.873  0.0971 -0.1633 -0.4523
 2731TIP3    H129684   0.184   1.681  11.889 -0.0707  1.8295  1.6587
 2731TIP3    H229685   0.275   1.778  11.815  0.4171 -0.0881 -0.3648
 2732TIP3   OH229686   5.255   5.465   3.590  0.4455  0.5786 -0.4157
 2732TIP3    H129687   5.319   5.533   3.609 -0.1558  0.9149  0.4784
 2732TIP3    H229688   5.205   5.456   3.671  0.3878 -0.7991 -0.5827
 2733TIP3   OH229689   5.106   4.239   2.963  0.1872 -0.0600  0.0923
 2733TIP3    H129690   5.173   4.307   2.961 -1.4141  1.6075  0.2593
 2733TIP3    H229691   5.111   4.198   2.877  0.8205  0.6510 -0.2200
 2734TIP3   OH229692   5.338   0.325   5.806  0.2570  0.2750  0.5604
 2734TIP3    H129693   5.383   0.263   5.864 -0.9435 -0.8306  0.3798
 2734TIP3    H229694   5.389   0.405   5.812  1.6877 -0.6299  1.0703
 2735TIP3   OH229695   0.225   6.715  15.157  0.2631  0.1755  0.0764
 2735TIP3    H129696   0.212   6.630  15.200  0.2524  0.0578 -0.1596
 2735TIP3    H229697   0.182   6.706  15.072 -1.0221  0.8955  0.6139
 2736TIP3   OH229698   1.146   0.560  12.131 -0.6865 -0.1759 -0.6055
 2736TIP3    H129699   1.218   0.544  12.070 -0.1547 -0.0627 -0.0288
 2736TIP3    H229700   1.069   0.522  12.089 -0.1384 -1.0168 -0.8771
 2737TIP3   OH229701   3.306   2.263  13.604 -0.2039  0.5419  0.2450
 2737TIP3    H129702   3.363   2.255  13.527  0.9722  0.2240  1.1278
 2737TIP3    H229703   3.245   2.189  13.595  0.5425 -0.0700  0.1108
 2738TIP3   OH229704   6.102   3.050  15.587 -0.1793  0.8531 -0.0586
 2738TIP3    H129705   6.121   3.125  15.531  0.4849  0.7578  0.0352
 2738TIP3    H229706   6.166   2.984  15.562 -2.7318 -0.9631 -2.4594
 2739TIP3   OH229707   1.837   3.881   2.454 -1.0066  0.4917 -0.5981
 2739TIP3    H129708   1.915   3.846   2.412 -0.5165 -1.8824  1.9646
 2739TIP3    H229709   1.867   3.961   2.497  0.0467 -0.3326  0.2622
 2740TIP3   OH229710   0.683   1.928  11.492 -0.3856  0.0461  0.1221
 2740TIP3    H129711   0.624   1.995  11.527  0.4459  1.8270 -1.7273
 2740TIP3    H229712   0.630   1.848  11.490 -1.5244  0.6933  2.0264
 2741TIP3   OH229713   6.539   2.725  16.039  0.0710  0.0232  0.1220
 2741TIP3    H129714   6.614   2.671  16.066 -0.8957 -0.8988  1.0506
 2741TIP3    H229715   6.552   2.808  16.085  0.0957 -0.4351  0.9618
 2742TIP3   OH229716   1.735   4.995   3.520 -0.2343  0.2364 -0.0336
 2742TIP3    H129717   1.806   4.933   3.533  0.0396 -0.2026 -2.8253
 2742TIP3    H229718   1.727   5.042   3.603  1.1606 -1.8558  1.3758
 2743TIP3   OH229719   3.776   5.219   0.064 -0.8047 -0.3207  0.7278
 2743TIP3    H129720   3.732   5.208  -0.020  2.1547 -1.3389 -0.8260
 2743TIP3    H229721   3.813   5.133   0.083 -1.9448 -0.3128  3.5055
 2744TIP3   OH229722   0.418   2.443   3.882  0.2568  0.2872 -0.0416
 2744TIP3    H129723   0.460   2.374   3.831 -0.3105 -1.3337  1.5893
 2744TIP3    H229724   0.488   2.476   3.940  0.2553  0.3546 -0.0775
 2745TIP3   OH229725   1.726   0.886   3.368  0.2520  0.2267  0.1058
 2745TIP3    H129726   1.756   0.824   3.435  1.9067 -0.6656 -1.3744
 2745TIP3    H229727   1.644   0.848   3.336 -1.3696  1.4310  2.5481
 2746TIP3   OH229728   2.717   6.612  10.710  0.2549  0.2557 -0.0346
 2746TIP3    H129729   2.634   6.613  10.663 -0.0611  3.1827  0.3775
 2746TIP3    H229730   2.783   6.629  10.642  0.3771 -0.5593 -0.1312
 2747TIP3   OH229731   3.596   5.915  16.434 -0.2154  0.1405  0.0885
 2747TIP3    H129732   3.659   5.973  16.477  0.2502 -1.1016  1.1346
 2747TIP3    H229733   3.563   5.966  16.359  1.1724  1.2253  0.1891
 2748TIP3   OH229734   5.960   0.631   5.746  0.0111  0.0626 -0.5653
 2748TIP3    H129735   6.019   0.575   5.697  1.7468  0.8911  0.4995
 2748TIP3    H229736   5.885   0.643   5.688  0.7811 -1.1731 -1.8761
 2749TIP3   OH229737   2.752   2.447  12.538  0.2703 -0.2110  0.6627
 2749TIP3    H129738   2.791   2.393  12.470 -0.3238  0.7450 -0.4745
 2749TIP3    H229739   2.827   2.488  12.582  0.7250  2.8564 -2.5207
 2750TIP3   OH229740   5.432   5.345  16.468  0.1005 -0.0148 -0.3025
 2750TIP3    H129741   5.347   5.341  16.512 -0.8047  1.3323 -1.8226
 2750TIP3    H229742   5.461   5.436  16.481  0.8659 -0.2106 -0.5868
 2751TIP3   OH229743   5.829   3.797  10.987  0.1283 -0.5191 -0.5059
 2751TIP3    H129744   5.755   3.837  11.032  1.4892  0.7988  0.6614
 2751TIP3    H229745   5.801   3.707  10.971 -1.4014 -0.2877  0.6431
 2752TIP3   OH229746   0.917   4.045   2.211  0.0354  0.1580 -0.1446
 2752TIP3    H129747   0.834   4.074   2.173 -1.0812 -0.7756  1.4878
 2752TIP3    H229748   0.965   4.007   2.137 -0.7554  1.1745 -1.2142
 2753TIP3   OH229749   0.576   1.050   0.082 -0.2690 -0.0339 -0.1519
 2753TIP3    H129750   0.567   1.004  -0.001 -1.0507 -0.6154  0.2486
 2753TIP3    H229751   0.669   1.075   0.085 -0.1854 -0.1823 -1.0991
 2754TIP3   OH229752   5.314   6.631  17.023 -0.2511  0.5120 -0.4208
 2754TIP3    H129753   5.275   6.668  16.944 -0.0854  0.5323 -0.4948
 2754TIP3    H229754   5.350   6.547  16.996  2.3223  1.7329 -1.0712
 2755TIP3   OH229755   0.819   0.980   3.995  0.0244 -0.0283 -0.0520
 2755TIP3    H129756   0.757   1.036   3.948 -0.6543 -0.8994 -0.2057
 2755TIP3    H229757   0.878   1.042   4.038 -1.0296  0.8365  0.2169
 2756TIP3   OH229758   3.895   3.372   0.688  0.5178  0.7989  0.4656
 2756TIP3    H129759   3.934   3.335   0.767 -1.0849  0.0811  0.9821
 2756TIP3    H229760   3.947   3.450   0.669  1.7375  0.2555  1.4675
 2757TIP3   OH229761   6.316   1.888   2.053 -0.1126 -0.5382 -0.3841
 2757TIP3    H129762   6.291   1.961   2.110  2.1407  0.3678 -0.4731
 2757TIP3    H229763   6.237   1.871   2.001 -0.9066  1.3854  0.0905
 2758TIP3   OH229764   0.945   6.066   2.508 -0.5297 -0.5651  0.4775
 2758TIP3    H129765   1.029   6.096   2.472 -0.7709  0.6978  0.9170
 2758TIP3    H229766   0.881   6.126   2.471 -1.3183 -1.7334 -0.1327
 2759TIP3   OH229767   4.639   6.731  12.084  0.2799  0.6838 -0.4798
 2759TIP3    H129768   4.583   6.771  12.017  0.6600  0.9455 -0.6459
 2759TIP3    H229769   4.598   6.647  12.102  1.4421 -0.4711 -2.7621
 2760TIP3   OH229770   5.678   4.467  14.701  0.1547 -0.1176  0.2031
 2760TIP3    H129771   5.677   4.557  14.667 -0.6894  0.3459  1.3988
 2760TIP3    H229772   5.604   4.464  14.762  0.8253 -1.3172  0.9814
 2761TIP3   OH229773   6.419   1.817   6.458 -0.4052  0.2848 -0.1605
 2761TIP3    H129774   6.396   1.728   6.484  1.8067 -0.0898  0.7363
 2761TIP3    H229775   6.453   1.858   6.538  0.6265  1.2096 -1.0386
 2762TIP3   OH229776   3.095   5.079   3.828  0.3337  0.0473  0.3161
 2762TIP3    H129777   3.102   4.996   3.782 -0.4531 -0.3350  0.8625
 2762TIP3    H229778   3.080   5.144   3.760  0.7201 -0.2849 -0.0916
 2763TIP3   OH229779   3.223   5.535   3.000 -0.3244  0.1396  0.3879
 2763TIP3    H129780   3.136   5.536   3.040  0.0158 -4.2002  1.7680
 2763TIP3    H229781   3.209   5.504   2.911 -0.3076  0.9120  0.1140
 2764TIP3   OH229782   5.039   5.917   0.318  0.0392  0.1471 -0.6014
 2764TIP3    H129783   4.977   5.919   0.391 -0.0689 -0.1212 -0.6842
 2764TIP3    H229784   5.120   5.883   0.357  0.0609  0.2618 -0.5466
 2765TIP3   OH229785   3.930   0.530  13.840 -0.1457 -0.7008  0.0803
 2765TIP3    H129786   3.985   0.456  13.865 -2.6284 -2.5117  0.4883
 2765TIP3    H229787   3.850   0.520  13.892 -1.7495  0.6081 -1.9713
 2766TIP3   OH229788   5.019   6.168   2.481  0.3941  0.6359 -0.0611
 2766TIP3    H129789   5.011   6.085   2.435  0.1861  1.3861 -1.4428
 2766TIP3    H229790   5.107   6.166   2.519 -0.4334 -1.1667  1.9760
 2767TIP3   OH229791   0.383   6.244   1.173  0.6649 -0.3198  0.8014
 2767TIP3    H129792   0.322   6.314   1.195  1.2624  0.7547 -0.7745
 2767TIP3    H229793   0.399   6.199   1.256 -1.5987 -0.1254  1.4076
 2768TIP3   OH229794   3.087   4.367   4.782  0.3967 -0.2530  0.4398
 2768TIP3    H129795   3.014   4.429   4.784  0.3888 -0.1202 -1.9181
 2768TIP3    H229796   3.045   4.281   4.789 -0.0517 -0.1891 -1.1786
 2769TIP3   OH229797   4.898   0.294  14.577 -0.0258  0.0491 -0.1085
 2769TIP3    H129798   4.883   0.295  14.483  1.8802 -1.8238 -0.4994
 2769TIP3    H229799   4.945   0.213  14.594 -1.4200 -0.3093  2.6773
 2770TIP3   OH229800   1.433   2.118   0.473 -0.0179  0.0273 -0.1212
 2770TIP3    H129801   1.476   2.104   0.389 -0.6342  2.4651 -0.9301
 2770TIP3    H229802   1.500   2.097   0.538  2.0988  2.4800 -1.3094
 2771TIP3   OH229803   4.496   5.558  11.687 -0.1800 -0.5286  0.0466
 2771TIP3    H129804   4.553   5.625  11.650  1.6981 -2.0960 -0.1117
 2771TIP3    H229805   4.552   5.509  11.748 -1.4196 -1.9882  0.0958
 2772TIP3   OH229806   4.553   1.266   0.240 -0.5372  0.3883  0.3456
 2772TIP3    H129807   4.473   1.215   0.245 -0.7513  0.5023 -1.4288
 2772TIP3    H229808   4.524   1.357   0.242 -0.2828  0.4607  1.6889
 2773TIP3   OH229809   1.971   0.701   0.462  0.1771 -0.4098  0.0481
 2773TIP3    H129810   2.046   0.749   0.497  0.7757 -0.7346 -0.7605
 2773TIP3    H229811   1.979   0.709   0.367 -1.1165  0.0004 -0.0451
 2774TIP3   OH229812   4.611   6.484  12.412 -0.0165  0.4811  0.0009
 2774TIP3    H129813   4.576   6.560  12.459  1.1604  0.7706  0.4532
 2774TIP3    H229814   4.609   6.413  12.476 -0.9269  0.1755 -0.3597
 2775TIP3   OH229815   3.397   1.926  14.643 -0.3030  0.3995  0.5863
 2775TIP3    H129816   3.344   2.006  14.637 -0.2101  0.5967  1.9891
 2775TIP3    H229817   3.334   1.855  14.626 -0.4153  0.7582 -0.5271
 2776TIP3   OH229818   6.033   0.327   1.466  0.5610 -0.6529  0.7359
 2776TIP3    H129819   5.969   0.274   1.420  0.4945  0.1085 -0.0765
 2776TIP3    H229820   5.997   0.416   1.464  0.0198 -0.7388  3.2192
 2777TIP3   OH229821   1.639   5.832  13.534  0.1287 -0.4240  0.2554
 2777TIP3    H129822   1.571   5.765  13.524 -1.0571  0.9138 -1.1782
 2777TIP3    H229823   1.629   5.862  13.625  0.6833 -2.1058  0.9329
 2778TIP3   OH229824   0.585   2.705   4.950  0.0094 -0.2197 -0.1429
 2778TIP3    H129825   0.549   2.791   4.927 -1.3126 -0.4036  1.0999
 2778TIP3    H229826   0.517   2.664   5.004  0.8831 -1.7973 -0.1684
 2779TIP3   OH229827   1.162   2.565   3.439  0.2682  0.3040  0.2969
 2779TIP3    H129828   1.234   2.611   3.396  0.0532  0.2899 -0.0846
 2779TIP3    H229829   1.084   2.616   3.414  0.0753 -0.0399  0.1949
 2780TIP3   OH229830   0.449   2.576  14.980 -0.2744 -0.1470 -0.7692
 2780TIP3    H129831   0.537   2.541  14.999 -0.9530 -1.3891  0.2474
 2780TIP3    H229832   0.431   2.546  14.891 -0.1423 -0.9368 -0.5391
 2781TIP3   OH229833   4.837   5.746  16.151 -0.0215  0.8399 -0.1019
 2781TIP3    H129834   4.864   5.666  16.105 -0.1260  0.0692  1.1372
 2781TIP3    H229835   4.911   5.769  16.206  0.0169  1.6263 -0.4729
 2782TIP3   OH229836   3.311   0.572  15.203 -0.4019  0.1360  0.0725
 2782TIP3    H129837   3.254   0.636  15.161 -2.7001 -1.7748  0.0296
 2782TIP3    H229838   3.340   0.515  15.132  0.6753  0.4315  0.2650
 2783TIP3   OH229839   3.006   4.250   5.978 -0.3748 -0.5022 -0.0563
 2783TIP3    H129840   3.097   4.224   5.995  0.1708  1.5418  0.5559
 2783TIP3    H229841   2.960   4.230   6.059 -0.3991 -1.2517 -0.2536
 2784TIP3   OH229842   3.520   2.769   3.560 -0.3648  0.4502 -0.5396
 2784TIP3    H129843   3.496   2.799   3.647 -0.3781 -0.5221 -0.2014
 2784TIP3    H229844   3.616   2.763   3.562 -0.3720  0.3250 -0.5570
 2785TIP3   OH229845   2.883   3.235  15.414  0.3856  0.0025 -0.3541
 2785TIP3    H129846   2.884   3.258  15.507 -1.0319 -0.1294 -0.2801
 2785TIP3    H229847   2.972   3.206  15.395  0.4323 -1.0113  1.2239
 2786TIP3   OH229848   0.805   6.003   3.226  0.1882  0.3510 -0.2947
 2786TIP3    H129849   0.872   5.971   3.167  2.0304 -0.7636  2.2422
 2786TIP3    H229850   0.852   6.057   3.289 -1.3684  0.0658  1.1875
 2787TIP3   OH229851   3.744   1.832  16.812 -0.9833 -0.2654 -0.0960
 2787TIP3    H129852   3.664   1.831  16.863 -0.7769 -1.6210  0.2672
 2787TIP3    H229853   3.798   1.901  16.851 -0.9412 -1.0811  1.3759
 2788TIP3   OH229854   6.712   4.602  11.345  0.3089  0.0012 -0.5785
 2788TIP3    H129855   6.726   4.577  11.254  0.1325  0.9323 -0.8692
 2788TIP3    H229856   6.713   4.519  11.393  1.1152 -0.4362 -1.3287
 2789TIP3   OH229857   4.345   5.042  16.709 -0.0807 -0.5792 -0.3263
 2789TIP3    H129858   4.320   5.055  16.618 -0.6917 -2.0199 -0.3820
 2789TIP3    H229859   4.299   5.113  16.756  0.9707  0.7395 -1.2107
 2790TIP3   OH229860   1.762   0.417  14.956 -0.6811  0.0514 -0.3476
 2790TIP3    H129861   1.685   0.366  14.979 -1.2077  0.0127 -2.0690
 2790TIP3    H229862   1.740   0.460  14.873  0.7947  0.8067 -0.4007
 2791TIP3   OH229863   3.018   3.279   2.074 -0.2543 -0.3428  0.4152
 2791TIP3    H129864   2.946   3.220   2.055  0.9801 -1.4879 -0.8920
 2791TIP3    H229865   3.094   3.241   2.030  1.2067  0.7353  1.8451
 2792TIP3   OH229866   4.882   3.290  14.895 -0.5065 -0.4827 -0.7722
 2792TIP3    H129867   4.956   3.337  14.933 -2.1343  1.1761  0.5273
 2792TIP3    H229868   4.918   3.205  14.868  1.5846 -0.2174  0.9456
 2793TIP3   OH229869   5.469   2.780  14.213  0.1844  0.1576  0.4164
 2793TIP3    H129870   5.475   2.730  14.131  1.3407  0.9375  0.0014
 2793TIP3    H229871   5.491   2.869  14.189  1.8392  0.1736  1.7860
 2794TIP3   OH229872   2.211   2.751   1.232  0.0484 -0.4183  0.2639
 2794TIP3    H129873   2.159   2.753   1.152 -0.5521 -0.3567  0.6457
 2794TIP3    H229874   2.256   2.667   1.230  0.5834 -0.1167 -0.4725
 2795TIP3   OH229875   0.259   3.470  13.438  0.4980 -0.4824 -0.0703
 2795TIP3    H129876   0.220   3.548  13.477  0.5779 -0.5109  0.0689
 2795TIP3    H229877   0.352   3.476  13.459  0.0604 -2.4234  3.2033
 2796TIP3   OH229878   6.343   1.525  11.106 -0.5065  0.2267 -0.1340
 2796TIP3    H129879   6.316   1.599  11.160 -1.3151  0.5802 -0.9857
 2796TIP3    H229880   6.323   1.553  11.016  1.1684 -0.1788 -0.6620
 2797TIP3   OH229881   5.829   5.544  15.441  0.6052  0.6607  0.2087
 2797TIP3    H129882   5.836   5.530  15.347 -0.8598  0.0461  0.1756
 2797TIP3    H229883   5.774   5.622  15.450  0.0303  0.2129  0.5714
 2798TIP3   OH229884   4.902   0.011   2.425 -0.4464 -0.3595  0.2963
 2798TIP3    H129885   4.905  -0.029   2.512 -0.8214 -0.8333  0.0980
 2798TIP3    H229886   4.993   0.030   2.404 -0.5265  2.1259  1.8513
 2799TIP3   OH229887   3.312   3.952  14.101 -0.2871 -0.0164  0.1777
 2799TIP3    H129888   3.267   3.893  14.041  0.7060 -0.7997  0.1744
 2799TIP3    H229889   3.295   4.040  14.065  0.6452 -0.4895 -1.5302
 2800TIP3   OH229890   0.452   4.052   4.421 -0.0556 -0.0575 -0.1338
 2800TIP3    H129891   0.478   4.131   4.374 -0.3423 -0.0115 -0.2148
 2800TIP3    H229892   0.454   3.983   4.355 -0.1170 -0.0589 -0.1340
 2801TIP3   OH229893   1.230   2.614  11.176  0.1546  0.1174 -0.1138
 2801TIP3    H129894   1.165   2.548  11.199  0.6727 -1.1486 -2.0650
 2801TIP3    H229895   1.208   2.640  11.087  3.3884 -1.9007 -1.7152
 2802TIP3   OH229896   4.473   5.823  11.292  0.0897  0.8813  0.2234
 2802TIP3    H129897   4.526   5.875  11.352  0.4651  0.7042  0.0532
 2802TIP3    H229898   4.492   5.859  11.205  0.9635 -0.0233  0.0120
 2803TIP3   OH229899   3.195   2.592  17.302 -0.0254 -0.3011  0.3270
 2803TIP3    H129900   3.278   2.624  17.338 -0.5894  1.6780 -0.0202
 2803TIP3    H229901   3.134   2.595  17.376  0.2101 -1.9611  0.6370
 2804TIP3   OH229902   2.189   5.780   2.432 -0.1705 -0.6163  0.1664
 2804TIP3    H129903   2.178   5.872   2.456 -1.8675 -0.4288 -1.1256
 2804TIP3    H229904   2.202   5.735   2.516  0.8930  0.7929  0.8061
 2805TIP3   OH229905   0.530   5.465   2.806 -0.2793 -0.7170  0.1715
 2805TIP3    H129906   0.602   5.527   2.809 -1.3705  0.6693 -1.1473
 2805TIP3    H229907   0.471   5.493   2.876 -0.5027 -0.6136 -0.0579
 2806TIP3   OH229908   6.793   5.663   2.426  0.4678  0.4252  0.5430
 2806TIP3    H129909   6.809   5.660   2.521 -1.8964  0.7142  1.0134
 2806TIP3    H229910   6.762   5.752   2.410 -3.0438 -0.6647  0.3171
 2807TIP3   OH229911   0.252   5.624   2.497 -0.7631  0.2432  0.1388
 2807TIP3    H129912   0.216   5.710   2.515 -0.9033  0.3388 -0.5539
 2807TIP3    H229913   0.178   5.564   2.508 -1.6980  0.6173 -3.0079
 2808TIP3   OH229914   6.707   3.797  13.036  0.1859  0.4460  0.1400
 2808TIP3    H129915   6.776   3.837  13.088  1.0183 -1.0102  0.2258
 2808TIP3    H229916   6.684   3.717  13.084 -1.9897  1.1714  0.4124
 2809TIP3   OH229917   3.824   4.327  10.737 -0.1547  0.0859  0.1398
 2809TIP3    H129918   3.743   4.341  10.785  0.7997 -1.2481  2.3030
 2809TIP3    H229919   3.809   4.248  10.686 -0.8934  1.0316 -1.1376
 2810TIP3   OH229920   3.383   1.013  11.685  0.0592 -0.4655 -0.4950
 2810TIP3    H129921   3.409   1.031  11.775  3.2982  0.4586 -1.4443
 2810TIP3    H229922   3.365   0.919  11.683  2.4726 -1.0324  0.6699
 2811TIP3   OH229923   6.163   3.333   3.385 -1.2775  0.0434  0.4167
 2811TIP3    H129924   6.227   3.282   3.335 -1.0349  0.4031  0.3510
 2811TIP3    H229925   6.146   3.281   3.463  0.0086  0.4742  1.0228
 2812TIP3   OH229926   3.654   1.723   4.342 -0.0921  0.0267 -0.2365
 2812TIP3    H129927   3.710   1.649   4.318  1.4322  0.8795  0.5021
 2812TIP3    H229928   3.677   1.792   4.279  0.5991  0.7677  0.7766
 2813TIP3   OH229929   4.145   1.393  11.747  0.1042  0.0446 -0.1533
 2813TIP3    H129930   4.201   1.456  11.791 -0.2471  0.3103 -0.0795
 2813TIP3    H229931   4.073   1.445  11.711 -0.6324 -0.3958  0.6178
 2814TIP3   OH229932   3.501   3.527   2.295  0.1120  0.0808 -0.0523
 2814TIP3    H129933   3.438   3.457   2.307 -0.2510  0.2209 -1.0032
 2814TIP3    H229934   3.578   3.500   2.345  0.0195 -1.0637 -0.5054
 2815TIP3   OH229935   3.857   5.844  14.845  0.1287 -0.8039 -0.2900
 2815TIP3    H129936   3.877   5.937  14.845  0.6216 -0.8488  1.9394
 2815TIP3    H229937   3.920   5.805  14.785  0.8016  0.1494 -0.2095
 2816TIP3   OH229938   4.070   1.032  16.446 -1.0530  0.0922 -0.1017
 2816TIP3    H129939   4.081   1.002  16.355 -1.9324  1.4629 -0.6830
 2816TIP3    H229940   4.077   0.952  16.498  2.9053 -0.3672 -1.0202
 2817TIP3   OH229941   1.312   0.734   5.384 -0.7817  0.4701  0.6646
 2817TIP3    H129942   1.378   0.686   5.435 -1.2576 -2.3549 -1.1195
 2817TIP3    H229943   1.363   0.792   5.327  0.2527 -1.4503 -0.4861
 2818TIP3   OH229944   5.291   1.381   5.671 -0.4373 -0.2426  0.2785
 2818TIP3    H129945   5.236   1.442   5.622  0.2431 -0.1149 -0.3478
 2818TIP3    H229946   5.326   1.322   5.605  1.3751  0.5942  0.4037
 2819TIP3   OH229947   3.947   0.695   3.830 -0.4986 -0.0672  0.8225
 2819TIP3    H129948   3.944   0.619   3.888 -1.3814 -0.4559  0.2816
 2819TIP3    H229949   4.033   0.735   3.848 -0.3992 -0.6610  1.7671
 2820TIP3   OH229950   4.885   0.289  14.297  0.0882 -0.5697 -0.0647
 2820TIP3    H129951   4.846   0.251  14.218 -0.0887  0.8568 -0.7011
 2820TIP3    H229952   4.875   0.384  14.285  3.2251 -0.1221 -0.0138
 2821TIP3   OH229953   0.121   1.647   0.573 -0.0419 -0.3337  0.1509
 2821TIP3    H129954   0.129   1.735   0.538  2.5213  0.3864  2.1969
 2821TIP3    H229955   0.046   1.609   0.527  0.7204  1.7531 -3.1464
 2822TIP3   OH229956   6.575   0.185  12.891 -0.5648 -0.3092  0.2667
 2822TIP3    H129957   6.554   0.097  12.921 -0.9546 -0.4542 -0.4178
 2822TIP3    H229958   6.639   0.217  12.955 -0.8427 -0.8705  0.8419
 2823TIP3   OH229959   0.191   1.313   0.488 -0.1089 -0.3296 -0.2112
 2823TIP3    H129960   0.114   1.256   0.486 -0.6699  0.4105 -1.7181
 2823TIP3    H229961   0.234   1.298   0.404 -0.5923  1.8161 -0.9261
 2824TIP3   OH229962   2.669   4.865  10.696  0.9228 -0.2540  0.2503
 2824TIP3    H129963   2.631   4.951  10.677 -3.3949 -1.7062  1.1726
 2824TIP3    H229964   2.695   4.870  10.788 -0.7480 -0.2688  0.7671
 2825TIP3   OH229965   4.140   6.167   3.751  0.2304 -0.1424 -0.5361
 2825TIP3    H129966   4.234   6.189   3.756  0.2289 -0.1278 -0.5697
 2825TIP3    H229967   4.101   6.242   3.706  0.0043  0.4228  0.5735
 2826TIP3   OH229968   0.338   6.500   0.247  0.6122  0.2644 -0.5226
 2826TIP3    H129969   0.273   6.534   0.186  0.6629 -2.0497 -1.9760
 2826TIP3    H229970   0.339   6.564   0.319 -0.0884  2.6361 -2.4760
 2827TIP3   OH229971   0.195   0.368  13.203 -0.5214 -0.2486  0.3512
 2827TIP3    H129972   0.269   0.325  13.246  1.0856  0.3351 -1.6754
 2827TIP3    H229973   0.118   0.319  13.232  0.9305 -2.6891  0.3034
 2828TIP3   OH229974   6.456   0.919  13.895 -0.2888  0.3941 -0.0816
 2828TIP3    H129975   6.501   0.932  13.812  1.6821  2.0226  1.1638
 2828TIP3    H229976   6.394   0.848  13.877  0.6256  0.1367 -2.6969
 2829TIP3   OH229977   4.345   5.296   2.187  0.4621 -0.6990 -0.8978
 2829TIP3    H129978   4.258   5.267   2.213  0.8664 -0.2776  1.0672
 2829TIP3    H229979   4.405   5.238   2.235  1.2539  1.2549  0.6290
 2830TIP3   OH229980   2.617   2.935   1.934 -0.8730  0.2143 -0.3400
 2830TIP3    H129981   2.573   2.946   1.849 -0.9021 -3.9445 -1.0949
 2830TIP3    H229982   2.548   2.901   1.991 -0.0906 -0.2818  0.3235
 2831TIP3   OH229983   4.935   4.370  16.665  0.0855 -0.0652 -0.2583
 2831TIP3    H129984   5.016   4.338  16.704 -0.7417 -1.2362  0.5654
 2831TIP3    H229985   4.963   4.425  16.592  1.6152 -2.0766 -1.2936
 2832TIP3   OH229986   5.511   4.945   3.013 -0.7874 -0.1552 -0.1388
 2832TIP3    H129987   5.533   5.027   2.967 -2.8934  0.8740  0.5624
 2832TIP3    H229988   5.572   4.942   3.087  0.6508 -0.3038 -1.2696
 2833TIP3   OH229989   4.379   6.479  15.621  0.2889  0.1185  0.1917
 2833TIP3    H129990   4.402   6.475  15.528  1.9038  0.3141  0.5571
 2833TIP3    H229991   4.455   6.519  15.663 -0.5192  0.2729  1.5789
 2834TIP3   OH229992   1.159   1.245   6.085  0.1972 -0.4598  0.1479
 2834TIP3    H129993   1.076   1.235   6.039 -0.6217  0.2399  1.4085
 2834TIP3    H229994   1.181   1.157   6.116  0.3737 -0.7969 -0.9023
 2835TIP3   OH229995   1.751   6.022   5.541 -0.3375 -0.0472  0.1243
 2835TIP3    H129996   1.773   5.995   5.630 -0.4585  1.1992  0.5598
 2835TIP3    H229997   1.659   6.000   5.531 -0.5282  0.4973  0.5996
 2836TIP3   OH229998   4.363   2.070  11.163 -0.1937  0.1939  0.4135
 2836TIP3    H129999   4.376   2.045  11.071  0.3453  1.0614  0.2356
 2836TIP3    H230000   4.269   2.064  11.177 -0.1249 -1.7085  0.3443
 2837TIP3   OH230001   6.185   1.646   6.400  0.7864 -0.1301 -0.3390
 2837TIP3    H130002   6.140   1.601   6.329  0.4126  0.5471 -0.5324
 2837TIP3    H230003   6.146   1.733   6.403  0.3065 -0.3610  1.1315
 2838TIP3   OH230004   2.498   3.302  10.131  0.2758  0.8356 -0.6982
 2838TIP3    H130005   2.569   3.353  10.094 -0.0873  2.6598  0.9474
 2838TIP3    H230006   2.420   3.329  10.082  0.3286  0.6946 -0.8596
 2839TIP3   OH230007   0.246   1.924  14.233 -0.5169  0.0853 -0.4114
 2839TIP3    H130008   0.311   1.870  14.186 -0.1455  1.7916 -1.9537
 2839TIP3    H230009   0.259   2.012  14.199 -3.9769  0.4493 -1.1739
 2840TIP3   OH230010   6.227   2.164   1.895 -0.2590 -0.1386 -0.4332
 2840TIP3    H130011   6.133   2.172   1.912 -0.2985 -0.5050 -0.4781
 2840TIP3    H230012   6.234   2.174   1.800 -0.3140 -0.6506 -0.4958
 2841TIP3   OH230013   3.981   6.613  17.020  0.1183 -0.0833  0.1773
 2841TIP3    H130014   3.923   6.689  17.015 -0.2690 -0.2954  1.2065
 2841TIP3    H230015   4.069   6.650  17.026  0.5929  0.2862 -4.7369
 2842TIP3   OH230016   2.793   1.057  12.341  0.1479  0.2621 -0.1663
 2842TIP3    H130017   2.801   1.139  12.293  0.0047  0.4165  0.0705
 2842TIP3    H230018   2.711   1.018  12.311 -1.3691  1.6449  1.8677
 2843TIP3   OH230019   1.092   6.352  16.332 -0.0898  0.0562 -0.4399
 2843TIP3    H130020   1.123   6.345  16.423  2.9019  0.9178 -1.2638
 2843TIP3    H230021   1.035   6.429  16.332 -2.1823 -1.3889  1.1215
 2844TIP3   OH230022   1.075   2.319   3.374 -0.3369 -0.3754 -0.3967
 2844TIP3    H130023   1.095   2.412   3.371 -0.0326 -0.4065  0.3685
 2844TIP3    H230024   0.983   2.314   3.398 -0.2509 -0.2778 -0.0495
 2845TIP3   OH230025   5.001   3.252  14.466  0.2043  0.4633 -0.2862
 2845TIP3    H130026   4.917   3.207  14.472  0.5167 -0.1359 -0.2670
 2845TIP3    H230027   4.981   3.344  14.480 -0.4606  0.3343 -0.3945
 2846TIP3   OH230028   3.066   4.322  13.738  0.1827 -0.0691 -0.2100
 2846TIP3    H130029   3.032   4.377  13.808 -1.0317 -1.0297  0.0086
 2846TIP3    H230030   3.073   4.380  13.662 -0.3747  0.5526  0.2034
 2847TIP3   OH230031   5.539   1.059  12.245  0.2628  0.0427 -0.0320
 2847TIP3    H130032   5.507   1.126  12.305  1.5721 -1.3864  2.3940
 2847TIP3    H230033   5.634   1.068  12.247  0.3737 -0.6311 -1.1950
 2848TIP3   OH230034   2.241   4.557   5.778  0.0850 -0.2196 -0.5566
 2848TIP3    H130035   2.155   4.516   5.787 -0.8789  1.4930 -1.3777
 2848TIP3    H230036   2.303   4.487   5.794 -1.4474 -1.3179  0.9927
 2849TIP3   OH230037   1.059   6.478  16.905  0.9774  0.4576  0.5374
 2849TIP3    H130038   1.081   6.419  16.976  3.5983 -1.1214 -1.3765
 2849TIP3    H230039   1.111   6.556  16.922  1.1382  0.3235  0.6634
 2850TIP3   OH230040   2.502   6.398  14.897  0.0767  0.5441 -0.5708
 2850TIP3    H130041   2.520   6.462  14.966  2.5302 -1.2668  0.6270
 2850TIP3    H230042   2.464   6.323  14.944  1.8181 -0.7303 -1.1043
 2851TIP3   OH230043   6.717   1.402   0.264  0.5317 -0.1022  0.4721
 2851TIP3    H130044   6.785   1.419   0.199 -0.4029  1.0471 -0.2500
 2851TIP3    H230045   6.648   1.356   0.216 -0.0893  0.5952  0.6639
 2852TIP3   OH230046   3.141   0.223  16.064  0.2269 -0.1286 -0.4407
 2852TIP3    H130047   3.050   0.253  16.067  0.3904  0.3110  0.5785
 2852TIP3    H230048   3.157   0.188  16.152  1.2494  0.4145 -0.4032
 2853TIP3   OH230049   0.979   1.555   1.385  0.4577 -0.3467  0.4697
 2853TIP3    H130050   0.926   1.487   1.344 -1.3195  1.8638 -1.2176
 2853TIP3    H230051   0.951   1.557   1.476  0.9395 -2.1631  0.6855
 2854TIP3   OH230052   2.016   5.247   5.170 -0.1393  0.4131  0.1168
 2854TIP3    H130053   1.951   5.299   5.216 -1.4303  0.4792 -1.6952
 2854TIP3    H230054   2.020   5.165   5.219 -1.0327  0.7048  0.6975
 2855TIP3   OH230055   4.544   4.650   2.066  0.6764  0.1919  0.1659
 2855TIP3    H130056   4.610   4.685   2.007  0.4907  2.4481  1.1823
 2855TIP3    H230057   4.473   4.714   2.063 -1.3426 -1.9379 -0.5779
 2856TIP3   OH230058   4.696   1.666   0.927  0.2201  0.4380 -0.3896
 2856TIP3    H130059   4.698   1.712   1.011  1.2371  0.2743 -0.3064
 2856TIP3    H230060   4.607   1.677   0.896 -0.8420 -1.3016  1.7305
 2857TIP3   OH230061   4.922   1.500   5.315 -0.6472 -0.3647  0.0689
 2857TIP3    H130062   4.900   1.493   5.222  0.4387 -0.3261 -0.1970
 2857TIP3    H230063   4.840   1.479   5.360 -0.8781 -1.6410 -0.8745
 2858TIP3   OH230064   2.765   6.283  16.620 -0.6550 -0.5845 -0.1020
 2858TIP3    H130065   2.792   6.193  16.638 -2.5320 -1.3836 -0.9604
 2858TIP3    H230066   2.828   6.314  16.554  1.6963 -0.2204  2.1524
 2859TIP3   OH230067   3.492   5.424   1.949  0.3637 -0.0732  0.3757
 2859TIP3    H130068   3.431   5.451   1.880  1.8354  1.8699 -0.2726
 2859TIP3    H230069   3.489   5.329   1.949 -3.1528 -0.0921  0.8635
 2860TIP3   OH230070   6.768   5.500  14.433 -0.5840 -0.1811  0.3481
 2860TIP3    H130071   6.719   5.434  14.482 -0.6944 -0.2527  0.1435
 2860TIP3    H230072   6.814   5.551  14.500 -1.5811  0.4034  0.6060
 2861TIP3   OH230073   4.034   3.623   0.281  0.2123 -0.0583 -0.1614
 2861TIP3    H130074   4.095   3.551   0.265  0.5802  0.1300  0.3592
 2861TIP3    H230075   3.990   3.636   0.197 -0.0016 -1.0237 -0.2142
 2862TIP3   OH230076   0.591   3.154  13.301  0.1891 -0.5593  0.5251
 2862TIP3    H130077   0.600   3.059  13.295  0.4962 -0.6858  2.4841
 2862TIP3    H230078   0.680   3.186  13.315  1.0111  0.6106 -4.9415
 2863TIP3   OH230079   4.697   0.415  15.828  0.3701 -0.2513 -0.3983
 2863TIP3    H130080   4.744   0.332  15.840 -0.3062 -0.7520 -1.1567
 2863TIP3    H230081   4.739   0.475  15.890  1.7747 -0.7777 -0.7980
 2864TIP3   OH230082   6.226   2.780  16.896 -0.5230  0.2363  0.0040
 2864TIP3    H130083   6.272   2.753  16.975  1.3811  0.7770 -0.8541
 2864TIP3    H230084   6.270   2.861  16.870 -0.1323 -0.6662 -2.3678
 2865TIP3   OH230085   6.813   2.531  12.169 -0.6410  0.0284  0.3924
 2865TIP3    H130086   6.807   2.564  12.258  0.6407  1.8778 -0.1463
 2865TIP3    H230087   6.821   2.609  12.114  2.5881 -1.0598 -0.9745
 2866TIP3   OH230088   5.681   6.607  15.040  0.4024  0.2991 -0.0439
 2866TIP3    H130089   5.696   6.632  15.131  1.7217  0.0466 -0.1670
 2866TIP3    H230090   5.685   6.511  15.041 -0.1044  0.2726 -0.2922
 2867TIP3   OH230091   2.624   4.331  14.785 -0.5221 -0.0694  0.0806
 2867TIP3    H130092   2.691   4.309  14.849 -1.2504 -1.9616  0.2600
 2867TIP3    H230093   2.658   4.409  14.741  1.6748 -0.8020  0.3300
 2868TIP3   OH230094   3.095   3.271   0.637 -0.0877  0.9026 -0.2549
 2868TIP3    H130095   3.155   3.216   0.687 -0.4044  0.9486  0.1814
 2868TIP3    H230096   3.061   3.212   0.570  0.4354  0.8750 -0.5010
 2869TIP3   OH230097   5.443   5.263  15.397  0.1043 -0.5240  0.4519
 2869TIP3    H130098   5.520   5.296  15.444  0.1050  1.4461 -0.7948
 2869TIP3    H230099   5.370   5.278  15.457  0.6296 -2.2884  1.5943
 2870TIP3   OH230100   5.216   4.126  13.229  0.3332  0.0693  0.0894
 2870TIP3    H130101   5.296   4.131  13.177  0.0238 -0.9280 -0.5018
 2870TIP3    H230102   5.145   4.142  13.167 -0.0692 -1.6157  0.0581
 2871TIP3   OH230103   0.052   6.459  12.822  0.7462  0.1285  0.2277
 2871TIP3    H130104   0.122   6.521  12.806 -0.0755  0.8260 -0.7691
 2871TIP3    H230105   0.097   6.378  12.847  1.8764  0.6534 -0.0430
 2872TIP3   OH230106   6.806   1.510   3.963  0.4069  0.4903 -0.4703
 2872TIP3    H130107   6.713   1.490   3.957  0.3321  0.3555  0.8363
 2872TIP3    H230108   6.825   1.561   3.884 -1.2036  2.2501  0.2105
 2873TIP3   OH230109   3.443   5.429   0.356  0.0859 -0.0582 -0.2598
 2873TIP3    H130110   3.389   5.487   0.410 -0.9378 -0.4979 -0.7970
 2873TIP3    H230111   3.473   5.485   0.284 -0.1127  0.0508 -0.2595
 2874TIP3   OH230112   4.231   2.339  14.707  0.3923 -0.4105 -0.4247
 2874TIP3    H130113   4.312   2.290  14.724  0.6665 -0.8410 -2.6812
 2874TIP3    H230114   4.250   2.427  14.739  0.7000 -1.1795  1.6398
 2875TIP3   OH230115   0.501   2.404   5.456  0.2339 -0.2088  0.6119
 2875TIP3    H130116   0.527   2.494   5.434  0.9119 -0.9403 -1.9255
 2875TIP3    H230117   0.561   2.379   5.527  1.3388  0.7175  0.0454
 2876TIP3   OH230118   1.869   6.338   5.721 -0.4109 -0.1542  0.2887
 2876TIP3    H130119   1.932   6.267   5.708 -0.4357 -0.3092  0.9816
 2876TIP3    H230120   1.878   6.362   5.813 -1.7523 -0.5606  0.5532
 2877TIP3   OH230121   0.225   1.167   5.341 -0.3138 -0.9462  0.6362
 2877TIP3    H130122   0.296   1.194   5.399  1.6510 -2.4018 -0.9329
 2877TIP3    H230123   0.180   1.249   5.319  1.3253  0.1500  1.1297
 2878TIP3   OH230124   0.225   6.823  11.750  0.1636  0.2423 -0.5315
 2878TIP3    H130125   0.192   6.828  11.839 -1.8494  0.7770 -1.2677
 2878TIP3    H230126   0.291   6.892  11.744  0.9691 -0.3905  0.7805
 2879TIP3   OH230127   3.003   2.311   3.963 -0.6488 -0.7515  0.5416
 2879TIP3    H130128   3.091   2.320   3.998 -0.3734 -0.5545 -0.1925
 2879TIP3    H230129   3.013   2.321   3.868 -1.7052  1.3311  0.5730
 2880TIP3   OH230130   3.358   3.934  13.771  0.2019  0.3764 -0.1955
 2880TIP3    H130131   3.449   3.964  13.780  0.4420 -0.1247 -0.8869
 2880TIP3    H230132   3.306   4.004  13.812  0.8205  1.1871 -0.7465
 2881TIP3   OH230133   4.213   4.855  13.406 -0.4326  0.0571  0.0686
 2881TIP3    H130134   4.287   4.809  13.446 -1.5713 -1.6508  0.2909
 2881TIP3    H230135   4.151   4.868  13.478 -0.7314  0.7000 -0.2973
 2882TIP3   OH230136   4.365   0.287  12.669 -0.0711 -0.9774 -0.2391
 2882TIP3    H130137   4.410   0.330  12.596  1.2530  0.2158  1.2047
 2882TIP3    H230138   4.311   0.220  12.627  3.1522 -2.6351 -2.1624
 2883TIP3   OH230139   1.632   3.117  10.880  0.0183  0.4765  0.1346
 2883TIP3    H130140   1.668   3.191  10.832  1.5390 -1.3757 -1.7785
 2883TIP3    H230141   1.590   3.063  10.813 -1.1800 -0.3504  1.4909
 2884TIP3   OH230142   2.676   2.731   1.700 -0.2864  0.4806  0.2030
 2884TIP3    H130143   2.703   2.725   1.608 -0.5427  3.1386 -0.1298
 2884TIP3    H230144   2.596   2.783   1.698 -0.6563  0.0398  1.9067
 2885TIP3   OH230145   6.177   5.284  15.317  0.6420  0.2002  0.5885
 2885TIP3    H130146   6.175   5.364  15.369  1.8994  1.0684 -0.6055
 2885TIP3    H230147   6.169   5.213  15.380 -5.9468  1.0987  1.4505
 2886TIP3   OH230148   4.333   2.396   4.932  0.6645  0.3147 -0.0404
 2886TIP3    H130149   4.417   2.401   4.978  0.4595 -0.4358  0.4289
 2886TIP3    H230150   4.350   2.338   4.859 -0.0005 -1.7381  1.3538
 2887TIP3   OH230151   4.879   5.877  12.069  0.2545  0.0774  0.2442
 2887TIP3    H130152   4.817   5.819  12.024  1.0873  1.0070 -2.2538
 2887TIP3    H230153   4.962   5.829  12.068  0.4941  0.4943 -0.0686
 2888TIP3   OH230154   4.165   5.514  13.947 -0.1875  0.5888  0.4220
 2888TIP3    H130155   4.242   5.542  13.996  0.8840 -1.1503 -0.1517
 2888TIP3    H230156   4.133   5.437  13.995 -0.9546  0.6846  0.0795
 2889TIP3   OH230157   1.072   3.015   2.789 -0.5641 -0.1444 -0.3940
 2889TIP3    H130158   1.082   3.014   2.884 -0.4710  0.6492 -0.3899
 2889TIP3    H230159   1.005   2.949   2.771 -1.3621  0.4409  0.3251
 2890TIP3   OH230160   6.090   1.278  13.762 -0.2333 -0.2767 -0.0670
 2890TIP3    H130161   6.090   1.251  13.670  2.1257  1.6163 -0.7015
 2890TIP3    H230162   5.999   1.302  13.779 -0.6733 -0.3615 -2.0069
 2891TIP3   OH230163   1.744   1.840  13.126 -0.3151  0.3661  0.3014
 2891TIP3    H130164   1.829   1.799  13.140 -0.6149  0.0904  1.4245
 2891TIP3    H230165   1.740   1.856  13.031  0.0058 -1.7925 -0.1373
 2892TIP3   OH230166   6.370   1.793  13.173  0.3444 -0.4152  0.0037
 2892TIP3    H130167   6.304   1.853  13.138 -0.3764 -1.9438 -1.3782
 2892TIP3    H230168   6.326   1.708  13.175  2.1617 -1.4061 -0.5804
 2893TIP3   OH230169   4.196   3.084   4.986  0.6833  0.4369  0.1156
 2893TIP3    H130170   4.119   3.140   4.979 -0.9336 -1.7140 -0.4430
 2893TIP3    H230171   4.203   3.062   5.079  1.0236  1.1333  0.2593
 2894TIP3   OH230172   1.804   3.944   2.984  0.5620 -0.2465  0.3555
 2894TIP3    H130173   1.857   3.969   3.060  2.6773  0.6210 -1.2995
 2894TIP3    H230174   1.866   3.944   2.911 -1.6279  0.2818 -1.6213
 2895TIP3   OH230175   4.204   1.265  13.644 -0.1373 -0.1509 -0.5034
 2895TIP3    H130176   4.119   1.302  13.620 -0.2755 -0.6187 -0.7540
 2895TIP3    H230177   4.183   1.182  13.687  0.1206  0.5074  0.9807
 2896TIP3   OH230178   3.946   2.762  14.264 -0.8161  0.1039 -0.1438
 2896TIP3    H130179   3.998   2.687  14.294 -0.9518  0.1651  0.2451
 2896TIP3    H230180   3.896   2.728  14.190  0.4869  0.2972 -1.1436
 2897TIP3   OH230181   6.442   2.387  16.700  0.3232 -0.0107 -0.2121
 2897TIP3    H130182   6.392   2.466  16.721 -0.5477 -0.9543  1.3951
 2897TIP3    H230183   6.401   2.354  16.620 -1.5987 -0.6883  1.0020
 2898TIP3   OH230184   5.657   4.939   5.516 -0.1886 -0.2321 -0.1721
 2898TIP3    H130185   5.614   4.960   5.599  0.3526 -1.4651  0.4455
 2898TIP3    H230186   5.714   5.015   5.498 -0.1355 -0.0575  0.7024
 2899TIP3   OH230187   2.232   5.465  14.136 -0.6386 -0.0305 -0.1551
 2899TIP3    H130188   2.172   5.453  14.210 -0.3687  2.1332  0.4836
 2899TIP3    H230189   2.240   5.378  14.097 -0.9289 -1.2265  2.2701
 2900TIP3   OH230190   6.642   1.389  13.290 -0.1530  0.0034  0.0887
 2900TIP3    H130191   6.706   1.409  13.358  0.2182  0.0510 -0.2716
 2900TIP3    H230192   6.661   1.298  13.265 -0.5663 -0.1581  0.3465
 2901TIP3   OH230193   2.066   3.808   5.686  0.3587  0.3724 -0.0790
 2901TIP3    H130194   2.055   3.770   5.599 -1.4986 -1.4378  0.8758
 2901TIP3    H230195   2.004   3.881   5.689  0.8151  0.7862 -0.4182
 2902TIP3   OH230196   3.197   3.716   4.481  0.2560  0.1120  0.1724
 2902TIP3    H130197   3.257   3.651   4.518 -0.4857  0.4640  2.0704
 2902TIP3    H230198   3.170   3.769   4.555 -1.8953  0.3899 -0.7509
 2903TIP3   OH230199   6.269   0.405   1.816 -0.3266 -0.4161 -0.0280
 2903TIP3    H130200   6.217   0.345   1.763  0.7266 -2.4802  1.1679
 2903TIP3    H230201   6.207   0.441   1.879 -0.7412 -1.1483 -0.0154
 2904TIP3   OH230202   3.037   2.376  14.689 -0.7605 -0.2233  0.6095
 2904TIP3    H130203   3.015   2.464  14.657  0.8839  0.0769  0.1692
 2904TIP3    H230204   2.972   2.357  14.756 -2.5294  0.3690 -0.8695
 2905TIP3   OH230205   1.594   5.273   2.231 -1.0817 -0.8973  0.1409
 2905TIP3    H130206   1.547   5.204   2.277 -2.9815  0.5752  0.5177
 2905TIP3    H230207   1.528   5.315   2.176  0.3539 -0.3033 -1.1962
 2906TIP3   OH230208   5.203   2.126  16.005 -0.2189  0.0235 -0.1936
 2906TIP3    H130209   5.294   2.097  16.011  0.1144  1.2787  2.6730
 2906TIP3    H230210   5.208   2.212  15.963  0.3596  1.2768  2.2271
 2907TIP3   OH230211   5.748   5.395   0.174 -0.4817  0.1147 -0.6808
 2907TIP3    H130212   5.710   5.455   0.109  0.1363  0.4696 -0.7225
 2907TIP3    H230213   5.779   5.320   0.122 -0.9579 -0.0956 -0.6665
 2908TIP3   OH230214   4.509   3.084  13.457  0.1156  0.2572 -0.3659
 2908TIP3    H130215   4.549   3.170  13.448  0.4916  0.1891  0.5391
 2908TIP3    H230216   4.567   3.025  13.409  0.1034  0.4375 -0.6035
 2909TIP3   OH230217   6.033   5.990   0.335  0.4322 -0.0286 -0.1924
 2909TIP3    H130218   5.949   5.953   0.364  1.1362 -0.7589  1.0120
 2909TIP3    H230219   6.047   5.954   0.248  0.5389 -1.7289  0.4867
 2910TIP3   OH230220   4.739   3.924   4.486  0.3534  0.0827 -0.4915
 2910TIP3    H130221   4.730   4.017   4.505  1.1903  0.3456 -1.2758
 2910TIP3    H230222   4.652   3.888   4.502 -0.0775  1.0640 -0.5089
 2911TIP3   OH230223   4.697   1.840   3.020 -0.2271  0.1679 -0.3255
 2911TIP3    H130224   4.706   1.936   3.024  1.0496  0.0474  0.1618
 2911TIP3    H230225   4.733   1.810   3.104 -0.3943 -0.7589 -0.5828
 2912TIP3   OH230226   0.363   4.904  12.234 -0.3484  0.5219  0.8288
 2912TIP3    H130227   0.406   4.914  12.319 -0.1788 -0.7789  0.9097
 2912TIP3    H230228   0.312   4.985  12.224  1.9743  2.0987  0.7775
 2913TIP3   OH230229   6.132   0.205  15.804 -0.3857 -0.3618  0.8420
 2913TIP3    H130230   6.119   0.211  15.899  0.3395 -1.4407  1.0246
 2913TIP3    H230231   6.221   0.172  15.793 -0.0941  0.6958 -0.2509
 2914TIP3   OH230232   4.391   2.871   4.936 -0.4031  0.2506 -0.2972
 2914TIP3    H130233   4.346   2.789   4.916 -0.5151 -0.0201  1.0084
 2914TIP3    H230234   4.321   2.936   4.940 -0.3101  0.4361 -1.3673
 2915TIP3   OH230235   5.089   1.211  11.822  0.0807 -0.1203  0.0536
 2915TIP3    H130236   5.171   1.185  11.780 -0.1140  0.0298 -0.4391
 2915TIP3    H230237   5.049   1.129  11.852 -0.6094 -0.4416 -1.6287
 2916TIP3   OH230238   6.435   3.822  15.144  0.5077  0.2992 -0.5449
 2916TIP3    H130239   6.490   3.794  15.070 -0.3691 -0.7118 -0.8397
 2916TIP3    H230240   6.432   3.745  15.201 -1.0833  0.1178 -0.8403
 2917TIP3   OH230241   4.883   5.651  12.363 -0.0393  0.0815  0.4299
 2917TIP3    H130242   4.880   5.578  12.302 -1.0437  0.9833 -0.6516
 2917TIP3    H230243   4.814   5.711  12.333 -1.3605  0.0771  3.0798
 2918TIP3   OH230244   0.952   3.445  10.854 -0.2737  0.2276  0.4076
 2918TIP3    H130245   0.959   3.537  10.831 -0.2518  0.2139  0.3579
 2918TIP3    H230246   0.864   3.420  10.825  0.3288 -0.1948 -1.1459
 2919TIP3   OH230247   6.780   5.080  15.331  0.6125 -0.5239  0.0607
 2919TIP3    H130248   6.870   5.101  15.307 -0.1320 -0.5731 -3.3059
 2919TIP3    H230249   6.766   4.991  15.299 -0.4818 -0.7464  1.0789
 2920TIP3   OH230250   4.841   5.814  14.511  0.1007  0.1098 -0.5203
 2920TIP3    H130251   4.756   5.790  14.547  0.4090 -1.1548 -0.5905
 2920TIP3    H230252   4.830   5.904  14.480 -1.4794 -0.3454 -1.3693
 2921TIP3   OH230253   6.778   6.016  15.179 -0.2791 -0.3550  0.5970
 2921TIP3    H130254   6.713   6.075  15.218 -0.1412 -1.3874  2.4734
 2921TIP3    H230255   6.730   5.935  15.163 -0.0058 -0.3674 -0.1933
 2922TIP3   OH230256   2.716   6.625  14.322 -0.1409  1.1594 -0.2199
 2922TIP3    H130257   2.640   6.589  14.368 -2.3612  0.9826 -3.6771
 2922TIP3    H230258   2.758   6.548  14.282  1.9588  1.2664  1.5476
 2923TIP3   OH230259   0.826   1.659  10.286 -0.2419  0.1679  0.3067
 2923TIP3    H130260   0.762   1.679  10.354 -1.2407  0.8642 -0.7972
 2923TIP3    H230261   0.897   1.615  10.332  0.3693  2.9640  2.3005
 2924TIP3   OH230262   5.905   5.613   4.527 -0.3674  0.2275  0.8921
 2924TIP3    H130263   5.879   5.562   4.604 -0.2362 -1.4736 -0.1221
 2924TIP3    H230264   5.867   5.564   4.453  0.6940  1.0181 -0.2106
 2925TIP3   OH230265   3.360   4.366  13.643 -0.0819 -0.2046 -0.5469
 2925TIP3    H130266   3.412   4.312  13.702  1.0948 -0.8680 -2.1294
 2925TIP3    H230267   3.281   4.315  13.626 -1.3593  0.8019  1.8569
 2926TIP3   OH230268   4.473   4.148  12.577  0.0014 -0.1049 -0.1280
 2926TIP3    H130269   4.552   4.108  12.613  0.8986  2.1911  0.6098
 2926TIP3    H230270   4.410   4.076  12.575  1.3485 -1.4532  1.6193
 2927TIP3   OH230271   2.849   5.852   1.477 -0.3296 -0.3078  0.4323
 2927TIP3    H130272   2.909   5.806   1.537  0.8033  0.9385  0.2970
 2927TIP3    H230273   2.905   5.876   1.403 -1.4278 -0.6909 -0.5467
 2928TIP3   OH230274   1.463   5.095   5.946 -0.0948 -0.6688  0.4351
 2928TIP3    H130275   1.532   5.032   5.964 -1.5212 -2.5868 -0.4079
 2928TIP3    H230276   1.413   5.100   6.028  1.2277  1.0909  1.2070
 2929TIP3   OH230277   2.853   0.847   4.977 -0.5633 -0.5266 -0.2768
 2929TIP3    H130278   2.872   0.878   4.888 -0.2829  3.1706  0.8871
 2929TIP3    H230279   2.936   0.858   5.024 -1.2240 -0.3793  0.9025
 2930TIP3   OH230280   3.415   4.663   0.092  0.1308 -0.1280 -0.3764
 2930TIP3    H130281   3.426   4.738   0.151 -1.2514 -0.5387  0.4462
 2930TIP3    H230282   3.470   4.595   0.130 -0.3679 -0.2310  0.1769
 2931TIP3   OH230283   4.076   1.234  14.735 -0.1538  0.2431  0.5767
 2931TIP3    H130284   4.138   1.307  14.740  1.5520 -0.8966 -2.0195
 2931TIP3    H230285   4.019   1.257  14.662 -0.5634 -0.3571  0.7054
 2932TIP3   OH230286   3.396   2.123  13.825 -0.0950  0.3569 -0.8968
 2932TIP3    H130287   3.373   2.169  13.745 -1.7339 -0.5352 -0.9745
 2932TIP3    H230288   3.470   2.172  13.861 -1.1016  2.4196 -1.5006
 2933TIP3   OH230289   2.439   1.052  15.346 -0.2703  0.1965 -0.6729
 2933TIP3    H130290   2.403   1.071  15.432  1.6397 -0.7097  0.3995
 2933TIP3    H230291   2.405   1.121  15.289 -1.8332  0.6159  0.7190
 2934TIP3   OH230292   3.931   0.217   2.906 -0.5294 -0.2868  0.8358
 2934TIP3    H130293   4.026   0.206   2.908 -0.2947  0.4647 -1.8849
 2934TIP3    H230294   3.905   0.217   2.998  1.9048 -1.8764  1.6225
 2935TIP3   OH230295   1.680   6.230  11.504 -0.5101  0.1181  0.3129
 2935TIP3    H130296   1.623   6.254  11.577 -0.1654 -0.8676  0.9263
 2935TIP3    H230297   1.639   6.269  11.427 -1.3135  0.4946  0.9217
 2936TIP3   OH230298   2.220   4.006   4.111  0.0761  0.0038  0.3746
 2936TIP3    H130299   2.305   3.963   4.120 -0.7996 -1.9236 -0.0249
 2936TIP3    H230300   2.177   3.991   4.195  0.1491  1.0299  0.6003
 2937TIP3   OH230301   6.666   3.395  10.720 -0.5039 -0.1972  0.1962
 2937TIP3    H130302   6.685   3.348  10.639 -0.1011 -1.0542  0.7756
 2937TIP3    H230303   6.643   3.327  10.783  2.6555  0.0303  1.8001
 2938TIP3   OH230304   1.616   3.663  14.987 -0.9011 -0.0344 -0.0654
 2938TIP3    H130305   1.566   3.688  14.910 -1.3768 -0.5155  0.0776
 2938TIP3    H230306   1.563   3.595  15.029  0.7382 -1.9675 -0.9326
 2939TIP3   OH230307   3.928   3.460   4.501  0.3759 -0.5062 -0.3462
 2939TIP3    H130308   3.928   3.466   4.406 -0.5806 -0.0829 -0.3308
 2939TIP3    H230309   3.928   3.366   4.519  1.8621 -0.6020 -0.7368
 2940TIP3   OH230310   5.037   3.913  16.363  0.3566 -0.5882 -0.9724
 2940TIP3    H130311   5.007   3.828  16.396 -1.0960 -0.4462 -1.8139
 2940TIP3    H230312   5.030   3.905  16.268 -0.1641  0.5800 -1.0524
 2941TIP3   OH230313   0.456   0.594  11.127  0.1331 -0.1630 -0.1994
 2941TIP3    H130314   0.482   0.685  11.138 -0.0771 -0.1242 -0.0049
 2941TIP3    H230315   0.538   0.545  11.119  0.3269 -0.2032  1.6143
 2942TIP3   OH230316   5.198   4.171  11.762 -0.3101  0.1348 -0.3267
 2942TIP3    H130317   5.132   4.221  11.715 -1.3433 -1.8347 -1.0902
 2942TIP3    H230318   5.249   4.127  11.694  1.9556  1.6917  0.2322
 2943TIP3   OH230319   5.655   5.750  16.706 -0.0605 -1.1158  0.0403
 2943TIP3    H130320   5.667   5.815  16.636  0.9203 -1.3480 -0.0241
 2943TIP3    H230321   5.630   5.802  16.783  0.9003 -0.6336  0.0388
 2944TIP3   OH230322   2.641   3.343   1.947 -0.4559  0.0394 -0.1091
 2944TIP3    H130323   2.546   3.330   1.953 -0.1415 -2.0456  1.2375
 2944TIP3    H230324   2.653   3.437   1.962 -2.2672  0.2446  0.2884
 2945TIP3   OH230325   0.118   2.124   5.892  0.0695 -0.2578  0.1554
 2945TIP3    H130326   0.144   2.045   5.939  0.9432  1.4618  2.8454
 2945TIP3    H230327   0.053   2.166   5.950 -0.0356  1.2076 -0.9608
 2946TIP3   OH230328   5.946   6.027  14.582 -0.1160  0.4707  0.4118
 2946TIP3    H130329   6.026   6.063  14.621  1.6991 -0.5938 -2.1064
 2946TIP3    H230330   5.888   6.103  14.576  1.6844  1.9055 -0.0699
 2947TIP3   OH230331   4.658   1.017  14.850 -0.5676  0.2176 -0.1473
 2947TIP3    H130332   4.691   1.057  14.770 -0.5735 -2.7581 -1.7966
 2947TIP3    H230333   4.593   1.079  14.883  0.5832  2.2706 -1.5127
 2948TIP3   OH230334   5.621   5.994   1.240  0.1806 -0.3686 -0.1514
 2948TIP3    H130335   5.717   6.003   1.243  0.2748 -0.9866 -0.9425
 2948TIP3    H230336   5.592   6.070   1.190  0.2185  0.0026  0.3783
 2949TIP3   OH230337   3.851   1.601  14.071 -0.3715  0.1676 -0.0241
 2949TIP3    H130338   3.866   1.670  14.136  1.4385  0.2930 -0.5301
 2949TIP3    H230339   3.768   1.625  14.029 -1.1527  0.5221  1.6596
 2950TIP3   OH230340   0.484   4.201  10.762  0.0293 -0.5681 -0.2939
 2950TIP3    H130341   0.401   4.206  10.714  0.0408 -1.2641 -0.3936
 2950TIP3    H230342   0.550   4.189  10.694  0.2608  0.3624 -0.2440
 2951TIP3   OH230343   1.908   6.326   5.186  0.0409 -0.1829 -0.1729
 2951TIP3    H130344   1.926   6.388   5.258 -1.9454  3.1164 -2.2507
 2951TIP3    H230345   1.845   6.264   5.223 -1.1043  1.5563  0.9485
 2952TIP3   OH230346   4.221   4.100  15.486  0.2723 -0.2315  0.0426
 2952TIP3    H130347   4.200   4.176  15.431 -2.3972 -0.2394  0.8838
 2952TIP3    H230348   4.311   4.114  15.514 -0.0035  2.4219 -0.1472
 2953TIP3   OH230349   5.763   4.450   2.739  0.0655 -0.4203  0.1312
 2953TIP3    H130350   5.808   4.487   2.663  2.8376 -1.1692  1.3010
 2953TIP3    H230351   5.761   4.355   2.721 -1.4922 -0.3758 -0.0764
 2954TIP3   OH230352   0.045   6.454  15.770  0.2261  0.3374  0.5990
 2954TIP3    H130353  -0.038   6.495  15.791 -0.2915 -0.6735  0.5829
 2954TIP3    H230354   0.035   6.363  15.798  0.4036 -0.4499 -1.6471
 2955TIP3   OH230355   3.043   4.871   4.320 -0.1714 -0.5366 -0.3583
 2955TIP3    H130356   3.031   4.889   4.227 -1.7933  2.0170  0.2604
 2955TIP3    H230357   3.132   4.900   4.339  0.2058 -1.1623 -1.0857
 2956TIP3   OH230358   6.383   6.678  13.585 -0.5467  0.6168  0.4550
 2956TIP3    H130359   6.328   6.752  13.611 -0.3797  0.3531  1.6154
 2956TIP3    H230360   6.423   6.648  13.666  0.9297  0.4832 -0.2714
 2957TIP3   OH230361   5.241   6.278   5.170 -0.4843  0.9716 -0.3075
 2957TIP3    H130362   5.202   6.229   5.243 -0.3182  0.8937 -0.2687
 2957TIP3    H230363   5.194   6.361   5.168 -1.5909  0.3484 -1.1302
 2958TIP3   OH230364   3.946   6.275  16.077 -0.0391 -0.3289  1.0754
 2958TIP3    H130365   3.945   6.370  16.078 -0.7625 -0.3270  0.5673
 2958TIP3    H230366   4.017   6.251  16.137  2.2415  0.5804 -1.0988
 2959TIP3   OH230367   3.947   2.121   3.822  0.6115  0.4810  0.0900
 2959TIP3    H130368   3.998   2.049   3.860  0.7500 -0.1436 -1.2411
 2959TIP3    H230369   3.858   2.106   3.852  0.3472 -1.1490 -1.4182
 2960TIP3   OH230370   0.917   1.468   2.954 -0.3398  0.2425  0.3844
 2960TIP3    H130371   0.910   1.563   2.962  0.4754  0.5810 -2.1029
 2960TIP3    H230372   0.827   1.438   2.948 -0.5967  0.8876  0.9022
 2961TIP3   OH230373   4.735   6.324   4.929  0.4346  0.2179 -0.4391
 2961TIP3    H130374   4.754   6.235   4.901  2.5075  0.9579 -1.5609
 2961TIP3    H230375   4.757   6.325   5.022 -0.9237 -0.7492 -0.0738
 2962TIP3   OH230376   6.757   0.398  12.819  0.1060 -0.6517  0.3656
 2962TIP3    H130377   6.753   0.494  12.824  2.1030 -0.4726 -0.6497
 2962TIP3    H230378   6.687   0.374  12.759  0.2656  0.2772 -0.2124
 2963TIP3   OH230379   1.423   1.931  15.829 -0.1163  0.7337 -0.4149
 2963TIP3    H130380   1.341   1.970  15.800 -1.2228 -0.1581  1.3540
 2963TIP3    H230381   1.444   1.975  15.911  0.1580 -0.3070  0.1007
 2964TIP3   OH230382   3.235   4.895  15.071  0.4417  0.6571 -0.4211
 2964TIP3    H130383   3.243   4.828  15.004 -0.2300  0.0410  0.0958
 2964TIP3    H230384   3.324   4.925  15.087  0.6749  0.3364 -1.1077
 2965TIP3   OH230385   4.298   4.908  15.931  0.0771 -0.4401 -0.2565
 2965TIP3    H130386   4.288   4.815  15.914  2.2286 -0.5391 -1.3083
 2965TIP3    H230387   4.380   4.916  15.980 -0.2777  0.8766  0.1852
 2966TIP3   OH230388   2.634   1.481   2.447 -0.3129  0.4072  0.7305
 2966TIP3    H130389   2.698   1.541   2.487  0.2028  0.5364 -0.2382
 2966TIP3    H230390   2.555   1.534   2.437  0.1053  0.9104 -0.0127
 2967TIP3   OH230391   6.355   4.400  12.920  0.7839 -0.0351  0.2863
 2967TIP3    H130392   6.439   4.428  12.884  0.6757  0.0300  0.0784
 2967TIP3    H230393   6.377   4.355  13.001  1.2011 -1.8692 -0.7846
 2968TIP3   OH230394   2.545   0.022  14.213 -0.0772 -0.1799  0.0572
 2968TIP3    H130395   2.469  -0.035  14.205  0.1259 -0.2646 -1.5742
 2968TIP3    H230396   2.523   0.082  14.285 -1.7492 -0.0903 -0.5022
 2969TIP3   OH230397   4.865   3.876  11.764  0.1045 -0.3041  0.2672
 2969TIP3    H130398   4.842   3.783  11.755  0.9113 -0.4863  0.0180
 2969TIP3    H230399   4.948   3.885  11.717 -0.8999  0.9482 -1.4047
 2970TIP3   OH230400   3.607   1.115  11.131 -0.6522 -0.0919 -0.0936
 2970TIP3    H130401   3.684   1.115  11.075  0.2257  0.5453  1.0550
 2970TIP3    H230402   3.570   1.203  11.122 -1.4658 -0.5040 -0.9085
 2971TIP3   OH230403   1.782   3.634  12.614 -0.0060  0.1895 -0.3390
 2971TIP3    H130404   1.727   3.562  12.647 -0.0566  0.5309  0.3339
 2971TIP3    H230405   1.872   3.603  12.627  0.0887 -1.5668 -3.9712
 2972TIP3   OH230406   4.342   3.774   4.424 -0.0944  0.7950 -0.5596
 2972TIP3    H130407   4.374   3.859   4.455 -0.1970  0.5013  0.3927
 2972TIP3    H230408   4.408   3.746   4.360  0.7327  0.9190  0.2167
 2973TIP3   OH230409   5.468   3.472  14.742  0.3754 -0.5588 -0.0584
 2973TIP3    H130410   5.457   3.386  14.781  1.8348 -0.1100  1.5039
 2973TIP3    H230411   5.379   3.503  14.724 -0.3101 -1.3520  1.7741
 2974TIP3   OH230412   5.905   3.666   3.284  0.3605 -0.0042  0.0665
 2974TIP3    H130413   5.893   3.758   3.260 -1.4497 -0.0626  0.5938
 2974TIP3    H230414   5.924   3.622   3.201 -1.6123  0.4388 -0.6939
 2975TIP3   OH230415   1.669   3.187  15.121  0.0717 -0.3610 -0.0742
 2975TIP3    H130416   1.717   3.143  15.051  0.3911 -1.6895  0.9426
 2975TIP3    H230417   1.695   3.141  15.201  1.6827  2.6238  1.3188
 2976TIP3   OH230418   3.574   4.463   0.591  0.0528 -0.0645  0.1454
 2976TIP3    H130419   3.604   4.554   0.584  1.5403 -0.2535  2.6496
 2976TIP3    H230420   3.484   4.465   0.559  0.0392  2.2889  0.1082
 2977TIP3   OH230421   5.085   6.252   5.973  0.2739  0.0207 -0.4261
 2977TIP3    H130422   5.094   6.239   5.878  0.9915  0.4662 -0.4233
 2977TIP3    H230423   5.166   6.294   5.999 -0.3866  0.9157  0.2193
 2978TIP3   OH230424   0.792   4.352  13.350 -0.0286  0.4886 -0.4477
 2978TIP3    H130425   0.807   4.395  13.266  1.4835  0.2216 -0.3275
 2978TIP3    H230426   0.723   4.405  13.391  1.1916  2.3588 -0.6605
 2979TIP3   OH230427   0.685   2.753   1.695 -0.4802 -0.0112 -0.1524
 2979TIP3    H130428   0.630   2.831   1.704 -0.6074 -0.2052  0.8325
 2979TIP3    H230429   0.666   2.701   1.773  0.0807 -0.7302 -0.4840
 2980TIP3   OH230430   0.531   3.354   0.328  0.2284  0.0204  0.4149
 2980TIP3    H130431   0.620   3.330   0.356  1.0636  2.3475 -0.0603
 2980TIP3    H230432   0.478   3.277   0.351  2.5496 -2.0167 -0.4997
 2981TIP3   OH230433   1.454   0.931   0.827 -0.2259 -0.5243  0.3298
 2981TIP3    H130434   1.410   0.991   0.766  1.5300  1.3719  0.7950
 2981TIP3    H230435   1.541   0.970   0.838 -0.0499 -1.5423  3.0279
 2982TIP3   OH230436   1.673   5.079   4.836  0.2136  0.3223  0.8169
 2982TIP3    H130437   1.709   5.168   4.841 -0.0847  0.4506  0.6873
 2982TIP3    H230438   1.685   5.044   4.925  0.0005  0.6233  0.9687
 2983TIP3   OH230439   3.431   0.971  16.324 -0.5593 -0.0818 -0.3264
 2983TIP3    H130440   3.403   1.032  16.256  0.1324  0.4773 -0.1294
 2983TIP3    H230441   3.398   1.009  16.406  1.8986  1.3982  0.0938
 2984TIP3   OH230442   1.093   4.984  14.078  0.2152  0.0082  0.7197
 2984TIP3    H130443   1.161   5.051  14.088 -1.4933  2.0903 -0.6296
 2984TIP3    H230444   1.021   5.015  14.134 -1.8613  1.2146 -2.3314
 2985TIP3   OH230445   1.542   2.745  16.059 -0.2260  0.6588 -0.8714
 2985TIP3    H130446   1.578   2.722  16.144 -0.5425 -0.0541 -0.9228
 2985TIP3    H230447   1.476   2.812  16.078 -2.1081 -1.2411 -0.2147
 2986TIP3   OH230448   4.210   6.698   5.922  0.8416  0.0243  0.4897
 2986TIP3    H130449   4.218   6.750   6.002 -0.2947 -1.0768  1.3514
 2986TIP3    H230450   4.257   6.749   5.856  2.8345  0.4077  2.0883
 2987TIP3   OH230451   0.798   5.451   0.677  0.0888 -0.1887 -0.0952
 2987TIP3    H130452   0.777   5.396   0.602  2.1612  0.1389 -0.9923
 2987TIP3    H230453   0.883   5.419   0.707  1.1297  2.1172 -0.3221
 2988TIP3   OH230454   2.153   3.779  15.773 -0.1922  0.1945 -0.2625
 2988TIP3    H130455   2.107   3.852  15.814  0.0337 -0.3300  0.9894
 2988TIP3    H230456   2.201   3.737  15.845  0.8329 -0.3289 -1.2056
 2989TIP3   OH230457   4.324   3.592  11.460 -0.3322  0.3068  0.5890
 2989TIP3    H130458   4.416   3.567  11.473  0.2145  1.6776 -0.4304
 2989TIP3    H230459   4.280   3.509  11.440  0.9847 -0.1614 -0.5534
 2990TIP3   OH230460   0.709   3.542   1.835  0.3211 -0.0265 -0.5366
 2990TIP3    H130461   0.616   3.548   1.817  0.7637 -0.8890 -3.6963
 2990TIP3    H230462   0.732   3.450   1.818  1.8391  0.2804 -0.3617
 2991TIP3   OH230463   1.229   1.165  11.421  0.6334  0.4301 -0.0464
 2991TIP3    H130464   1.270   1.169  11.334  0.8660  2.1816  0.1164
 2991TIP3    H230465   1.260   1.243  11.466 -2.5638  1.6777  0.2181
 2992TIP3   OH230466   4.851   0.840  14.532 -0.5863 -0.0763  0.6814
 2992TIP3    H130467   4.914   0.773  14.557  0.3369  0.4052 -0.2326
 2992TIP3    H230468   4.802   0.801  14.460  0.6699  0.5471 -0.5780
 2993TIP3   OH230469   5.121   1.595  13.319 -0.1263  0.0650 -0.3180
 2993TIP3    H130470   5.041   1.593  13.371  0.5280 -1.6037  0.7271
 2993TIP3    H230471   5.099   1.648  13.243 -2.2527 -0.4092 -0.1038
 2994TIP3   OH230472   4.101   5.754   0.633 -0.9344  0.3433 -0.0096
 2994TIP3    H130473   4.192   5.747   0.660 -0.7703 -0.5626 -0.7647
 2994TIP3    H230474   4.070   5.664   0.629 -0.7938  0.3248 -3.2735
 2995TIP3   OH230475   5.178   1.086  15.068 -0.1617 -0.3995  0.3804
 2995TIP3    H130476   5.235   1.098  15.144  2.5177 -0.5901 -1.4727
 2995TIP3    H230477   5.165   0.991  15.063  2.1297 -0.7130 -0.9779
 2996TIP3   OH230478   4.277   6.559  16.105  0.2434  0.5920  0.1891
 2996TIP3    H130479   4.185   6.582  16.095 -0.6552 -2.4382  0.7327
 2996TIP3    H230480   4.288   6.547  16.199  0.5005 -1.4980 -0.0704
 2997TIP3   OH230481   5.703   5.315   2.647 -0.4943 -0.0160 -0.0602
 2997TIP3    H130482   5.688   5.320   2.553 -1.2066  0.3004  0.0647
 2997TIP3    H230483   5.688   5.404   2.679 -1.8900 -0.4487  0.5722
 2998TIP3   OH230484   0.659   1.150   6.372 -0.1053 -0.1235  0.4246
 2998TIP3    H130485   0.617   1.221   6.323  0.2303 -0.6322 -0.6405
 2998TIP3    H230486   0.641   1.071   6.319  0.0406 -0.7332  1.2696
 2999TIP3   OH230487   4.503   1.675  16.168  0.5679 -0.1944  0.6600
 2999TIP3    H130488   4.517   1.584  16.142  1.7995 -0.4593  2.0999
 2999TIP3    H230489   4.417   1.674  16.210 -0.6548 -0.0992 -1.6815
 3000TIP3   OH230490   1.978   0.262  11.064  0.1933 -0.2961  0.0258
 3000TIP3    H130491   1.993   0.182  11.114 -0.5738  0.5843  1.7771
 3000TIP3    H230492   1.883   0.264  11.051 -0.0959  1.3638  1.9486
 3001TIP3   OH230493   1.405   5.091   0.090  0.8218 -0.0967  0.3126
 3001TIP3    H130494   1.337   5.052   0.035  0.5776  1.7967 -0.8155
 3001TIP3    H230495   1.365   5.170   0.126  2.2355  0.7616  0.0692
 3002TIP3   OH230496   1.808   1.992   0.534  0.5401 -0.1280  0.5013
 3002TIP3    H130497   1.737   1.932   0.557 -0.9641  0.4287 -2.2305
 3002TIP3    H230498   1.808   2.057   0.604 -1.3757 -0.4084  0.8251
 3003TIP3   OH230499   0.321   5.710  13.674 -0.0102  0.2074  0.6017
 3003TIP3    H130500   0.260   5.763  13.725 -1.5147  0.6087 -1.4872
 3003TIP3    H230501   0.389   5.771  13.647  1.0295 -0.0995  2.3967
 3004TIP3   OH230502   1.092   2.628  15.197 -0.6337 -0.3157  0.0558
 3004TIP3    H130503   1.177   2.665  15.176 -0.7389  0.1871  0.5112
 3004TIP3    H230504   1.039   2.645  15.119 -0.2354 -0.9033 -0.3512
 3005TIP3   OH230505   2.423   6.556  12.201 -0.2957 -0.3945  0.8239
 3005TIP3    H130506   2.440   6.606  12.281 -0.1223  0.6455  0.1563
 3005TIP3    H230507   2.395   6.621  12.137  1.3965 -0.9124 -0.5175
 3006TIP3   OH230508   2.316   5.098   1.749 -0.0671 -0.1558  0.3547
 3006TIP3    H130509   2.408   5.125   1.750  0.3415 -1.4472 -0.4896
 3006TIP3    H230510   2.293   5.088   1.842  0.7638 -0.2077  0.5621
 3007TIP3   OH230511   5.391   0.367  13.552 -0.4320  0.2698 -0.1352
 3007TIP3    H130512   5.385   0.388  13.459 -0.9534 -0.6862 -0.3381
 3007TIP3    H230513   5.484   0.376  13.573 -0.5923  2.4869 -0.2240
 3008TIP3   OH230514   5.772   0.211  17.145 -0.0285 -0.4301  0.2621
 3008TIP3    H130515   5.722   0.174  17.072  0.0226  0.1365 -0.0652
 3008TIP3    H230516   5.757   0.150  17.218  0.3295 -1.2787 -0.3582
 3009TIP3   OH230517   0.881   3.841  11.293  0.5482 -0.0039 -0.2522
 3009TIP3    H130518   0.969   3.807  11.279 -0.4020 -2.4068 -0.8856
 3009TIP3    H230519   0.862   3.891  11.213  0.0147 -2.6496 -1.8921
 3010TIP3   OH230520   4.179   3.518  13.265  0.5713  0.1471 -0.1270
 3010TIP3    H130521   4.261   3.524  13.314 -0.1904 -1.3430  1.4132
 3010TIP3    H230522   4.174   3.426  13.237 -0.6088  0.1937 -0.1234
 3011TIP3   OH230523   5.833   4.216  13.206  0.2053  0.6589 -0.5923
 3011TIP3    H130524   5.826   4.240  13.114 -0.0616  1.1231 -0.4565
 3011TIP3    H230525   5.920   4.247  13.232  0.0985  0.9496 -0.5734
 3012TIP3   OH230526   3.973   5.018   4.585 -0.5533  0.2337  0.6960
 3012TIP3    H130527   4.032   4.950   4.617 -1.9450 -1.8297 -0.9061
 3012TIP3    H230528   4.020   5.057   4.511 -1.2462 -1.6607 -0.8214
 3013TIP3   OH230529   4.788   4.618  16.500 -0.5978 -0.1331 -0.1880
 3013TIP3    H130530   4.814   4.662  16.581  0.7573 -2.3833  0.6930
 3013TIP3    H230531   4.733   4.545  16.528 -0.4298 -0.7191 -1.3124
 3014TIP3   OH230532   6.278   5.614   2.238  0.5888 -0.1686 -0.1650
 3014TIP3    H130533   6.215   5.649   2.174  0.6913  2.1069  0.8781
 3014TIP3    H230534   6.364   5.631   2.198  0.6212 -0.1113 -0.0704
 3015TIP3   OH230535   5.695   0.012   5.727 -0.3272  0.2311 -0.2491
 3015TIP3    H130536   5.680   0.060   5.808  0.9540 -2.3523  1.6595
 3015TIP3    H230537   5.781   0.041   5.697  0.1933 -0.3973  0.5890
 3016TIP3   OH230538   2.940   6.603  11.759 -0.2717  0.4223 -0.6126
 3016TIP3    H130539   2.959   6.596  11.665 -1.0074 -0.7376 -0.6938
 3016TIP3    H230540   2.850   6.574  11.768 -0.2205  0.5483  0.4570
 3017TIP3   OH230541   5.974   5.374   2.744 -0.4189 -0.8326  0.5178
 3017TIP3    H130542   6.004   5.452   2.697 -0.0047 -1.0860  0.3635
 3017TIP3    H230543   5.884   5.361   2.713 -0.0795 -1.1300 -0.3874
 3018TIP3   OH230544   4.836   6.069   1.438 -0.2271 -0.4410  0.6797
 3018TIP3    H130545   4.829   6.154   1.481 -0.8781  0.4244 -1.0315
 3018TIP3    H230546   4.903   6.022   1.488  3.2670  2.5938 -0.7254
 3019TIP3   OH230547   2.484   5.400   0.802  0.2245 -0.1435 -0.0765
 3019TIP3    H130548   2.443   5.373   0.720 -0.3276 -1.0071  0.4563
 3019TIP3    H230549   2.558   5.339   0.813  0.3329  0.0069  0.0394
 3020TIP3   OH230550   0.945   2.800   2.688 -0.1653 -0.1723 -0.9839
 3020TIP3    H130551   0.855   2.771   2.704 -0.2147  0.3691 -0.2090
 3020TIP3    H230552   0.970   2.758   2.606  0.1192 -3.1370  0.5101
 3021TIP3   OH230553   1.825   3.872  11.419 -0.5634  0.0863 -0.1674
 3021TIP3    H130554   1.916   3.903  11.421  0.2712 -2.0700  2.4591
 3021TIP3    H230555   1.780   3.932  11.360  2.7932  0.5490 -2.5349
 3022TIP3   OH230556   5.459   0.019  13.678 -0.8543  0.0605  0.5661
 3022TIP3    H130557   5.464  -0.009  13.770 -1.2814 -1.2595  0.2038
 3022TIP3    H230558   5.542   0.063  13.662  0.0451 -1.3955  1.0443
 3023TIP3   OH230559   2.487   1.675   1.384 -0.5002  0.0369 -0.2318
 3023TIP3    H130560   2.474   1.661   1.290  0.0369  3.4526 -0.9532
 3023TIP3    H230561   2.580   1.696   1.393 -0.4956 -0.4481  1.1286
 3024TIP3   OH230562   3.047   4.044  13.099  0.2349 -0.0106  0.1123
 3024TIP3    H130563   2.955   4.050  13.072  0.5916 -0.7488 -1.3707
 3024TIP3    H230564   3.046   3.983  13.173 -0.5436  0.4981  0.5335
 3025TIP3   OH230565   1.249   4.047   1.629 -0.5358  0.4625 -0.2534
 3025TIP3    H130566   1.211   4.100   1.699 -0.6063 -0.3265  0.3311
 3025TIP3    H230567   1.343   4.049   1.647 -0.2273  2.5329 -1.7822
 3026TIP3   OH230568   2.117   1.418   0.507 -0.2677  0.1453 -0.1787
 3026TIP3    H130569   2.033   1.454   0.537  0.1533  2.5796 -1.6607
 3026TIP3    H230570   2.100   1.324   0.495 -2.2037  0.2352  1.3457
 3027TIP3   OH230571   3.370   1.894  15.420 -0.1832  0.1164  0.3012
 3027TIP3    H130572   3.450   1.932  15.456  0.3375 -1.1459  0.5094
 3027TIP3    H230573   3.316   1.970  15.397  0.7106  0.9729  0.9508
 3028TIP3   OH230574   3.288   6.433   0.626  0.6019 -0.2823  0.8093
 3028TIP3    H130575   3.298   6.501   0.692  1.1334  0.9615 -0.4946
 3028TIP3    H230576   3.206   6.390   0.648 -1.3489  2.7400  0.0324
 3029TIP3   OH230577   4.006   4.362   0.623  0.0915  0.5823 -0.3232
 3029TIP3    H130578   4.036   4.278   0.657 -0.6037  0.6673  0.5471
 3029TIP3    H230579   3.984   4.344   0.532  0.5630 -0.0264 -0.3213
 3030TIP3   OH230580   1.057   4.132  13.804  0.0571  0.0242  0.0560
 3030TIP3    H130581   1.142   4.174  13.792 -0.3847  0.9182 -0.0376
 3030TIP3    H230582   1.065   4.048  13.758  1.8373 -1.2555  2.4519
 3031TIP3   OH230583   4.625   5.345   3.243  0.0849  0.2516 -0.4516
 3031TIP3    H130584   4.683   5.269   3.245 -1.1595 -0.6997  0.5234
 3031TIP3    H230585   4.605   5.358   3.150  0.2302 -0.6724 -0.6196
 3032TIP3   OH230586   6.382   2.869   1.996 -0.1872  0.4562  0.2287
 3032TIP3    H130587   6.405   2.854   1.904  2.1055  0.7510  0.6828
 3032TIP3    H230588   6.343   2.787   2.025 -0.5474  0.2164 -0.8872
 3033TIP3   OH230589   4.611   2.223  13.123 -0.5227 -0.1442 -0.5011
 3033TIP3    H130590   4.707   2.222  13.126 -0.4190 -2.0147 -2.0741
 3033TIP3    H230591   4.589   2.174  13.043 -2.7896  0.6172 -0.4166
 3034TIP3   OH230592   5.335   4.127   5.713 -0.0807  0.2457 -0.6137
 3034TIP3    H130593   5.301   4.139   5.802  0.5465 -0.6960 -0.2347
 3034TIP3    H230594   5.429   4.115   5.725  0.2206  1.4464 -1.5382
 3035TIP3   OH230595   2.635   5.539   5.309 -0.3973 -0.4338 -0.6689
 3035TIP3    H130596   2.678   5.542   5.224 -0.3363 -2.3647 -0.7494
 3035TIP3    H230597   2.542   5.547   5.290 -0.2684  1.1445 -0.7207
 3036TIP3   OH230598   5.542   1.937   3.547  0.8394  0.0185 -0.1625
 3036TIP3    H130599   5.591   1.929   3.465 -0.2153 -0.6902 -0.7552
 3036TIP3    H230600   5.463   1.985   3.523 -0.5537 -2.1108 -0.0901
 3037TIP3   OH230601   6.417   6.043  13.619 -0.5481 -0.0840  0.4478
 3037TIP3    H130602   6.479   5.988  13.667  0.7409  0.6300 -0.3264
 3037TIP3    H230603   6.472   6.090  13.555 -1.8652  0.7523 -0.1034
 3038TIP3   OH230604   2.257   5.472  15.637  0.0666 -0.1008 -0.4267
 3038TIP3    H130605   2.347   5.498  15.616 -0.6551  2.0889 -1.1461
 3038TIP3    H230606   2.246   5.493  15.729  0.8442 -2.2583  0.2122
 3039TIP3   OH230607   5.576   5.859  12.949 -0.1312  0.4424  0.0038
 3039TIP3    H130608   5.493   5.830  12.911  0.1777  0.7831 -0.9390
 3039TIP3    H230609   5.637   5.787  12.934 -0.0521  0.5064  0.0138
 3040TIP3   OH230610   1.930   5.423  12.331  0.2904 -0.9094  0.4562
 3040TIP3    H130611   1.988   5.488  12.371 -1.1162 -0.0564  1.1548
 3040TIP3    H230612   1.879   5.388  12.404 -0.7090 -0.9963 -0.2723
 3041TIP3   OH230613   3.758   1.057   4.410  0.2854 -0.0933 -0.6076
 3041TIP3    H130614   3.726   1.018   4.491 -1.0666  0.8810 -0.6329
 3041TIP3    H230615   3.738   1.150   4.419  0.7523  0.1396 -1.7748
 3042TIP3   OH230616   6.729   6.647  12.566  0.7534  0.0108 -0.2123
 3042TIP3    H130617   6.793   6.623  12.633  2.2185 -0.4574 -1.7126
 3042TIP3    H230618   6.749   6.738  12.545  0.9930 -0.1556 -0.7285
 3043TIP3   OH230619   0.442   2.689   2.909  0.1061  0.2196  0.4974
 3043TIP3    H130620   0.407   2.756   2.966 -0.1941 -0.9665  1.7619
 3043TIP3    H230621   0.374   2.674   2.844  0.1644  1.0841  0.2252
 3044TIP3   OH230622   1.749   3.373   4.631  0.1458  0.2788 -0.2107
 3044TIP3    H130623   1.780   3.401   4.545  1.0246  2.2969  0.6968
 3044TIP3    H230624   1.823   3.325   4.669  0.4644  1.0187  0.1252
 3045TIP3   OH230625   4.802   5.429   2.599  0.1264  0.0066  0.4004
 3045TIP3    H130626   4.863   5.430   2.525  0.7545  0.9977  0.9110
 3045TIP3    H230627   4.729   5.485   2.570  0.4074  0.4561  0.5532
 3046TIP3   OH230628   2.608   6.099   5.289  0.1210  0.4030 -0.3688
 3046TIP3    H130629   2.587   6.100   5.195 -0.1792 -1.1821 -0.3390
 3046TIP3    H230630   2.689   6.049   5.295  0.7720  1.4767  0.1302
 3047TIP3   OH230631   3.475   4.229  16.039  0.0978  0.4026  0.4455
 3047TIP3    H130632   3.449   4.139  16.055 -1.6307  0.8468  0.2638
 3047TIP3    H230633   3.438   4.279  16.111  2.0578  0.8531  1.2158
 3048TIP3   OH230634   2.572   4.228   4.235  0.5953 -0.2479  0.1237
 3048TIP3    H130635   2.525   4.176   4.300  0.2603  0.0508  0.1216
 3048TIP3    H230636   2.516   4.304   4.220  1.9317  1.0721  1.5040
 3049TIP3   OH230637   1.798   6.252  14.744 -0.0497 -0.3309  0.2385
 3049TIP3    H130638   1.839   6.296  14.819  1.4091  0.3683 -0.9026
 3049TIP3    H230639   1.872   6.225  14.689 -1.0847 -0.2137 -1.2794
 3050TIP3   OH230640   4.966   6.391   3.072  0.2567 -0.1093  0.0501
 3050TIP3    H130641   4.873   6.413   3.074  0.4166  0.5461  0.6556
 3050TIP3    H230642   4.978   6.348   2.988 -0.2042  1.6035 -0.9522
 3051TIP3   OH230643   0.541   6.048  15.998  0.0258  0.2922  0.1118
 3051TIP3    H130644   0.590   6.105  15.939  0.2606 -0.6502 -0.6335
 3051TIP3    H230645   0.449   6.070  15.982 -0.0577 -1.2991 -2.1306
 3052TIP3   OH230646   0.061   5.491  12.532 -0.0378  0.1259  0.4884
 3052TIP3    H130647   0.149   5.513  12.502 -0.3751  0.5771 -0.1885
 3052TIP3    H230648   0.044   5.403  12.497 -0.6135  0.8382 -1.0896
 3053TIP3   OH230649   1.310   6.447  14.279  0.1999 -0.3538 -0.0323
 3053TIP3    H130650   1.380   6.421  14.219  1.7563 -1.1967  2.0150
 3053TIP3    H230651   1.342   6.420  14.365 -1.6823  1.2903  1.2535
 3054TIP3   OH230652   4.366   3.998  11.747 -0.1121  0.0696 -0.0971
 3054TIP3    H130653   4.432   3.932  11.726  1.8362  2.5215 -2.3369
 3054TIP3    H230654   4.377   4.014  11.841  2.3967  0.2400 -0.3715
 3055TIP3   OH230655   2.103   6.360   1.178 -0.9060  0.3320  0.1497
 3055TIP3    H130656   2.194   6.345   1.204  0.0590  1.8926 -2.0087
 3055TIP3    H230657   2.060   6.276   1.189  1.4346 -1.1424 -1.1350
 3056TIP3   OH230658   1.619   6.607  12.411 -0.0994  0.0898 -0.1786
 3056TIP3    H130659   1.588   6.569  12.494  0.1932  1.2224  0.4649
 3056TIP3    H230660   1.557   6.676  12.391 -0.8724 -0.9481 -1.5720
 3057TIP3   OH230661   6.611   4.143   5.023 -0.1752 -0.0794  0.1820
 3057TIP3    H130662   6.692   4.093   5.033 -0.2020 -0.1309  0.1429
 3057TIP3    H230663   6.633   4.214   4.963  0.3676  1.0678  1.6753
 3058TIP3   OH230664   3.784   6.048   1.659 -0.2893  0.0900  0.1269
 3058TIP3    H130665   3.781   5.963   1.703  0.6359  0.1109  0.2544
 3058TIP3    H230666   3.799   6.026   1.567  0.4249  0.1132  0.2277
 3059TIP3   OH230667   6.182   5.247   3.372  0.2599  0.2399 -0.0199
 3059TIP3    H130668   6.089   5.262   3.355  0.3522 -0.2925 -1.0108
 3059TIP3    H230669   6.192   5.152   3.372  0.9094  0.3039 -0.4894
 3060TIP3   OH230670   1.042   5.831   5.149  0.5187 -0.2372 -0.2227
 3060TIP3    H130671   0.999   5.804   5.230  0.7539  0.6099  0.1906
 3060TIP3    H230672   1.074   5.749   5.111  0.8012 -0.6092  0.7710
 3061TIP3   OH230673   5.243   6.803  16.792 -0.2785 -0.1624  0.5528
 3061TIP3    H130674   5.239   6.803  16.697 -1.6103 -1.9741  0.5767
 3061TIP3    H230675   5.249   6.896  16.815 -2.7624  0.5234 -1.2007
 3062TIP3   OH230676   6.649   5.096   1.635  0.2617  0.0407 -0.1989
 3062TIP3    H130677   6.633   5.106   1.542  2.1007 -3.3964 -1.0892
 3062TIP3    H230678   6.602   5.016   1.660  0.7987  0.1952  1.5044
 3063TIP3   OH230679   3.244   2.881   2.869 -0.4686 -0.9869 -0.5714
 3063TIP3    H130680   3.195   2.803   2.841  0.5545 -1.9874  0.3219
 3063TIP3    H230681   3.313   2.847   2.925 -1.1357  0.7348  1.4143
 3064TIP3   OH230682   5.558   5.850  13.825 -0.3223  0.0404  0.2485
 3064TIP3    H130683   5.487   5.860  13.889 -0.4109 -2.8010  0.7358
 3064TIP3    H230684   5.514   5.850  13.740 -0.5659  0.9470  0.3692
 3065TIP3   OH230685   3.087   1.061   4.631 -0.4728  0.5185 -0.2047
 3065TIP3    H130686   3.163   1.070   4.574 -0.9322  0.4897 -0.8422
 3065TIP3    H230687   3.019   1.112   4.588 -1.2322 -0.6453 -0.4263
 3066TIP3   OH230688   2.962   4.305  14.784  0.8315  0.1115  0.0424
 3066TIP3    H130689   2.957   4.236  14.718 -0.0218 -0.1144  0.3223
 3066TIP3    H230690   3.038   4.358  14.758  0.8231 -0.2770 -0.8199
 3067TIP3   OH230691   3.321   4.891  11.793 -0.4652 -0.0370  0.9696
 3067TIP3    H130692   3.345   4.941  11.871 -2.0170 -2.2164  2.9877
 3067TIP3    H230693   3.380   4.815  11.795 -1.2023 -0.6255  0.5939
 3068TIP3   OH230694   3.056   2.750  15.891  0.3248 -0.2987  0.3554
 3068TIP3    H130695   3.133   2.704  15.922  1.4211  0.0633 -1.6790
 3068TIP3    H230696   3.077   2.775  15.801 -1.9892  0.2110 -0.1123
 3069TIP3   OH230697   6.323   5.458  16.829 -0.2881 -0.2348 -0.2120
 3069TIP3    H130698   6.383   5.522  16.868 -0.8652  0.2674 -0.1272
 3069TIP3    H230699   6.379   5.402  16.776 -0.0751  2.4408 -3.1487
 3070TIP3   OH230700   3.192   0.436   4.230 -0.8153  0.0802  0.4365
 3070TIP3    H130701   3.230   0.386   4.158 -2.1003  0.0537 -0.2466
 3070TIP3    H230702   3.152   0.512   4.188 -2.2647 -0.3390  1.0082
 3071TIP3   OH230703   0.299   1.404  14.573 -0.9563  0.5243  0.2926
 3071TIP3    H130704   0.272   1.377  14.661 -2.1190  1.6366  0.3235
 3071TIP3    H230705   0.342   1.489  14.587  0.1806  0.0154 -0.0663
 3072TIP3   OH230706   6.003   0.418   0.615 -0.1686  0.4430 -0.3409
 3072TIP3    H130707   6.048   0.423   0.530  0.1347 -2.0084 -0.3912
 3072TIP3    H230708   5.912   0.438   0.595 -0.9881 -4.0078 -2.1573
 3073TIP3   OH230709   5.595   5.176  15.807 -0.1180  0.6208 -0.2412
 3073TIP3    H130710   5.562   5.265  15.803 -0.5502  0.4246 -1.3895
 3073TIP3    H230711   5.690   5.185  15.803 -0.0719  1.0875  1.2086
 3074TIP3   OH230712   5.829   3.200   3.428  0.4267 -0.3344  0.1943
 3074TIP3    H130713   5.855   3.292   3.424  1.6181 -0.6227  0.7359
 3074TIP3    H230714   5.897   3.159   3.481  0.0741 -1.5905 -0.2999
 3075TIP3   OH230715   3.367   1.459   5.846 -0.0553 -0.3511 -0.0878
 3075TIP3    H130716   3.433   1.469   5.778  0.8877  2.1070  1.0581
 3075TIP3    H230717   3.361   1.365   5.861  0.5851 -0.8733 -2.6609
 3076TIP3   OH230718   1.541   1.984   2.576  0.4139  0.0745 -0.4354
 3076TIP3    H130719   1.549   1.889   2.572 -0.3829 -0.0935  1.1175
 3076TIP3    H230720   1.620   2.017   2.535  0.8223 -1.2620 -0.7662
 3077TIP3   OH230721   3.783   3.916  13.120  0.2663  0.0954 -0.2690
 3077TIP3    H130722   3.793   3.842  13.060 -0.3726 -0.5171  0.3526
 3077TIP3    H230723   3.821   3.990  13.073 -0.0883 -0.3908 -1.3641
 3078TIP3   OH230724   3.095   3.766   5.481  0.6118  0.1546  0.2179
 3078TIP3    H130725   3.014   3.715   5.473  0.4445  0.6996 -2.7478
 3078TIP3    H230726   3.113   3.768   5.575 -1.5438 -1.9346  0.7755
 3079TIP3   OH230727   5.925   0.603   6.536 -0.0398 -0.4859  0.1868
 3079TIP3    H130728   6.003   0.562   6.573 -0.6671 -0.4936  1.5801
 3079TIP3    H230729   5.905   0.675   6.596 -1.4146 -0.8239  0.1822
 3080TIP3   OH230730   6.352   3.259   0.543  0.2656  0.3174 -0.2267
 3080TIP3    H130731   6.336   3.348   0.575 -0.0063  0.0069  0.5433
 3080TIP3    H230732   6.271   3.212   0.564 -0.5037  0.4140 -2.6641
 3081TIP3   OH230733   5.305   5.333   6.140  0.6945 -0.3365 -0.3525
 3081TIP3    H130734   5.397   5.330   6.165  0.2642  1.5900  1.8244
 3081TIP3    H230735   5.259   5.359   6.220 -1.3973  1.6117 -2.0483
 3082TIP3   OH230736   3.789   0.123   4.544  0.1699  0.2139 -0.5036
 3082TIP3    H130737   3.823   0.107   4.633 -0.1425 -1.4215 -0.6443
 3082TIP3    H230738   3.734   0.201   4.553  1.8655  1.3766  0.2626
 3083TIP3   OH230739   1.153   4.315   4.086  0.2855 -0.2618 -0.7059
 3083TIP3    H130740   1.099   4.261   4.029 -0.6268  1.5485 -1.6484
 3083TIP3    H230741   1.114   4.305   4.173 -0.0473 -0.8583 -0.9193
 3084TIP3   OH230742   3.805   6.214   4.942 -0.5910 -0.8646 -0.7626
 3084TIP3    H130743   3.840   6.210   4.854 -0.6995  2.8065 -1.1240
 3084TIP3    H230744   3.847   6.290   4.982 -3.5210  0.0894  0.8720
 3085TIP3   OH230745   0.722   4.179   1.661 -0.2973  0.2219  0.1556
 3085TIP3    H130746   0.636   4.140   1.643 -0.2377  0.0409  0.2556
 3085TIP3    H230747   0.720   4.198   1.755  0.2135 -0.9006  0.4174
 3086TIP3   OH230748   0.789   0.520  12.408 -0.1938  0.5441  0.3971
 3086TIP3    H130749   0.733   0.593  12.433  0.5228  1.5868 -0.9031
 3086TIP3    H230750   0.830   0.492  12.490 -0.5869  1.5136  0.9429
 3087TIP3   OH230751   3.456   2.582   4.621  0.5247  0.6840 -0.2835
 3087TIP3    H130752   3.369   2.600   4.655  0.1548  0.7670 -1.2402
 3087TIP3    H230753   3.442   2.558   4.530  1.1207 -3.0234  0.4616
 3088TIP3   OH230754   6.816   1.932  14.345 -0.1762 -0.4460 -0.0828
 3088TIP3    H130755   6.899   1.944  14.298  0.3839  0.9566  1.1675
 3088TIP3    H230756   6.815   1.840  14.370 -0.1745 -1.0682 -2.2002
 3089TIP3   OH230757   5.022   5.366   4.132 -0.4368 -0.5037  0.6539
 3089TIP3    H130758   5.017   5.418   4.212 -3.0380 -2.3801  1.8445
 3089TIP3    H230759   5.067   5.286   4.159  1.1028 -0.0709 -0.4890
 3090TIP3   OH230760   3.590   3.671   0.192 -0.2946  0.4796  0.1041
 3090TIP3    H130761   3.548   3.592   0.156  0.8486 -0.2693  0.3898
 3090TIP3    H230762   3.676   3.674   0.151  0.9692 -0.2527  2.5481
 3091TIP3   OH230763   4.239   2.768  11.077  0.1984  0.1348 -0.0414
 3091TIP3    H130764   4.151   2.802  11.068  0.4370  0.6944 -0.3219
 3091TIP3    H230765   4.270   2.801  11.162  1.1579  2.3763 -1.1780
 3092TIP3   OH230766   2.203   0.797   1.112  0.0272  0.3661  0.0884
 3092TIP3    H130767   2.111   0.807   1.088 -0.3212  2.3553  2.0505
 3092TIP3    H230768   2.238   0.886   1.114  2.2984 -0.3922 -1.5187
 3093TIP3   OH230769   5.406   6.695   4.236 -0.0998 -0.3428  0.0621
 3093TIP3    H130770   5.353   6.617   4.222 -0.5586 -0.0832  0.3284
 3093TIP3    H230771   5.395   6.716   4.329 -0.6817  0.5341 -0.1865
 3094TIP3   OH230772   1.984   5.313  17.052  0.7629  0.7444  0.5832
 3094TIP3    H130773   2.055   5.348  17.106  1.8039  0.7253 -0.7196
 3094TIP3    H230774   2.020   5.233  17.014 -0.1202  0.4914  0.2508
 3095TIP3   OH230775   4.349   4.373   2.309 -0.4232  0.5910 -0.5565
 3095TIP3    H130776   4.365   4.298   2.366  0.8669  1.0211 -0.3417
 3095TIP3    H230777   4.435   4.399   2.278 -1.1347 -0.2106 -3.5018
 3096TIP3   OH230778   4.575   2.361  11.828  0.0103 -0.4129  0.2739
 3096TIP3    H130779   4.583   2.445  11.873  1.2467  0.2788 -1.1547
 3096TIP3    H230780   4.533   2.382  11.744 -0.2348 -1.3274  0.1541
 3097TIP3   OH230781   3.265   5.516  15.401  0.4312 -0.5673  0.1668
 3097TIP3    H130782   3.199   5.458  15.363 -0.8779  1.1260 -0.2406
 3097TIP3    H230783   3.318   5.544  15.326 -0.6811  0.9073 -0.1151
 3098TIP3   OH230784   3.190   4.924   0.689  0.4184 -0.8066 -0.0130
 3098TIP3    H130785   3.163   4.874   0.766 -0.4405 -1.6330 -0.8354
 3098TIP3    H230786   3.112   4.929   0.634  0.4067  1.6516  0.1262
 3099TIP3   OH230787   4.624   5.583   2.056 -0.0697  0.2045 -0.1397
 3099TIP3    H130788   4.718   5.597   2.065 -0.1047  0.5847 -0.3703
 3099TIP3    H230789   4.585   5.650   2.112 -0.2291  0.7796 -0.9351
 3100TIP3   OH230790   4.984   1.366   0.287  0.0281  0.3014  0.0212
 3100TIP3    H130791   4.932   1.295   0.325  0.0073 -0.5075 -1.4396
 3100TIP3    H230792   5.042   1.393   0.358  0.9313 -2.0681  0.2873
 3101TIP3   OH230793   1.708   0.481   4.795 -0.2850 -0.5539 -0.0213
 3101TIP3    H130794   1.728   0.445   4.882  1.3843  1.1226  0.3315
 3101TIP3    H230795   1.779   0.449   4.739  0.9287  1.5871  0.1796
 3102TIP3   OH230796   6.276   1.758   5.655  0.3762  0.1562 -0.4585
 3102TIP3    H130797   6.363   1.792   5.637 -0.5568  2.0129 -1.7844
 3102TIP3    H230798   6.236   1.747   5.568 -0.2464 -2.0712  0.0354
 3103TIP3   OH230799   1.672   4.044  15.366  0.0944  0.2416  0.4960
 3103TIP3    H130800   1.670   4.115  15.431  1.7747  1.9990 -1.2102
 3103TIP3    H230801   1.694   3.966  15.417 -0.9107  1.0939  2.3327
 3104TIP3   OH230802   0.785   5.318   0.956  0.1003  0.2068 -0.4917
 3104TIP3    H130803   0.810   5.345   0.868 -2.0263  0.9795 -0.9118
 3104TIP3    H230804   0.765   5.224   0.948  0.8107  0.0612 -0.6025
 3105TIP3   OH230805   1.839   5.693  14.793 -0.0855  0.0884 -0.3546
 3105TIP3    H130806   1.789   5.634  14.736  0.0959 -1.1872  0.7668
 3105TIP3    H230807   1.907   5.729  14.736 -0.5721 -0.2985 -1.2078
 3106TIP3   OH230808   5.534   4.005   2.538 -0.6550  0.3254 -0.2067
 3106TIP3    H130809   5.575   3.930   2.496 -1.7170  0.1789 -1.0395
 3106TIP3    H230810   5.572   4.081   2.494 -0.2870  0.2430 -0.0321
 3107TIP3   OH230811   5.024   3.823   0.972  0.3852  0.4165 -0.0886
 3107TIP3    H130812   4.964   3.756   0.938 -1.0956  0.7657  1.7147
 3107TIP3    H230813   5.097   3.773   1.009  1.1170 -0.0215 -1.9749
 3108TIP3   OH230814   4.751   4.125  14.956 -0.0867  0.1065 -0.3891
 3108TIP3    H130815   4.826   4.169  14.915 -0.1872 -0.1160 -0.8177
 3108TIP3    H230816   4.713   4.072  14.886  1.3992 -2.4819  0.6258
 3109TIP3   OH230817   0.063   5.545   4.484  0.0601 -0.2520  0.0870
 3109TIP3    H130818   0.085   5.637   4.467  1.6314 -0.8209 -1.2050
 3109TIP3    H230819  -0.030   5.538   4.462  0.2052  0.7802 -0.9544
 3110TIP3   OH230820   3.241   0.215  14.227 -0.6083 -0.3799  0.8205
 3110TIP3    H130821   3.198   0.139  14.188  0.1557  0.0475 -0.9807
 3110TIP3    H230822   3.329   0.184  14.250 -0.4904 -0.2128  0.6091
 3111TIP3   OH230823   1.496   0.550  10.564 -0.1511  0.1563 -0.5676
 3111TIP3    H130824   1.494   0.618  10.632  1.0262  1.6247 -1.9157
 3111TIP3    H230825   1.586   0.519  10.565 -0.3224 -0.3469 -0.9595
 3112TIP3   OH230826   5.505   0.271   6.296 -0.4752 -0.1339  0.0523
 3112TIP3    H130827   5.568   0.206   6.327 -0.4391 -0.3588 -0.4905
 3112TIP3    H230828   5.445   0.283   6.370 -1.3190 -1.8342 -0.3113
 3113TIP3   OH230829   4.522   4.029  10.441 -0.2184  0.1703 -0.2376
 3113TIP3    H130830   4.449   3.992  10.391 -0.4693  1.2562 -0.6994
 3113TIP3    H230831   4.534   3.968  10.514 -0.2666 -1.1084 -1.2506
 3114TIP3   OH230832   6.450   6.497   1.481 -0.0946  0.2911 -0.7961
 3114TIP3    H130833   6.376   6.492   1.542  1.4441 -3.1977  1.0453
 3114TIP3    H230834   6.489   6.582   1.499 -1.0170  0.3150  1.5320
 3115TIP3   OH230835   5.994   0.979  16.008  0.3563  0.0324 -0.0035
 3115TIP3    H130836   6.076   1.026  16.023  0.3427  0.3642 -0.9410
 3115TIP3    H230837   5.969   0.947  16.095  0.0121  2.3044  0.8000
 3116TIP3   OH230838   0.384   3.735   3.549 -0.4493 -0.0373 -0.3131
 3116TIP3    H130839   0.416   3.645   3.545 -0.9248 -0.1859 -1.1904
 3116TIP3    H230840   0.449   3.782   3.601 -0.4487 -0.9867  0.5592
 3117TIP3   OH230841   0.684   3.184  13.626  0.0523  0.0118  0.4135
 3117TIP3    H130842   0.613   3.141  13.671 -0.7049  0.6887 -0.1023
 3117TIP3    H230843   0.750   3.199  13.693 -0.8589  0.5943  1.1987
 3118TIP3   OH230844   0.781   3.548  15.036  0.1165 -0.0980 -0.8399
 3118TIP3    H130845   0.785   3.489  14.961 -0.8321  0.3256 -1.2461
 3118TIP3    H230846   0.688   3.563  15.050  0.3157  2.4173 -1.6617
 3119TIP3   OH230847   6.027   1.825  16.028 -0.0455  0.4223  0.5570
 3119TIP3    H130848   6.113   1.814  16.067  0.9389 -1.2201 -1.8677
 3119TIP3    H230849   6.024   1.916  16.000  0.6969  0.6212  1.1232
 3120TIP3   OH230850   1.183   2.943  12.733  0.1745  0.7648 -0.6389
 3120TIP3    H130851   1.263   2.942  12.787  1.2956  2.9853 -2.1170
 3120TIP3    H230852   1.193   3.020  12.677 -1.5983 -0.6076 -3.0145
 3121TIP3   OH230853   3.771   6.666  14.232  0.2121 -0.4837  0.0306
 3121TIP3    H130854   3.849   6.613  14.214 -0.4178 -0.9210 -1.5320
 3121TIP3    H230855   3.706   6.604  14.264 -0.2314 -0.5281 -0.9221
 3122TIP3   OH230856   0.049   5.400   2.368  0.1411 -0.1482  0.1922
 3122TIP3    H130857   0.023   5.492   2.375  0.5993  0.2953 -2.5980
 3122TIP3    H230858  -0.031   5.351   2.389  0.1657  0.7782  2.7644
 3123TIP3   OH230859   6.074   1.053  14.011  0.0828 -0.4371 -0.1343
 3123TIP3    H130860   6.086   1.002  13.931  0.4219 -0.0650 -0.3231
 3123TIP3    H230861   6.163   1.068  14.043  0.0075  0.3367 -0.2714
 3124TIP3   OH230862   4.375   5.684  16.840  0.3714  0.3763  0.0760
 3124TIP3    H130863   4.358   5.590  16.851  1.3644  0.3178  1.2774
 3124TIP3    H230864   4.294   5.726  16.866 -0.0829 -0.1366 -0.4610
 3125TIP3   OH230865   2.810   1.210  14.132 -0.0104 -0.6450  0.2874
 3125TIP3    H130866   2.824   1.119  14.104 -0.1288 -0.3563 -0.7509
 3125TIP3    H230867   2.897   1.250  14.126 -0.0563 -0.5535  0.2401
 3126TIP3   OH230868   5.253   1.796  16.786  0.5397 -0.2064 -0.3396
 3126TIP3    H130869   5.319   1.734  16.753 -0.2687 -0.8227 -0.8484
 3126TIP3    H230870   5.180   1.741  16.813 -0.0978  0.5111 -0.5613
 3127TIP3   OH230871   6.295   1.017  12.665 -0.2330  0.1394  0.4648
 3127TIP3    H130872   6.337   1.101  12.653  1.0259 -0.7433 -1.7272
 3127TIP3    H230873   6.219   1.019  12.607  0.1445 -0.4453 -0.0595
 3128TIP3   OH230874   1.484   2.453   0.638  0.6720 -0.0456 -0.1974
 3128TIP3    H130875   1.555   2.393   0.659  1.0884  0.5790  0.1934
 3128TIP3    H230876   1.405   2.399   0.646  1.0496 -0.5921 -0.0438
 3129TIP3   OH230877   2.576   1.451  15.460 -0.2442  0.1774  0.0009
 3129TIP3    H130878   2.597   1.453  15.367  0.4647  0.4448  0.1594
 3129TIP3    H230879   2.649   1.402  15.500  0.2723  1.3907  0.6062
 3130TIP3   OH230880   2.155   1.319  13.207  0.2806  0.4606  0.0173
 3130TIP3    H130881   2.114   1.345  13.124  0.5589  0.0107 -0.2614
 3130TIP3    H230882   2.094   1.255  13.244 -0.3846  1.4464  0.6858
 3131TIP3   OH230883   3.029   6.003  13.313  0.3320  0.0624 -0.2310
 3131TIP3    H130884   3.026   5.960  13.228  2.1141 -1.7926  0.5651
 3131TIP3    H230885   3.076   6.085  13.297 -2.4048  1.5130 -1.6126
 3132TIP3   OH230886   6.115   4.356   1.540 -0.0204  0.5075 -0.5024
 3132TIP3    H130887   6.115   4.352   1.444  0.0552 -0.3689 -0.4815
 3132TIP3    H230888   6.156   4.273   1.567  0.0052  0.7699  0.2847
 3133TIP3   OH230889   3.599   1.342   4.850  0.0363 -0.0241 -0.2320
 3133TIP3    H130890   3.559   1.391   4.779  0.2723  0.2016 -0.2110
 3133TIP3    H230891   3.681   1.387   4.867  0.2421 -0.4073 -0.1907
 3134TIP3   OH230892   2.051   5.282  11.797 -0.3480  0.3794  0.1840
 3134TIP3    H130893   2.070   5.305  11.888 -1.8752 -1.2636  0.9753
 3134TIP3    H230894   2.008   5.359  11.761  1.8481  1.7265  0.2614
 3135TIP3   OH230895   3.485   5.384   5.675  0.0682 -0.2278  0.2629
 3135TIP3    H130896   3.456   5.447   5.609  1.4492 -1.1751 -1.3441
 3135TIP3    H230897   3.444   5.414   5.756 -2.3742  0.5268 -1.1394
 3136TIP3   OH230898   0.696   4.910  14.153  0.5208  0.1487 -0.1525
 3136TIP3    H130899   0.756   4.875  14.218  0.5364  0.8492  0.2183
 3136TIP3    H230900   0.672   4.835  14.099 -1.3289 -0.9537  2.0561
 3137TIP3   OH230901   1.577   5.509  11.339  0.0204  0.3019 -0.1632
 3137TIP3    H130902   1.548   5.440  11.398 -0.2903  0.8820  0.3753
 3137TIP3    H230903   1.585   5.587  11.394 -0.2350  0.8449 -0.8677
 3138TIP3   OH230904   0.767   5.751   3.446  0.1441  0.1732 -0.5817
 3138TIP3    H130905   0.740   5.788   3.362 -0.3983 -2.7688 -1.8190
 3138TIP3    H230906   0.706   5.790   3.509 -1.2316  0.3934 -1.9775
 3139TIP3   OH230907   3.469   4.296   4.578  0.1829  0.1329 -0.4805
 3139TIP3    H130908   3.558   4.283   4.611 -0.6086 -0.4735  1.5096
 3139TIP3    H230909   3.482   4.330   4.489  2.4024  1.2504  0.1947
 3140TIP3   OH230910   3.364   0.194  12.622 -0.0176 -0.0931  0.1547
 3140TIP3    H130911   3.310   0.191  12.542  0.8550 -0.1092 -0.4477
 3140TIP3    H230912   3.384   0.287  12.634  2.9043 -0.3355 -1.7927
 3141TIP3   OH230913   6.493   2.152   3.938 -0.2415 -0.4912 -0.3659
 3141TIP3    H130914   6.464   2.082   3.880 -1.4197  0.5245 -1.0507
 3141TIP3    H230915   6.587   2.159   3.922 -0.4925 -0.4066 -1.9921
 3142TIP3   OH230916   0.442   3.541   1.793 -0.3812  0.2071 -0.2059
 3142TIP3    H130917   0.470   3.576   1.708 -0.6373  0.8921 -0.0070
 3142TIP3    H230918   0.354   3.508   1.776 -0.2623 -0.0623 -0.3127
 3143TIP3   OH230919   5.255   1.992   2.695 -0.0406  0.7281 -0.4981
 3143TIP3    H130920   5.285   2.072   2.739  1.2880  0.0014 -0.0224
 3143TIP3    H230921   5.162   1.987   2.716  0.3347  0.9593  1.4172
 3144TIP3   OH230922   4.684   2.145  12.048  0.1909 -0.8984  0.3809
 3144TIP3    H130923   4.643   2.061  12.069  1.0676 -1.1510  1.2039
 3144TIP3    H230924   4.748   2.158  12.119  1.3233 -0.4110 -0.6846
 3145TIP3   OH230925   0.424   2.340   0.581  0.4630 -0.1927 -0.2135
 3145TIP3    H130926   0.511   2.380   0.591  0.4541  0.2517 -1.6260
 3145TIP3    H230927   0.399   2.361   0.491 -0.8237 -0.9012 -0.0398
 3146TIP3   OH230928   3.547   4.874  17.222  0.4028 -0.3816  0.2899
 3146TIP3    H130929   3.588   4.946  17.174 -1.7243  0.4445 -0.3982
 3146TIP3    H230930   3.477   4.844  17.164 -0.9369 -0.7190  2.0239
 3147TIP3   OH230931   5.148   1.224   3.265 -0.3077  0.3770 -0.2912
 3147TIP3    H130932   5.211   1.290   3.236 -0.9194  1.2316  0.2808
 3147TIP3    H230933   5.066   1.250   3.223 -0.4511 -0.2808 -0.4175
 3148TIP3   OH230934   3.217   1.013  17.212 -0.8466 -0.1254  0.2090
 3148TIP3    H130935   3.312   1.014  17.227 -1.2200 -0.2159  3.2593
 3148TIP3    H230936   3.197   0.921  17.192 -0.2987 -0.0689 -0.6574
 3149TIP3   OH230937   3.178   5.203   4.807  0.2266  0.0280  0.2156
 3149TIP3    H130938   3.119   5.274   4.783 -0.4127 -0.5194  0.1509
 3149TIP3    H230939   3.135   5.124   4.775  0.1635 -0.5526  1.6508
 3150TIP3   OH230940   0.339   6.369  11.644 -0.3450 -0.2551 -0.0542
 3150TIP3    H130941   0.367   6.365  11.552  0.8496 -0.6064  0.3048
 3150TIP3    H230942   0.391   6.301  11.688 -1.2891 -0.4530  0.7925
 3151TIP3   OH230943   0.439   1.842   2.672 -0.0231  0.2739 -0.5971
 3151TIP3    H130944   0.374   1.909   2.693  0.6260  0.9266 -0.6621
 3151TIP3    H230945   0.388   1.772   2.630 -1.0304 -0.1913  1.3149
 3152TIP3   OH230946   6.535   6.412  12.095 -0.4743  0.2160 -0.1741
 3152TIP3    H130947   6.579   6.488  12.134  1.3539 -0.5378 -0.6721
 3152TIP3    H230948   6.560   6.338  12.151 -2.6385 -0.0081  0.5991
 3153TIP3   OH230949   1.311   2.530  11.587  0.1221  0.1695 -0.0470
 3153TIP3    H130950   1.350   2.499  11.505  1.5217  1.1337  0.2082
 3153TIP3    H230951   1.217   2.526  11.572  0.3457  0.1732 -1.6469
 3154TIP3   OH230952   6.807   4.706   0.068  0.3226  0.8756 -0.4662
 3154TIP3    H130953   6.807   4.617   0.103 -0.0334  0.6255 -1.0938
 3154TIP3    H230954   6.818   4.762   0.145 -0.9910  0.3604  0.1132
 3155TIP3   OH230955   5.840   3.886  16.708 -0.4069 -0.2305 -0.1549
 3155TIP3    H130956   5.745   3.894  16.697 -0.1263  2.1185 -1.5472
 3155TIP3    H230957   5.856   3.906  16.801 -1.3207 -1.7405  0.3577
 3156TIP3   OH230958   4.300   6.081   3.044  0.3625  0.2186 -0.1680
 3156TIP3    H130959   4.219   6.072   3.094  0.2663  0.9863 -0.1772
 3156TIP3    H230960   4.356   6.010   3.076  0.5595  1.0930  1.5457
 3157TIP3   OH230961   0.900   2.819   2.363 -0.1242 -0.3258 -0.3026
 3157TIP3    H130962   0.821   2.842   2.413 -1.3489 -2.2740 -1.1907
 3157TIP3    H230963   0.961   2.890   2.380 -1.5564  0.5433  1.5732
 3158TIP3   OH230964   1.368   4.424  15.022 -0.0584 -0.0727 -0.0091
 3158TIP3    H130965   1.332   4.372  15.094  0.8890 -0.7843 -0.0264
 3158TIP3    H230966   1.426   4.363  14.976  2.2058  1.3196  0.7893
 3159TIP3   OH230967   6.244   5.406   1.542  0.1891  0.0249  0.0182
 3159TIP3    H130968   6.293   5.325   1.555  0.6991  0.2690 -0.3256
 3159TIP3    H230969   6.152   5.379   1.537  0.5374 -0.9000 -2.8657
 3160TIP3   OH230970   1.371   6.239  16.520 -0.0568 -0.1172  0.0426
 3160TIP3    H130971   1.362   6.164  16.461 -1.0737  0.5995 -0.7271
 3160TIP3    H230972   1.443   6.290  16.482 -1.4642  0.9523 -1.2939
 3161TIP3   OH230973   4.484   3.421  14.404  0.6760 -0.3386 -0.2466
 3161TIP3    H130974   4.459   3.358  14.337 -0.1084  1.0310 -1.2973
 3161TIP3    H230975   4.428   3.401  14.479  0.1727 -0.6733 -0.7052
 3162TIP3   OH230976   5.751   0.177   6.124 -0.1105 -0.1885  0.2268
 3162TIP3    H130977   5.725   0.152   6.213  0.6813  0.8717  0.7820
 3162TIP3    H230978   5.810   0.106   6.096 -0.5188 -0.6276  0.4597
 3163TIP3   OH230979   2.606   4.884  15.793 -0.2656 -0.1021 -0.2344
 3163TIP3    H130980   2.660   4.962  15.782 -0.6446  0.1848 -0.0939
 3163TIP3    H230981   2.527   4.902  15.742 -0.1498 -0.5956 -0.5904
 3164TIP3   OH230982   0.773   1.232  12.767  0.2988 -0.9948 -0.2113
 3164TIP3    H130983   0.678   1.225  12.756  0.1897  0.4472 -0.4107
 3164TIP3    H230984   0.796   1.312  12.719  1.4400 -0.6784  0.8390
 3165TIP3   OH230985   4.940   4.644  14.348 -1.0152  0.3143  0.0937
 3165TIP3    H130986   5.001   4.703  14.306 -0.2694  0.9852  2.0167
 3165TIP3    H230987   4.941   4.565  14.294 -1.2418  1.6473 -1.9256
 3166TIP3   OH230988   4.823   2.360   2.582  0.8351 -0.3114 -0.1797
 3166TIP3    H130989   4.829   2.443   2.630 -0.9830  0.4855 -1.2196
 3166TIP3    H230990   4.887   2.369   2.511 -0.7199  1.0979 -1.4718
 3167TIP3   OH230991   0.889   1.385   1.098  0.1031 -0.1994 -0.2282
 3167TIP3    H130992   0.962   1.331   1.068 -1.8880 -2.9940 -0.4841
 3167TIP3    H230993   0.884   1.456   1.034  2.3449 -0.1370 -0.3935
 3168TIP3   OH230994   3.678   4.472  12.123 -0.1527 -0.2411 -0.8004
 3168TIP3    H130995   3.623   4.456  12.200  1.9501  1.1030  1.1113
 3168TIP3    H230996   3.616   4.489  12.052 -2.2170  1.1638  1.2078
 3169TIP3   OH230997   1.974   2.523   2.686 -0.1460 -0.0793  0.5489
 3169TIP3    H130998   1.933   2.442   2.656 -1.6541  0.1193  1.9224
 3169TIP3    H230999   1.946   2.531   2.778  2.3815  0.4921  1.3362
 3170TIP3   OH231000   5.368   2.392  14.525 -0.4663 -0.8056 -0.0092
 3170TIP3    H131001   5.399   2.423  14.611  0.1292  1.2177 -0.8746
 3170TIP3    H231002   5.283   2.435  14.513 -0.9429 -1.7570 -0.0790
 3171TIP3   OH231003   1.102   6.385   4.064  0.3134 -0.2150  0.1568
 3171TIP3    H131004   1.146   6.469   4.052 -0.9309  0.7503  1.8996
 3171TIP3    H231005   1.032   6.385   3.999  0.4258  0.0192  0.0364
 3172TIP3   OH231006   1.317   6.658  12.784  0.1617 -0.0510 -0.3438
 3172TIP3    H131007   1.301   6.727  12.721  1.6964 -1.1646 -2.0384
 3172TIP3    H231008   1.235   6.608  12.786 -0.1231  0.3850 -0.9184
 3173TIP3   OH231009   1.546   1.985  12.513  0.1802  0.3245  0.1055
 3173TIP3    H131010   1.573   2.064  12.560  0.4243  0.4147 -0.1771
 3173TIP3    H231011   1.463   2.008  12.472 -1.6237 -0.7115  2.9240
 3174TIP3   OH231012   1.833   5.364   4.552 -0.1452 -0.6002  0.0777
 3174TIP3    H131013   1.894   5.312   4.605  0.7345 -0.7913 -1.0805
 3174TIP3    H231014   1.770   5.300   4.518 -1.0249 -0.4062  1.2570
 3175TIP3   OH231015   3.096   3.231  14.612  0.5521 -0.1933 -0.1030
 3175TIP3    H131016   3.152   3.300  14.648  1.0859 -1.1720  0.9900
 3175TIP3    H231017   3.151   3.186  14.548  0.7623 -0.6671  0.4095
 3176TIP3   OH231018   2.727   1.476   2.083 -0.2341 -0.0695 -0.5745
 3176TIP3    H131019   2.790   1.521   2.139 -0.7197  0.0255 -0.1016
 3176TIP3    H231020   2.774   1.464   2.000  0.0926  0.8162 -0.5263
 3177TIP3   OH231021   0.955   6.198   4.935 -0.3706 -0.2247 -0.7730
 3177TIP3    H131022   0.934   6.189   4.842 -0.7577  0.6253 -0.7772
 3177TIP3    H231023   0.949   6.292   4.952 -0.4881 -0.3900  0.1517
 3178TIP3   OH231024   4.279   3.041   4.651  0.3268 -0.0574 -0.2320
 3178TIP3    H131025   4.367   3.018   4.679  1.0224 -0.5383 -2.5761
 3178TIP3    H231026   4.275   3.136   4.657  1.1615 -0.0025 -0.5061
 3179TIP3   OH231027   4.131   1.406   2.562 -0.5208 -0.2016 -0.4191
 3179TIP3    H131028   4.204   1.401   2.501 -0.9632 -0.4241 -0.9437
 3179TIP3    H231029   4.109   1.315   2.581  0.5465 -0.1647  1.2403
 3180TIP3   OH231030   2.346   4.702  13.372  0.1379  0.0591  0.3988
 3180TIP3    H131031   2.391   4.720  13.289 -3.7305  1.8022 -1.5563
 3180TIP3    H231032   2.330   4.608  13.371 -1.1575  0.2657 -1.6315
 3181TIP3   OH231033   1.414   5.459  15.090 -0.3956  0.3378 -0.5296
 3181TIP3    H131034   1.492   5.500  15.052 -0.1642  0.3063 -0.0946
 3181TIP3    H231035   1.432   5.457  15.184 -1.0446  0.5881 -0.3956
 3182TIP3   OH231036   3.410   2.202   4.472  0.3987 -0.0261  0.2784
 3182TIP3    H131037   3.411   2.118   4.518  1.7779  0.3485  0.9922
 3182TIP3    H231038   3.458   2.262   4.530  0.2664  1.0198 -0.6524
 3183TIP3   OH231039   2.360   4.476   2.762  0.2545 -0.4884 -0.3128
 3183TIP3    H131040   2.318   4.491   2.847 -1.1628 -0.9336 -0.9097
 3183TIP3    H231041   2.377   4.382   2.760 -1.5127 -0.8460 -1.2639
 3184TIP3   OH231042   1.855   2.939  15.797 -0.0288  0.4330 -0.7698
 3184TIP3    H131043   1.768   2.903  15.815  0.6004 -1.6378 -1.5553
 3184TIP3    H231044   1.915   2.884  15.848  0.8891  1.2792 -0.9133
 3185TIP3   OH231045   6.658   1.933   4.873 -0.6021  0.3467  0.5878
 3185TIP3    H131046   6.645   2.020   4.836  0.2890  0.0548 -0.4787
 3185TIP3    H231047   6.657   1.947   4.967 -0.5041  1.5074  0.4355
 3186TIP3   OH231048   1.730   4.527   4.913  0.1290 -0.0033 -0.1147
 3186TIP3    H131049   1.767   4.568   4.992  0.6691 -0.2319 -0.2411
 3186TIP3    H231050   1.753   4.435   4.920 -0.0286 -0.0695 -0.4232
 3187TIP3   OH231051   1.167   3.678  14.354 -0.0959 -0.3249  0.5466
 3187TIP3    H131052   1.073   3.669  14.368 -0.5462  1.3790 -0.9545
 3187TIP3    H231053   1.178   3.671  14.259  1.1971  0.2518  0.6300
 3188TIP3   OH231054   4.428   0.700   3.490 -0.5921  0.2408 -0.4037
 3188TIP3    H131055   4.517   0.720   3.521  0.1084  0.1083 -2.2006
 3188TIP3    H231056   4.414   0.609   3.514 -0.3436  0.3363  0.1123
 3189TIP3   OH231057   5.424   6.111   0.633  0.1578 -0.5638  0.1831
 3189TIP3    H131058   5.360   6.176   0.662  0.4729 -0.7310  1.2852
 3189TIP3    H231059   5.509   6.147   0.657  0.4363 -0.6983 -0.5756
 3190TIP3   OH231060   1.896   5.157   3.913 -0.3455  0.4555  0.7292
 3190TIP3    H131061   1.987   5.187   3.914  0.7216 -2.5318  1.7689
 3190TIP3    H231062   1.844   5.238   3.916  2.2581  2.2003  3.3117
 3191TIP3   OH231063   0.148   6.243  11.843  0.0445  0.0880  0.3765
 3191TIP3    H131064   0.189   6.305  11.783 -1.0108  0.6181  0.1719
 3191TIP3    H231065   0.090   6.297  11.897 -0.2470 -0.6018  0.7676
 3192TIP3   OH231066   0.332   5.986  11.328  0.5277 -0.3018 -0.0401
 3192TIP3    H131067   0.251   5.969  11.278  0.6225 -0.8104 -0.0230
 3192TIP3    H231068   0.301   6.010  11.415  0.4019 -0.6619  0.0145
 3193TIP3   OH231069   1.832   4.519   1.410 -0.0153  0.3389  0.4278
 3193TIP3    H131070   1.757   4.461   1.426 -0.1072 -0.3076 -1.9360
 3193TIP3    H231071   1.814   4.558   1.324  2.6763 -0.4294 -0.5908
 3194TIP3   OH231072   6.527   1.080   6.231  0.7837  0.2158  0.1756
 3194TIP3    H131073   6.549   1.140   6.301 -0.3290 -0.4820  1.1566
 3194TIP3    H231074   6.588   1.007   6.241  0.5191  0.0406  0.5329
 3195TIP3   OH231075   6.048   3.730  11.171  0.3592  0.2608 -0.7978
 3195TIP3    H131076   6.119   3.756  11.112 -0.3954 -0.5505 -2.1069
 3195TIP3    H231077   5.969   3.767  11.132  0.0067  0.9523  0.5179
 3196TIP3   OH231078   2.034   2.558  15.173  0.4510 -0.1495  0.3556
 3196TIP3    H131079   2.054   2.524  15.087 -0.0761  1.6327 -0.5210
 3196TIP3    H231080   2.118   2.562  15.218  0.7885 -0.6830 -0.2196
 3197TIP3   OH231081   1.293   3.453  17.029 -0.0152  0.7356 -0.2615
 3197TIP3    H131082   1.263   3.540  17.001 -1.0910  0.2464 -0.6960
 3197TIP3    H231083   1.341   3.469  17.110  0.3206  1.8063 -0.6632
 3198TIP3   OH231084   4.882   6.116  15.786 -0.4216  1.1461 -0.2246
 3198TIP3    H131085   4.802   6.097  15.738 -0.8999  1.4441  0.4472
 3198TIP3    H231086   4.938   6.161  15.722 -0.6873  0.7189 -0.7640
 3199TIP3   OH231087   1.745   6.616   1.379 -0.1579  0.4085 -0.5912
 3199TIP3    H131088   1.711   6.545   1.434 -1.3532  2.0679  0.9144
 3199TIP3    H231089   1.840   6.601   1.378  0.0878  0.8291  2.8720
 3200TIP3   OH231090   2.673   0.724   1.594  0.0302 -0.2756 -0.4667
 3200TIP3    H131091   2.759   0.728   1.552  0.0245 -1.5205 -0.6361
 3200TIP3    H231092   2.664   0.633   1.623 -0.1726  0.4059  1.8301
 3201TIP3   OH231093   3.613   1.649  11.294  0.0939 -0.4550  0.3327
 3201TIP3    H131094   3.617   1.744  11.293  0.0707 -0.4298  1.4727
 3201TIP3    H231095   3.698   1.622  11.330  1.1267 -0.9855 -2.2274
 3202TIP3   OH231096   3.585   6.622   0.273 -0.1770  0.0526  0.1692
 3202TIP3    H131097   3.637   6.615   0.192  1.1644  1.3275  0.8685
 3202TIP3    H231098   3.574   6.532   0.302 -0.7035 -0.4405 -1.4218
 3203TIP3   OH231099   0.473   2.317   1.568 -0.1108  0.1992  0.2260
 3203TIP3    H131100   0.551   2.291   1.519 -0.9218 -1.4962 -0.2530
 3203TIP3    H231101   0.492   2.294   1.658  0.1249  0.2511  0.1899
 3204TIP3   OH231102   5.861   3.717  14.161  0.5476 -0.1104  0.0773
 3204TIP3    H131103   5.924   3.770  14.210  0.0441 -0.7295  1.4327
 3204TIP3    H231104   5.776   3.752  14.185  0.2457 -1.0744  0.4359
 3205TIP3   OH231105   5.730   0.709   3.814 -0.0705  0.3474  0.0112
 3205TIP3    H131106   5.674   0.634   3.793 -0.6795  0.5490  0.8775
 3205TIP3    H231107   5.680   0.759   3.877  1.1866  0.4249  0.9806
 3206TIP3   OH231108   4.869   3.700  15.736 -0.2234 -0.1389 -0.4821
 3206TIP3    H131109   4.905   3.780  15.698  0.9550 -0.3606  0.1248
 3206TIP3    H231110   4.784   3.689  15.692 -0.0324  0.9731 -1.1806
 3207TIP3   OH231111   0.868   2.505   1.143  0.0641 -0.4788  0.0549
 3207TIP3    H131112   0.947   2.514   1.195  0.1994 -0.4848 -0.1463
 3207TIP3    H231113   0.899   2.505   1.052 -0.2613  0.7666 -0.0763
 3208TIP3   OH231114   3.346   1.517  17.308 -0.2347 -0.2691  0.0872
 3208TIP3    H131115   3.377   1.492  17.221  1.0584 -0.7886  0.6723
 3208TIP3    H231116   3.255   1.542  17.294 -0.2956 -1.1290 -1.2754
 3209TIP3   OH231117   6.664   4.390   5.281 -0.4034 -0.2734  0.0350
 3209TIP3    H131118   6.575   4.404   5.251 -0.8327 -0.4090  1.1880
 3209TIP3    H231119   6.719   4.433   5.216 -1.3251  0.0860 -0.5122
 3210TIP3   OH231120   3.970   1.535  14.840 -0.7733 -0.2668 -0.5587
 3210TIP3    H131121   3.962   1.546  14.935 -0.3172 -3.0386 -0.1072
 3210TIP3    H231122   4.024   1.609  14.812  0.8175 -0.4671  1.7015
 3211TIP3   OH231123   6.806   3.053  16.324  0.2730 -0.2300  0.0992
 3211TIP3    H131124   6.788   3.097  16.406 -0.9940  0.5276 -0.5595
 3211TIP3    H231125   6.800   3.121  16.257  3.8591 -0.2526 -0.4504
 3212TIP3   OH231126   0.846   0.424  11.459  0.7555 -0.6474  0.3790
 3212TIP3    H131127   0.876   0.452  11.373 -0.4715 -1.6236 -0.4109
 3212TIP3    H231128   0.792   0.496  11.490  1.0261 -0.3834  0.2392
 3213TIP3   OH231129   6.240   0.546   4.384 -0.1016 -0.1338  0.1374
 3213TIP3    H131130   6.166   0.565   4.326 -0.4834  0.9136  0.9202
 3213TIP3    H231131   6.236   0.616   4.450  2.0934  0.4487 -0.2850
 3214TIP3   OH231132   0.893   4.420  12.571 -0.4494  0.2395  0.0484
 3214TIP3    H131133   0.828   4.351  12.580 -0.1948 -0.0010  0.0458
 3214TIP3    H231134   0.976   4.378  12.593 -0.0271  0.0428 -1.7318
 3215TIP3   OH231135   0.029   6.529   2.421  0.3750  0.1718 -0.0648
 3215TIP3    H131136   0.105   6.540   2.363  0.8147  0.3173  0.5202
 3215TIP3    H231137  -0.031   6.473   2.373  0.6454  0.4553 -0.7398
 3216TIP3   OH231138   1.445   2.482   0.320  0.5014  0.1087 -0.5020
 3216TIP3    H131139   1.464   2.469   0.413  1.7033  2.2703 -0.3828
 3216TIP3    H231140   1.350   2.496   0.316  0.0078 -2.5468  0.0043
 3217TIP3   OH231141   2.378   6.511   2.083 -0.1767  0.4090  0.6696
 3217TIP3    H131142   2.327   6.521   2.003  0.6285  0.5559  0.1682
 3217TIP3    H231143   2.328   6.448   2.135 -0.2970 -0.3017 -0.2822
 3218TIP3   OH231144   3.546   1.646   6.325 -0.1339  0.2964 -0.1489
 3218TIP3    H131145   3.461   1.614   6.357  0.1820 -0.8118 -0.3766
 3218TIP3    H231146   3.594   1.667   6.405 -0.4880  0.5663 -0.0036
 3219TIP3   OH231147   4.772   6.587   1.031  0.1462 -0.3498 -0.5477
 3219TIP3    H131148   4.705   6.520   1.017 -0.3914 -0.0212  0.3625
 3219TIP3    H231149   4.725   6.658   1.075  0.7482  0.5525 -1.3374
 3220TIP3   OH231150   5.823   5.991   3.844 -0.1866  0.4985  0.0832
 3220TIP3    H131151   5.730   5.966   3.850 -0.4857  1.6373  0.3855
 3220TIP3    H231152   5.834   6.018   3.753 -0.1397  0.3098  0.0331
 3221TIP3   OH231153   1.994   6.770  12.737  0.4307 -0.2403 -0.1244
 3221TIP3    H131154   2.009   6.685  12.779  0.2260  0.2192  0.8991
 3221TIP3    H231155   1.904   6.766  12.706  0.1702 -0.1198  0.6017
 3222TIP3   OH231156   3.977   4.279  14.207  0.5705  0.6080 -0.2281
 3222TIP3    H131157   3.928   4.210  14.252  2.1436 -1.3873 -1.4460
 3222TIP3    H231158   3.910   4.342  14.181 -1.1018 -1.0936 -0.2227
 3223TIP3   OH231159   1.822   3.238   3.543 -0.3374 -0.3550 -0.0078
 3223TIP3    H131160   1.829   3.326   3.504  0.6776 -0.2342  0.4053
 3223TIP3    H231161   1.757   3.193   3.489 -1.1426  0.7598 -0.0140
 3224TIP3   OH231162   0.268   4.699   5.549  0.0659  0.1485  0.4278
 3224TIP3    H131163   0.206   4.669   5.615  0.6466  0.3117  1.0572
 3224TIP3    H231164   0.248   4.792   5.539  0.5693  0.3226  1.0312
 3225TIP3   OH231165   3.615   5.685   5.605 -0.4016 -0.2860 -0.2229
 3225TIP3    H131166   3.667   5.745   5.551 -1.2352  0.9208  0.2524
 3225TIP3    H231167   3.538   5.665   5.551 -1.9243  2.0148  0.9201
 3226TIP3   OH231168   2.385   5.461   3.009 -0.2201 -0.1962  0.0844
 3226TIP3    H131169   2.402   5.546   2.969 -1.1001  0.4548  1.0472
 3226TIP3    H231170   2.331   5.414   2.945 -0.0060  0.0894 -0.3080
 3227TIP3   OH231171   3.694   6.061  15.503  0.4217  0.1057 -0.5903
 3227TIP3    H131172   3.753   6.111  15.447 -0.5599  0.3051 -1.4689
 3227TIP3    H231173   3.696   6.107  15.587 -0.0986  1.3600 -1.2482
 3228TIP3   OH231174   4.024   3.402  13.528 -0.3141 -0.0029  0.5578
 3228TIP3    H131175   3.937   3.417  13.491  0.6374 -1.3062 -2.5162
 3228TIP3    H231176   4.060   3.490  13.541 -1.4342  0.5358  0.1539
 3229TIP3   OH231177   2.080   1.144   4.420 -0.3990  0.1868 -0.2908
 3229TIP3    H131178   2.133   1.210   4.375  0.8312 -0.7220 -0.2242
 3229TIP3    H231179   2.016   1.194   4.470 -0.4221  1.2819 -1.3609
 3230TIP3   OH231180   3.529   4.278   2.126 -0.3639  0.9052 -0.4686
 3230TIP3    H131181   3.553   4.366   2.098 -1.2265  1.3586  0.1927
 3230TIP3    H231182   3.450   4.289   2.179  0.1421 -0.1339  0.5584
 3231TIP3   OH231183   4.279   4.842   3.434 -0.1886  0.2511  0.8943
 3231TIP3    H131184   4.341   4.877   3.370 -0.4893 -0.2902  0.2899
 3231TIP3    H231185   4.235   4.920   3.470  0.4405  0.5993  0.9238
 3232TIP3   OH231186   5.568   3.696  13.176 -0.1311  0.3896  0.2205
 3232TIP3    H131187   5.629   3.712  13.103  0.5472 -1.2919  0.3704
 3232TIP3    H231188   5.621   3.650  13.241 -1.2858 -0.0643  0.8596
 3233TIP3   OH231189   0.910   4.358  14.689  0.4134 -0.0619  0.5826
 3233TIP3    H131190   0.846   4.292  14.662 -0.7906  1.2173  0.1841
 3233TIP3    H231191   0.965   4.313  14.753 -1.7666 -0.8687  2.0260
 3234TIP3   OH231192   1.319   1.023  15.062 -0.3208  0.5301 -0.0811
 3234TIP3    H131193   1.308   1.084  15.135  0.0806  1.7513 -0.9980
 3234TIP3    H231194   1.414   1.014  15.052 -0.3740 -0.3440  0.1071
 3235TIP3   OH231195   0.356   1.872   4.436  0.0182 -0.0350  0.8013
 3235TIP3    H131196   0.320   1.836   4.517  0.0056 -3.4932 -0.5538
 3235TIP3    H231197   0.281   1.882   4.378  0.4792 -1.9954 -0.2177
 3236TIP3   OH231198   2.210   0.677  12.318 -0.0317  0.3468  0.0075
 3236TIP3    H131199   2.300   0.701  12.338  0.3587 -0.1327 -1.1280
 3236TIP3    H231200   2.159   0.757  12.335  0.9181  1.3049 -1.4808
 3237TIP3   OH231201   0.488   4.121  13.815 -0.4285 -0.0079  0.5384
 3237TIP3    H131202   0.453   4.191  13.760 -1.4544  0.7000  2.0569
 3237TIP3    H231203   0.478   4.042  13.762 -0.9307  0.7233 -0.4837
 3238TIP3   OH231204   2.652   2.075  12.996  0.1153  0.0394  0.1687
 3238TIP3    H131205   2.716   2.082  13.066 -0.6828  1.0213  0.8267
 3238TIP3    H231206   2.641   2.164  12.963  1.0274 -0.5079 -1.7448
 3239TIP3   OH231207   2.061   3.333   0.997 -0.0941  0.1420  0.3740
 3239TIP3    H131208   2.034   3.259   1.051  1.9197 -0.1186  1.1124
 3239TIP3    H231209   2.151   3.312   0.970 -0.7768  0.5587 -2.5941
 3240TIP3   OH231210   2.009   6.556   1.385  0.6010  0.1262  0.2383
 3240TIP3    H131211   2.097   6.574   1.418  1.1316  2.9591 -2.2660
 3240TIP3    H231212   2.022   6.486   1.321  0.5617 -1.1466  1.5721
 3241TIP3   OH231213   2.198   3.311   4.912  0.1582 -0.4973  0.3324
 3241TIP3    H131214   2.186   3.384   4.852  1.5543 -0.3467  0.2026
 3241TIP3    H231215   2.247   3.246   4.862  2.1838  0.0164  1.5516
 3242TIP3   OH231216   5.223   3.315   1.877 -0.3529 -0.5835  0.9949
 3242TIP3    H131217   5.313   3.286   1.890 -0.5807 -1.5527  0.4879
 3242TIP3    H231218   5.225   3.409   1.894  1.9539  0.6601 -4.2383
 3243TIP3   OH231219   5.859   1.629  13.878  0.4188 -0.0391  0.1739
 3243TIP3    H131220   5.927   1.602  13.939  1.0746  0.6020 -0.2427
 3243TIP3    H231221   5.907   1.656  13.800 -0.4262 -1.4393 -0.8793
 3244TIP3   OH231222   2.468   0.941   0.358  0.1380 -0.1077  0.6476
 3244TIP3    H131223   2.532   0.902   0.418  1.9112  1.7558  0.0975
 3244TIP3    H231224   2.500   0.917   0.271 -0.8315 -0.4752  0.3907
 3245TIP3   OH231225   6.767   6.734  10.997 -0.2371 -0.4431  0.0773
 3245TIP3    H131226   6.850   6.749  10.952 -1.0148 -1.8917 -1.9837
 3245TIP3    H231227   6.700   6.766  10.936 -1.2867 -0.5439  1.1179
 3246TIP3   OH231228   4.437   4.199   1.266  0.2549 -0.3156  0.0341
 3246TIP3    H131229   4.373   4.188   1.336  2.1203 -0.4677  1.7978
 3246TIP3    H231230   4.418   4.285   1.229 -1.0002 -0.3909  0.4587
 3247TIP3   OH231231   2.165   1.062  16.037  0.4679  0.7567  0.6907
 3247TIP3    H131232   2.233   1.001  16.064  0.3028  0.0959 -0.3344
 3247TIP3    H231233   2.209   1.123  15.977 -0.2022 -0.8884 -1.6061
 3248TIP3   OH231234   2.876   0.387   3.426  0.2664 -0.3474  0.2526
 3248TIP3    H131235   2.787   0.409   3.400 -0.2674  0.3961  2.4872
 3248TIP3    H231236   2.869   0.364   3.518  2.4447  0.1959  0.6091
 3249TIP3   OH231237   0.681   2.382  15.606 -0.2811  0.3073 -0.6809
 3249TIP3    H131238   0.659   2.471  15.634 -1.2089  0.4218 -1.7364
 3249TIP3    H231239   0.654   2.377  15.515 -0.9714 -1.3014 -0.4234
 3250TIP3   OH231240   5.936   0.605  10.824  0.1593  0.3212 -0.3118
 3250TIP3    H131241   6.028   0.628  10.822  0.0534  0.7393 -0.6455
 3250TIP3    H231242   5.894   0.676  10.872  0.1396 -0.3639  0.7055
 3251TIP3   OH231243   1.436   5.394   1.201 -0.1504  0.7625  0.4741
 3251TIP3    H131244   1.468   5.304   1.203 -0.7203  0.4283 -1.9805
 3251TIP3    H231245   1.351   5.388   1.157 -0.7090  2.3914  1.2374
 3252TIP3   OH231246   6.704   3.656   2.220 -0.1091 -0.1856 -0.7461
 3252TIP3    H131247   6.623   3.629   2.264  1.1771 -1.6538  0.8906
 3252TIP3    H231248   6.698   3.751   2.214 -0.9789 -0.0251  1.4952
 3253TIP3   OH231249   1.870   6.142   3.770  0.7796  0.5982  0.0983
 3253TIP3    H131250   1.880   6.080   3.698  2.8517  1.5569 -0.5307
 3253TIP3    H231251   1.879   6.089   3.849  0.6400 -0.1585 -0.3883
 3254TIP3   OH231252   1.731   1.473  14.708 -0.0599 -0.2998  0.1468
 3254TIP3    H131253   1.811   1.501  14.664  1.0327 -1.1960  1.5047
 3254TIP3    H231254   1.682   1.554  14.722  1.3454  0.4892  0.6924
 3255TIP3   OH231255   0.173   3.048   3.692 -0.1851 -0.0981  0.1653
 3255TIP3    H131256   0.163   3.034   3.598  1.4909  0.7232 -0.1900
 3255TIP3    H231257   0.242   3.114   3.698  0.4648 -0.8898  2.0045
 3256TIP3   OH231258   1.238   3.662  13.567 -0.1994 -0.5876 -0.6583
 3256TIP3    H131259   1.273   3.616  13.643  1.2317  1.5752  0.0764
 3256TIP3    H231260   1.143   3.657  13.578 -0.0164  0.4901  1.8160
 3257TIP3   OH231261   4.872   3.859   2.048 -0.4277  0.5687  0.3136
 3257TIP3    H131262   4.921   3.935   2.018  0.7292  0.1641  1.0772
 3257TIP3    H231263   4.892   3.791   1.984  0.6218  0.2036  0.9991
 3258TIP3   OH231264   1.135   6.258  17.082 -0.2110  0.2874 -0.1237
 3258TIP3    H131265   1.231   6.252  17.086  0.0656  2.8659 -1.1086
 3258TIP3    H231266   1.108   6.261  17.174  0.7732  0.7116  0.1728
 3259TIP3   OH231267   2.194   3.360  12.415 -0.0823 -0.9374 -0.0540
 3259TIP3    H131268   2.181   3.409  12.334 -2.2529 -1.6223 -0.1841
 3259TIP3    H231269   2.289   3.350  12.422  0.3100  1.2393 -1.2086
 3260TIP3   OH231270   1.746   3.282   0.514  0.5537  0.0483  0.4345
 3260TIP3    H131271   1.675   3.220   0.532  0.6467 -0.5884 -1.1954
 3260TIP3    H231272   1.824   3.240   0.549  0.4401 -0.2322  0.3545
 3261TIP3   OH231273   0.418   3.199  14.224 -0.4454 -0.6701  0.5257
 3261TIP3    H131274   0.486   3.186  14.290 -0.7441 -0.3197  0.9100
 3261TIP3    H231275   0.465   3.228  14.146 -0.1291 -0.6741  0.7144
 3262TIP3   OH231276   1.653   1.840   1.616  0.0202 -0.1181  0.7189
 3262TIP3    H131277   1.724   1.889   1.574  0.4683  0.3445  1.9559
 3262TIP3    H231278   1.671   1.749   1.595 -0.7232  0.1974 -1.4804
 3263TIP3   OH231279   4.604   0.188   1.703  0.1388  0.1972 -0.5476
 3263TIP3    H131280   4.684   0.224   1.664  2.0376 -1.5367  1.4183
 3263TIP3    H231281   4.569   0.129   1.637  1.0624  0.2276 -1.0835
 3264TIP3   OH231282   2.212   1.558   4.054  0.2656  0.1763 -0.0249
 3264TIP3    H131283   2.182   1.630   3.999  0.7861  0.8988  0.6206
 3264TIP3    H231284   2.137   1.538   4.110  0.7264  1.5435  1.1378
 3265TIP3   OH231285   4.120   1.868  16.905  0.1612  0.0012 -0.4325
 3265TIP3    H131286   4.049   1.924  16.936 -0.3332 -0.6744 -0.3213
 3265TIP3    H231287   4.199   1.919  16.921 -0.1363 -0.0135  1.2343
 3266TIP3   OH231288   6.301   0.622   0.377 -0.1434  0.1167  0.2620
 3266TIP3    H131289   6.341   0.552   0.429  0.8990  0.3388 -0.2200
 3266TIP3    H231290   6.223   0.581   0.339 -0.6204 -0.2127  1.5147
 3267TIP3   OH231291   2.139   2.849  13.504  0.4657  0.0759 -0.4016
 3267TIP3    H131292   2.148   2.827  13.412 -0.4414 -1.0484 -0.2380
 3267TIP3    H231293   2.075   2.787  13.538 -0.1469  1.2670  0.7129
 3268TIP3   OH231294   4.405   2.453  13.567  0.4849  0.4029  0.2163
 3268TIP3    H131295   4.382   2.529  13.621  1.7447 -0.6894  2.4223
 3268TIP3    H231296   4.500   2.458  13.557  0.4062 -0.0733 -0.9611
 3269TIP3   OH231297   2.580   1.563   0.522 -0.3292  0.1868  0.2228
 3269TIP3    H131298   2.632   1.509   0.463 -1.6200 -3.1554  1.9014
 3269TIP3    H231299   2.491   1.561   0.485 -0.6226  0.1663  0.9066
 3270TIP3   OH231300   0.310   3.028  13.228 -0.6035 -0.1144 -0.2888
 3270TIP3    H131301   0.230   3.073  13.202 -0.6735 -0.1101 -0.0724
 3270TIP3    H231302   0.341   3.076  13.305 -1.4624 -1.2701  0.8353
 3271TIP3   OH231303   6.541   3.098   5.733  0.3634 -0.0643 -0.0608
 3271TIP3    H131304   6.467   3.049   5.768  0.5901 -0.6931 -0.4421
 3271TIP3    H231305   6.615   3.037   5.735  0.7593  0.3952 -0.1425
 3272TIP3   OH231306   6.343   6.716   5.234 -0.1286 -0.7892 -0.4344
 3272TIP3    H131307   6.285   6.787   5.261 -0.1875 -1.0621  0.1861
 3272TIP3    H231308   6.290   6.662   5.175  0.6631  0.9963 -2.9255
 3273TIP3   OH231309   6.765   6.171   0.559 -0.0472 -0.6038 -0.8769
 3273TIP3    H131310   6.719   6.176   0.643  1.3072  0.5739 -0.1836
 3273TIP3    H231311   6.836   6.109   0.574  1.0481  0.6596 -0.7090
 3274TIP3   OH231312   6.306   5.318   0.495  0.1629  0.4768  0.4658
 3274TIP3    H131313   6.289   5.365   0.577 -2.2967 -1.9471  1.4993
 3274TIP3    H231314   6.306   5.387   0.428  1.2871  2.4176  2.3321
 3275TIP3   OH231315   4.075   2.707   5.446  0.0689 -0.3004 -0.1523
 3275TIP3    H131316   4.075   2.617   5.414 -0.3183 -0.2352 -0.3426
 3275TIP3    H231317   3.988   2.720   5.484  0.0162  0.0808 -0.3887
 3276TIP3   OH231318   3.449   5.274   2.455 -0.0090  0.2448 -0.2734
 3276TIP3    H131319   3.354   5.258   2.461  0.0116  0.2154 -0.0209
 3276TIP3    H231320   3.474   5.301   2.543  0.0028  1.4792 -0.6410
 3277TIP3   OH231321   0.455   5.461   3.949  0.1325  0.3427 -0.3358
 3277TIP3    H131322   0.492   5.434   3.865 -1.7793 -2.2146 -0.4745
 3277TIP3    H231323   0.426   5.379   3.990 -1.8921  1.8036  1.3860
 3278TIP3   OH231324   0.862   0.092  13.556 -0.2458  0.3633 -0.0564
 3278TIP3    H131325   0.943   0.127  13.595 -1.7724  2.2991  1.6310
 3278TIP3    H231326   0.850   0.008  13.601  1.0430 -0.1984 -0.6933
 3279TIP3   OH231327   0.740   5.527  12.683  0.5954  0.7150  0.0825
 3279TIP3    H131328   0.743   5.622  12.682  1.3665  0.7185  0.8735
 3279TIP3    H231329   0.712   5.505  12.772 -0.0272  0.2040 -0.2344
 3280TIP3   OH231330   5.356   5.199  14.320  0.1764  0.4795  0.1307
 3280TIP3    H131331   5.410   5.120  14.320  0.1230  0.3957  1.8083
 3280TIP3    H231332   5.314   5.200  14.235 -0.0797 -1.4957  0.1901
 3281TIP3   OH231333   2.049   5.562  13.952 -0.0955  0.1615 -0.2472
 3281TIP3    H131334   2.096   5.522  14.026 -0.0911  2.2169  0.9433
 3281TIP3    H231335   2.106   5.634  13.924 -0.6351  0.1069 -1.5480
 3282TIP3   OH231336   5.191   6.537   2.789  0.0055  0.0790 -0.4101
 3282TIP3    H131337   5.178   6.477   2.863  1.7031 -1.1249 -1.0371
 3282TIP3    H231338   5.281   6.523   2.762  0.6042  3.1349 -0.4346
 3283TIP3   OH231339   1.353   1.056   2.704  0.1355  0.0230 -0.3801
 3283TIP3    H131340   1.340   1.150   2.716 -0.1170 -0.0912  0.2581
 3283TIP3    H231341   1.447   1.045   2.694  0.4175  0.0943  1.8766
 3284TIP3   OH231342   1.728   1.684  15.108  0.9199  0.0085 -0.2500
 3284TIP3    H131343   1.737   1.769  15.152 -0.2973 -0.2877  0.6405
 3284TIP3    H231344   1.761   1.621  15.171 -1.0556 -0.4456  0.3986
 3285TIP3   OH231345   5.450   2.726   1.035  0.1152  0.0396 -0.1507
 3285TIP3    H131346   5.501   2.796   1.076 -0.6406  1.0032 -0.8213
 3285TIP3    H231347   5.506   2.694   0.965  0.4958 -0.0875  0.2055
 3286TIP3   OH231348   5.045   3.374  13.777 -0.3768  0.2103  0.3329
 3286TIP3    H131349   5.052   3.464  13.809  1.2766 -0.4139  1.8945
 3286TIP3    H231350   4.959   3.345  13.806 -2.1850  2.1094 -2.6478
 3287TIP3   OH231351   2.651   6.821   6.013 -0.1631 -0.6265  0.2144
 3287TIP3    H131352   2.705   6.745   6.036  0.4911 -0.7194 -1.5168
 3287TIP3    H231353   2.710   6.896   6.019 -0.4126 -0.4431  0.4222
 3288TIP3   OH231354   1.555   5.773   5.689 -0.4542  0.5792 -0.1456
 3288TIP3    H131355   1.639   5.809   5.719 -0.1302  0.0461 -0.3901
 3288TIP3    H231356   1.514   5.740   5.768  0.0721 -0.1629 -0.1691
 3289TIP3   OH231357   1.631   6.209  15.858 -0.1448  0.2102  0.7132
 3289TIP3    H131358   1.700   6.236  15.797 -0.5026 -0.0495  0.1865
 3289TIP3    H231359   1.635   6.274  15.928 -0.5666  1.2669 -0.2140
 3290TIP3   OH231360   5.122   5.892   0.659 -0.1873 -0.9781  0.0046
 3290TIP3    H131361   5.181   5.856   0.592  0.8435 -0.8302  0.8046
 3290TIP3    H231362   5.054   5.937   0.610  0.9575 -0.2259 -0.9446
 3291TIP3   OH231363   1.792   6.137  14.086  0.3697 -0.5688  0.2607
 3291TIP3    H131364   1.698   6.131  14.068 -0.1757 -1.2526  2.8780
 3291TIP3    H231365   1.832   6.145  14.000 -1.9606 -2.0534 -1.0901
 3292TIP3   OH231366   5.604   6.276  12.747  0.1769 -0.3081  0.5654
 3292TIP3    H131367   5.544   6.202  12.741 -0.3201  0.2267 -2.2938
 3292TIP3    H231368   5.647   6.280  12.662  2.9608  0.4727  1.8817
 3293TIP3   OH231369   1.734   4.952   3.824 -0.6355  1.0024 -0.2175
 3293TIP3    H131370   1.725   4.909   3.909  1.9538  0.1393 -0.2846
 3293TIP3    H231371   1.801   5.019   3.838 -1.3141  1.9260 -1.2237
 3294TIP3   OH231372   1.234   3.891  16.696 -0.3211 -0.1430 -0.3330
 3294TIP3    H131373   1.172   3.885  16.623  0.7340  0.9765 -1.3712
 3294TIP3    H231374   1.239   3.985  16.715  1.5058 -0.1350 -0.6972
 3295TIP3   OH231375   1.613   0.478  13.643  0.1599  0.5762 -0.0704
 3295TIP3    H131376   1.571   0.425  13.575  2.8137  0.5685 -1.8640
 3295TIP3    H231377   1.540   0.520  13.689 -1.8305  0.4537 -2.8299
 3296TIP3   OH231378   2.777   0.257   0.699  0.0006  0.0326 -0.1883
 3296TIP3    H131379   2.787   0.275   0.793  2.0343  2.0475 -0.7084
 3296TIP3    H231380   2.789   0.162   0.692  0.5429 -0.0650  1.5003
 3297TIP3   OH231381   4.744   6.617   2.358  0.1499  0.1443  0.2676
 3297TIP3    H131382   4.799   6.693   2.378 -0.8170  0.5139  1.6763
 3297TIP3    H231383   4.806   6.547   2.340  1.0677  0.9753  0.1194
 3298TIP3   OH231384   3.506   1.187   2.472  0.6873  0.1065  0.1778
 3298TIP3    H131385   3.472   1.219   2.388 -0.1258  0.3117  0.5716
 3298TIP3    H231386   3.437   1.208   2.535  1.4023  0.2030  0.9499
 3299TIP3   OH231387   1.530   6.476  11.996  0.1885 -0.2659  0.0016
 3299TIP3    H131388   1.547   6.460  11.903  2.3245  1.2389  0.0502
 3299TIP3    H231389   1.617   6.494  12.033 -0.8654  1.7255  1.7204
 3300TIP3   OH231390   1.376   6.749  10.445 -0.2945  0.0220 -0.3787
 3300TIP3    H131391   1.345   6.686  10.380 -1.5407  0.4345 -0.2260
 3300TIP3    H231392   1.311   6.819  10.442 -0.2070  0.1906  1.0939
 3301TIP3   OH231393   2.342   6.062  11.609 -0.3489  0.2965 -0.4720
 3301TIP3    H131394   2.289   6.142  11.611 -1.7173 -0.5876  0.0592
 3301TIP3    H231395   2.431   6.093  11.597 -1.0825  1.7966 -2.7298
 3302TIP3   OH231396   5.104   3.715   4.875 -0.0352 -0.1133  0.2792
 3302TIP3    H131397   5.034   3.696   4.813  0.7362 -0.6672 -0.4566
 3302TIP3    H231398   5.083   3.802   4.909 -1.8275 -0.8395  1.1687
 3303TIP3   OH231399   3.767   5.847   4.194 -0.5831 -0.4131  0.4078
 3303TIP3    H131400   3.760   5.825   4.287 -0.7393  1.1832  0.7991
 3303TIP3    H231401   3.827   5.921   4.192  0.2940 -1.1272 -0.8955
 3304TIP3   OH231402   4.444   4.667   5.850 -0.2763  0.4891  0.2516
 3304TIP3    H131403   4.464   4.674   5.944  0.4703  0.3017  0.1110
 3304TIP3    H231404   4.355   4.632   5.847 -0.9892  2.0994  0.9108
 3305TIP3   OH231405   1.568   2.903  14.082 -0.1549  0.0301 -0.1764
 3305TIP3    H131406   1.510   2.926  14.010 -0.5312  0.4105  0.2402
 3305TIP3    H231407   1.557   2.974  14.145 -1.2497 -1.2094  1.0880
 3306TIP3   OH231408   4.061   4.125  12.081 -0.2942  0.8040  0.0255
 3306TIP3    H131409   4.129   4.180  12.044  0.6956  0.7586  1.6688
 3306TIP3    H231410   4.100   4.037  12.084 -0.7751  0.5887  0.0929
 3307TIP3   OH231411   2.285   2.505   1.318 -0.1042 -0.2633  0.1607
 3307TIP3    H131412   2.305   2.454   1.240  0.3483 -2.2755  1.5230
 3307TIP3    H231413   2.371   2.523   1.358 -0.3728  0.0147  0.6258
 3308TIP3   OH231414   5.608   4.661  16.457  0.5140 -0.2222 -0.1292
 3308TIP3    H131415   5.621   4.589  16.519 -0.5165  1.6759  2.4579
 3308TIP3    H231416   5.637   4.739  16.503 -0.1364  1.2969 -2.1258
 3309TIP3   OH231417   2.711   6.144   0.663 -0.0004 -0.3828  0.0012
 3309TIP3    H131418   2.679   6.134   0.752  2.6672 -3.7816  0.8126
 3309TIP3    H231419   2.632   6.145   0.609 -1.6382 -1.8875  2.1829
 3310TIP3   OH231420   6.087   6.763   1.982  0.3581 -0.7287 -0.1483
 3310TIP3    H131421   6.164   6.782   2.036 -0.4093 -2.1730  1.5841
 3310TIP3    H231422   6.013   6.791   2.037 -0.3883  1.1534 -1.9998
 3311TIP3   OH231423   5.743   4.041  15.823  0.0036  0.5549  0.4374
 3311TIP3    H131424   5.789   4.089  15.892  1.6703 -1.0662  0.5464
 3311TIP3    H231425   5.813   4.009  15.766 -1.2112  0.2163 -0.9178
 3312TIP3   OH231426   0.715   6.274   4.517 -0.5424  0.2896 -0.2804
 3312TIP3    H131427   0.751   6.346   4.569 -1.9937 -0.2951  1.6275
 3312TIP3    H231428   0.756   6.196   4.554  0.5030  0.0289 -1.8884
 3313TIP3   OH231429   1.771   4.801   4.524 -0.2216  0.6941 -0.1463
 3313TIP3    H131430   1.793   4.730   4.464 -1.7153 -0.1188  0.2210
 3313TIP3    H231431   1.849   4.812   4.578 -0.4666 -1.6982  0.7637
 3314TIP3   OH231432   2.734   2.049  15.373  0.0190 -0.3940 -0.3365
 3314TIP3    H131433   2.806   2.057  15.437 -0.3549 -1.6816  0.2657
 3314TIP3    H231434   2.704   2.139  15.361  0.1332 -0.1031  1.2814
 3315TIP3   OH231435   0.790   6.779  12.641  0.2641 -0.0353  0.1576
 3315TIP3    H131436   0.783   6.724  12.563 -1.9425 -0.1987  0.4096
 3315TIP3    H231437   0.725   6.849  12.627  0.4525  0.4274  1.4496
 3316TIP3   OH231438   6.055   4.985   3.643  0.0259 -0.1154 -0.7598
 3316TIP3    H131439   5.995   4.913   3.662 -1.4867  0.7862 -1.8572
 3316TIP3    H231440   6.118   4.948   3.582 -0.6598 -0.5576 -1.2129
 3317TIP3   OH231441   4.562   5.364   2.955 -0.0978 -0.0790 -0.2836
 3317TIP3    H131442   4.554   5.316   2.872  0.3536 -1.4442  0.4336
 3317TIP3    H231443   4.488   5.332   3.007  1.9185 -2.4269  1.3476
 3318TIP3   OH231444   2.934   0.209  14.387  0.0701 -0.0829  0.3314
 3318TIP3    H131445   2.990   0.133  14.400 -1.5027 -1.2660  0.5767
 3318TIP3    H231446   2.992   0.284  14.397  1.6184 -1.2348  0.3703
 3319TIP3   OH231447   3.842   2.430   4.057 -0.4731 -0.1288 -0.0765
 3319TIP3    H131448   3.780   2.417   3.985 -3.3458  2.3144  1.7411
 3319TIP3    H231449   3.928   2.424   4.016 -1.9436  0.2128 -3.5137
 3320TIP3   OH231450   4.506   1.692   4.932 -0.1329 -0.2982  0.1566
 3320TIP3    H131451   4.436   1.645   4.886  0.1005 -0.0738 -0.4370
 3320TIP3    H231452   4.559   1.730   4.862 -0.0390  0.4472  0.6183
 3321TIP3   OH231453   0.589   3.291   2.166  0.5664 -0.3139  0.0877
 3321TIP3    H131454   0.545   3.238   2.233 -0.5321 -0.8444 -1.0132
 3321TIP3    H231455   0.519   3.343   2.127  1.5016  1.3967  0.6075
 3322TIP3   OH231456   6.075   6.529   1.401  0.0065  0.2060  0.1464
 3322TIP3    H131457   6.111   6.615   1.424  0.4668  0.3252 -0.9478
 3322TIP3    H231458   5.982   6.535   1.422  0.0057  1.0361 -0.0595
 3323TIP3   OH231459   2.805   0.808  16.746 -0.5371  0.0567  0.6462
 3323TIP3    H131460   2.900   0.796  16.740 -0.8338 -2.2055 -0.6988
 3323TIP3    H231461   2.792   0.856  16.828  1.8121  1.5539  0.2257
 3324TIP3   OH231462   1.360   1.414   1.105  0.1628  0.4693 -0.3718
 3324TIP3    H131463   1.315   1.415   1.190 -0.4109  2.0850 -0.6615
 3324TIP3    H231464   1.329   1.493   1.061  1.7634  0.5513 -1.4076
 3325TIP3   OH231465   5.938   1.537  15.109 -0.3527 -0.1299  0.8490
 3325TIP3    H131466   6.001   1.470  15.082 -0.3584  0.0766  0.3114
 3325TIP3    H231467   5.853   1.494  15.103 -0.6256  0.5784 -1.8686
 3326TIP3   OH231468   6.105   4.628   0.312 -0.0719 -0.2392 -0.1920
 3326TIP3    H131469   6.050   4.551   0.299  1.7418 -1.7356  0.5205
 3326TIP3    H231470   6.064   4.696   0.259 -1.1093 -1.9868 -1.7502
 3327TIP3   OH231471   1.819   6.358  16.331  0.1146  0.1227 -0.3107
 3327TIP3    H131472   1.882   6.323  16.395  0.5610 -0.1713 -0.8998
 3327TIP3    H231473   1.861   6.344  16.246 -0.5844  0.2749 -0.6880
 3328TIP3   OH231474   4.867   6.771  12.222 -0.0203 -0.3738 -0.7131
 3328TIP3    H131475   4.773   6.770  12.205 -0.1520 -0.2158 -0.0269
 3328TIP3    H231476   4.885   6.689  12.267 -0.0717  0.1694  0.3342
 3329TIP3   OH231477   6.060   6.644  13.933  0.3676  0.5740  0.0612
 3329TIP3    H131478   6.066   6.556  13.969  1.9920  1.2815  1.7266
 3329TIP3    H231479   6.138   6.653  13.878  0.8823  1.3372  0.8862
 3330TIP3   OH231480   0.223   5.931  15.303 -0.1895  0.0343 -0.3506
 3330TIP3    H131481   0.148   5.910  15.246 -1.1307  1.3097  0.3747
 3330TIP3    H231482   0.183   5.959  15.385  1.1182  0.0322  0.3017
 3331TIP3   OH231483   4.168   2.411   1.448 -0.0089  0.0909  0.0866
 3331TIP3    H131484   4.088   2.421   1.500 -0.6075  0.8158 -0.9485
 3331TIP3    H231485   4.237   2.447   1.504 -0.6968  1.2383  0.2284
 3332TIP3   OH231486   5.379   0.222   2.082 -0.3926 -0.1720 -0.1182
 3332TIP3    H131487   5.463   0.220   2.035 -0.8648  0.4920 -1.0203
 3332TIP3    H231488   5.329   0.292   2.040 -1.4671 -0.6606  0.2991
 3333TIP3   OH231489   4.873   1.098   1.427 -0.0627  0.2125  0.1462
 3333TIP3    H131490   4.886   1.184   1.386  0.0594 -0.6491 -1.7706
 3333TIP3    H231491   4.928   1.039   1.375 -0.3293 -1.0747  1.2709
 3334TIP3   OH231492   6.682   4.514   2.021 -0.3267 -0.0588 -0.1421
 3334TIP3    H131493   6.616   4.456   2.059 -1.1857  1.3304  0.5453
 3334TIP3    H231494   6.758   4.504   2.078 -0.5300 -0.3681  0.0792
 3335TIP3   OH231495   6.361   1.087  14.078 -0.2536  0.1608 -0.0345
 3335TIP3    H131496   6.417   1.164  14.082 -0.4621  0.5021 -2.2550
 3335TIP3    H231497   6.404   1.030  14.014  0.0601 -1.7521  1.7656
 3336TIP3   OH231498   0.061   3.740   0.057  0.8178 -0.3575  0.3133
 3336TIP3    H131499   0.034   3.653   0.026  2.8988 -1.3648  1.1469
 3336TIP3    H231500   0.115   3.722   0.134 -0.0356  1.7903  1.5116
 3337TIP3   OH231501   5.949   0.151  11.708 -0.1179 -0.0148  0.4634
 3337TIP3    H131502   5.892   0.082  11.743  0.0801 -0.9316 -0.9408
 3337TIP3    H231503   5.902   0.186  11.632  0.5073  0.2691  0.1919
 3338TIP3   OH231504   6.305   1.633  15.275  0.2513  0.1209 -0.0430
 3338TIP3    H131505   6.399   1.618  15.275  0.1723 -0.5108 -1.2165
 3338TIP3    H231506   6.282   1.641  15.182 -1.2532 -2.5310  0.0072
 3339TIP3   OH231507   1.988   5.085  16.133 -0.0577 -0.3411  0.0202
 3339TIP3    H131508   1.943   5.032  16.199  0.3614 -2.9669 -1.6883
 3339TIP3    H231509   2.073   5.043  16.122  0.5958  1.1291 -0.9508
 3340TIP3   OH231510   3.354   4.564   5.809 -0.1834  0.5092 -0.2679
 3340TIP3    H131511   3.353   4.503   5.735  0.2010  0.1060  0.0616
 3340TIP3    H231512   3.291   4.632   5.784  0.4064  0.7136 -1.2507
 3341TIP3   OH231513   4.078   0.195  16.733  0.1585  0.8119  0.3586
 3341TIP3    H131514   3.998   0.215  16.685  0.1744 -2.4112 -1.2662
 3341TIP3    H231515   4.118   0.281  16.750 -1.4906  2.3203 -2.5651
 3342TIP3   OH231516   2.043   2.898  15.358  0.7193 -0.1311 -0.6487
 3342TIP3    H131517   2.111   2.890  15.425 -0.1125  1.2850  0.4128
 3342TIP3    H231518   1.961   2.877  15.403  0.1254  0.9704 -1.1648
 3343TIP3   OH231519   6.676   3.126   3.177 -0.1527  0.0355 -0.2453
 3343TIP3    H131520   6.582   3.106   3.169 -0.3747  1.1128 -0.5583
 3343TIP3    H231521   6.692   3.127   3.271 -0.3450 -0.5963 -0.1963
 3344TIP3   OH231522   5.413   3.422  15.976 -0.7805  0.1343  0.1504
 3344TIP3    H131523   5.473   3.359  16.015 -1.4153  0.1865  1.2598
 3344TIP3    H231524   5.463   3.464  15.906 -0.5699 -2.1247 -1.1520
 3345TIP3   OH231525   5.267   0.459  14.254 -0.3941  0.6244 -0.9174
 3345TIP3    H131526   5.228   0.420  14.176  1.9794  2.3405 -3.1489
 3345TIP3    H231527   5.210   0.533  14.274 -0.4202  0.8435 -1.7452
 3346TIP3   OH231528   2.189   2.649   1.931 -0.1404 -0.2110 -0.0801
 3346TIP3    H131529   2.152   2.727   1.891 -1.0565 -0.9233 -0.6770
 3346TIP3    H231530   2.158   2.652   2.022  0.9212  0.7730  0.2737
 3347TIP3   OH231531   2.328   4.716  16.673  0.1678 -0.2164 -0.0846
 3347TIP3    H131532   2.358   4.762  16.751 -1.0781 -0.9024  0.8318
 3347TIP3    H231533   2.338   4.623  16.694 -0.9728 -0.4284 -0.4029
 3348TIP3   OH231534   6.292   2.218  11.991  0.2261 -0.1153 -0.1629
 3348TIP3    H131535   6.294   2.296  12.048  0.6182  0.7692 -1.3520
 3348TIP3    H231536   6.200   2.208  11.968  0.0727 -0.4400  0.5465
 3349TIP3   OH231537   6.163   1.601  17.163 -0.0086  0.6377  0.6078
 3349TIP3    H131538   6.165   1.620  17.257  0.4854  1.8494  0.3661
 3349TIP3    H231539   6.093   1.657  17.129 -1.0899 -0.7686  0.4321
 3350TIP3   OH231540   6.187   3.729  10.902  0.1464  0.3254  0.0087
 3350TIP3    H131541   6.123   3.701  10.836 -1.5712  0.3069  1.5965
 3350TIP3    H231542   6.243   3.791  10.855 -0.3934 -0.4179 -1.7088
 3351TIP3   OH231543   0.226   4.626  14.212  0.5463 -0.2245  0.2534
 3351TIP3    H131544   0.283   4.559  14.176  1.1945 -0.0609  0.9438
 3351TIP3    H231545   0.272   4.709  14.195 -2.0808  0.5990 -4.2839
 3352TIP3   OH231546   4.897   3.448  14.276 -0.1151 -0.1204  0.4197
 3352TIP3    H131547   4.962   3.489  14.218  0.7087 -0.2107  1.2715
 3352TIP3    H231548   4.891   3.357  14.246  0.6285 -0.2787  0.7439
 3353TIP3   OH231549   2.238   0.610   0.109  0.0733  0.0014 -0.2353
 3353TIP3    H131550   2.164   0.566   0.068 -0.1361 -1.0915  1.2480
 3353TIP3    H231551   2.199   0.684   0.156  0.2366  0.8465 -1.3726
 3354TIP3   OH231552   6.319   3.839  15.394  0.2599  0.2743 -0.3878
 3354TIP3    H131553   6.349   3.920  15.354 -0.7256 -0.0978 -1.9552
 3354TIP3    H231554   6.254   3.804  15.334 -1.8759  0.0292  1.8936
 3355TIP3   OH231555   0.183   5.729   5.550 -0.2169  0.4547  0.6902
 3355TIP3    H131556   0.108   5.714   5.492  0.2425  2.8525 -0.6736
 3355TIP3    H231557   0.243   5.657   5.531 -0.6763  0.4321 -0.8502
 3356TIP3   OH231558   4.657   5.345   2.212 -0.3952 -0.2656 -0.0072
 3356TIP3    H131559   4.678   5.399   2.289  0.7124  0.1296 -0.5586
 3356TIP3    H231560   4.655   5.406   2.139  1.3104 -0.9704 -0.7155
 3357TIP3   OH231561   4.116   3.714   1.560 -0.2321 -0.4500  0.3056
 3357TIP3    H131562   4.023   3.735   1.551 -0.4056 -1.4087 -0.3900
 3357TIP3    H231563   4.122   3.667   1.643 -0.1353  0.7437  0.9946
 3358TIP3   OH231564   2.557   5.165   1.085  0.3951 -0.1603 -0.1696
 3358TIP3    H131565   2.506   5.107   1.142 -0.4400  0.8429  0.1356
 3358TIP3    H231566   2.531   5.141   0.996  0.5977 -0.7368 -0.0759
 3359TIP3   OH231567   1.521   0.273  13.507  0.3527 -0.2698  0.1343
 3359TIP3    H131568   1.477   0.224  13.437 -0.9317 -0.1333  0.8332
 3359TIP3    H231569   1.533   0.209  13.577 -0.2704  0.1230  0.6002
 3360TIP3   OH231570   5.910   4.640   0.726  0.0130  0.1199  0.8544
 3360TIP3    H131571   5.959   4.711   0.768 -0.4809 -0.1400  1.8892
 3360TIP3    H231572   5.853   4.606   0.794 -1.8384  0.5909 -0.3774
 3361TIP3   OH231573   2.781   4.755   2.683  0.0598 -0.8678 -0.5045
 3361TIP3    H131574   2.706   4.745   2.742  0.0211  1.7029  0.0152
 3361TIP3    H231575   2.748   4.727   2.597 -0.7924 -1.8559  0.1186
 3362TIP3   OH231576   5.639   3.139   2.605 -0.2535  0.3244  0.1179
 3362TIP3    H131577   5.723   3.184   2.620 -0.4904  1.1058 -0.7598
 3362TIP3    H231578   5.583   3.169   2.676 -0.3382  1.2788 -0.3300
 3363TIP3   OH231579   1.692   4.072   2.619 -0.1017 -0.1385 -0.7529
 3363TIP3    H131580   1.677   3.983   2.650  1.6889 -0.8041 -1.6567
 3363TIP3    H231581   1.711   4.122   2.699 -0.1945 -0.7672 -0.3315
 3364TIP3   OH231582   2.694   0.021  16.644  0.1672  0.3958  0.9263
 3364TIP3    H131583   2.650  -0.062  16.629 -1.4873  1.0249  1.9810
 3364TIP3    H231584   2.783  -0.003  16.669 -0.4029 -1.0770  1.6359
 3365TIP3   OH231585   0.082   4.870  14.486  0.5409  0.4683  0.3578
 3365TIP3    H131586   0.100   4.923  14.564 -0.2587  0.2026  0.7461
 3365TIP3    H231587  -0.007   4.896  14.460  0.1429 -0.6343  0.5409
 3366TIP3   OH231588   3.266   3.901  12.326  0.0805  0.5740 -0.2258
 3366TIP3    H131589   3.183   3.918  12.371 -0.5112  1.2102 -1.4933
 3366TIP3    H231590   3.331   3.953  12.375 -0.7505  2.2097 -0.7783
 3367TIP3   OH231591   4.876   1.822  13.446  0.2111  0.0095 -0.5334
 3367TIP3    H131592   4.862   1.735  13.409  2.8860 -1.2331  1.0771
 3367TIP3    H231593   4.933   1.808  13.521 -0.2132  3.0627  0.5210
 3368TIP3   OH231594   5.835   6.487  11.105 -1.0056  0.2122  0.6243
 3368TIP3    H131595   5.842   6.560  11.043 -0.4560 -0.1530  0.2504
 3368TIP3    H231596   5.912   6.433  11.087  0.5423  1.3489  3.2594
 3369TIP3   OH231597   0.275   0.199   1.123 -0.1915  0.2559 -0.9083
 3369TIP3    H131598   0.226   0.267   1.078 -0.6437  0.5951  0.0562
 3369TIP3    H231599   0.300   0.239   1.207  2.1442  0.2667 -1.5249
 3370TIP3   OH231600   5.527   1.130  16.758 -0.4382 -0.0397 -0.2810
 3370TIP3    H131601   5.580   1.050  16.763  0.4495  0.6189  3.0279
 3370TIP3    H231602   5.589   1.197  16.729 -0.3978  0.0161 -0.0670
 3371TIP3   OH231603   4.227   3.801   2.930  0.1085  0.0334  0.4070
 3371TIP3    H131604   4.197   3.759   2.849  0.0186  0.6292  0.1268
 3371TIP3    H231605   4.154   3.792   2.990  0.2862 -0.6793  0.5260
 3372TIP3   OH231606   0.773   3.371   4.960  0.4933 -0.2569 -0.1004
 3372TIP3    H131607   0.734   3.455   4.986 -1.1952 -1.1545  0.4300
 3372TIP3    H231608   0.779   3.322   5.042 -0.8598 -1.5318 -0.7184
 3373TIP3   OH231609   4.715   3.028   1.816 -0.0147 -0.3290  0.4447
 3373TIP3    H131610   4.680   2.945   1.784 -0.3921  0.1931 -0.5338
 3373TIP3    H231611   4.807   3.010   1.836  0.8015 -0.2394 -2.7845
 3374TIP3   OH231612   3.499   0.563   3.936  0.4032  0.3276 -0.3064
 3374TIP3    H131613   3.458   0.649   3.940 -2.8708 -0.9881 -1.8607
 3374TIP3    H231614   3.440   0.505   3.984  0.3840 -1.6563 -2.4840
 3375TIP3   OH231615   4.992   1.803  12.559 -0.4119 -0.1427 -0.3732
 3375TIP3    H131616   5.084   1.816  12.583 -0.3997  0.2649 -0.6279
 3375TIP3    H231617   4.987   1.834  12.469 -1.1414  1.3919  0.1577
 3376TIP3   OH231618   4.875   0.674   2.482  0.3764 -0.0838 -0.3881
 3376TIP3    H131619   4.915   0.678   2.570 -1.1729 -2.0510  0.4697
 3376TIP3    H231620   4.813   0.747   2.481 -0.0981 -0.4642  0.4323
 3377TIP3   OH231621   4.851   1.542   2.359 -0.3623 -0.4844  0.1489
 3377TIP3    H131622   4.917   1.608   2.338 -0.6345  1.2819  4.0754
 3377TIP3    H231623   4.777   1.563   2.302  0.3893  1.1156 -0.2993
 3378TIP3   OH231624   3.134   6.124  10.375  0.2471  0.0567  0.2395
 3378TIP3    H131625   3.216   6.126  10.424 -0.7999 -0.8590  2.0983
 3378TIP3    H231626   3.083   6.055  10.416 -1.1503  0.0276 -1.4356
 3379TIP3   OH231627   4.138   3.746   4.625 -0.0836 -0.2619 -0.3638
 3379TIP3    H131628   4.196   3.758   4.549 -0.4217 -0.5279 -0.6647
 3379TIP3    H231629   4.197   3.754   4.700  0.2421  0.0999 -0.6443
 3380TIP3   OH231630   6.219   4.536  13.394  0.2458  0.2721 -0.0435
 3380TIP3    H131631   6.192   4.541  13.303  3.6296 -1.6112 -1.3058
 3380TIP3    H231632   6.292   4.597  13.402  1.9347 -1.6668  0.4839
 3381TIP3   OH231633   3.406   4.164   0.725  0.3649  0.1443  0.1991
 3381TIP3    H131634   3.392   4.236   0.786  1.2150 -0.5709  1.2869
 3381TIP3    H231635   3.323   4.117   0.721  0.0816  0.6513  0.1995
 3382TIP3   OH231636   2.520   4.117  11.462  0.1357  0.1480 -0.5771
 3382TIP3    H131637   2.521   4.048  11.529  0.2339 -1.5047 -2.1969
 3382TIP3    H231638   2.443   4.170  11.483 -0.4942 -1.0196  0.1953
 3383TIP3   OH231639   6.433   1.273  12.564 -0.0374 -0.2393 -0.9060
 3383TIP3    H131640   6.433   1.303  12.655 -0.0548 -0.1103 -0.9496
 3383TIP3    H231641   6.516   1.303  12.528  0.1029 -0.5479 -0.8492
 3384TIP3   OH231642   1.830   5.090  15.230 -0.1403  0.4321 -0.6679
 3384TIP3    H131643   1.741   5.056  15.225 -0.4009  0.7359  1.1069
 3384TIP3    H231644   1.885   5.020  15.194 -0.5327 -2.5218  3.6986
 3385TIP3   OH231645   2.747   5.878  15.747 -0.2636 -0.0480  0.0740
 3385TIP3    H131646   2.680   5.818  15.714 -0.4030  0.5814 -0.8180
 3385TIP3    H231647   2.794   5.907  15.669  1.7003 -1.2018  0.7556
 3386TIP3   OH231648   4.555   2.763  13.543  0.1867 -0.3381  0.2754
 3386TIP3    H131649   4.530   2.734  13.455 -1.3132  1.9496 -0.1520
 3386TIP3    H231650   4.475   2.803  13.578  1.3203  0.6167  1.8625
 3387TIP3   OH231651   5.524   4.151   3.299 -0.0283 -0.5778  0.0238
 3387TIP3    H131652   5.550   4.243   3.293  1.1783 -0.9276 -0.5175
 3387TIP3    H231653   5.523   4.120   3.208 -2.9700 -0.4795 -0.0575
 3388TIP3   OH231654   4.218   6.339   5.121  0.0197  0.3070  0.2695
 3388TIP3    H131655   4.252   6.315   5.207 -1.0112  2.3999  1.3106
 3388TIP3    H231656   4.199   6.255   5.079  0.6056 -0.7512  2.0297
 3389TIP3   OH231657   6.299   2.479   1.778 -0.1891 -0.1944 -0.3540
 3389TIP3    H131658   6.344   2.401   1.747 -0.9846 -0.1616 -1.6837
 3389TIP3    H231659   6.221   2.445   1.823 -2.0304 -0.2205 -3.3032
 3390TIP3   OH231660   3.444   3.649  16.446 -0.8302 -0.0296  0.1330
 3390TIP3    H131661   3.401   3.612  16.523  0.5628  0.5457  1.2281
 3390TIP3    H231662   3.457   3.575  16.387  0.7624 -1.0904  1.7466
 3391TIP3   OH231663   2.445   5.619   2.291  0.3937  0.0948  0.2140
 3391TIP3    H131664   2.372   5.660   2.337  1.6155  1.1663  1.2930
 3391TIP3    H231665   2.438   5.651   2.201  0.9895  2.3188  0.9032
 3392TIP3   OH231666   6.445   3.085   6.293 -0.2572 -0.4083 -0.3323
 3392TIP3    H131667   6.496   3.114   6.217  1.5824 -0.2837  0.8757
 3392TIP3    H231668   6.369   3.143   6.295  0.2892  0.3763 -1.3827
 3393TIP3   OH231669   3.212   3.285   1.006 -0.6837  0.0162 -0.4011
 3393TIP3    H131670   3.187   3.336   1.082  1.1221 -0.4718  0.5780
 3393TIP3    H231671   3.228   3.197   1.040  0.8355 -0.0470 -1.2000
 3394TIP3   OH231672   5.936   2.049   1.826 -0.1405 -0.0270 -0.1991
 3394TIP3    H131673   5.911   1.989   1.896  0.9084  0.9585  1.0592
 3394TIP3    H231674   5.895   2.132   1.849 -0.9281 -0.0247 -1.5098
 3395TIP3   OH231675   6.449   6.064  16.945  0.2546 -0.1143  0.1167
 3395TIP3    H131676   6.499   6.032  17.020  0.2941 -0.3897 -0.0231
 3395TIP3    H231677   6.474   6.005  16.873  1.7082  1.3227 -0.6143
 3396TIP3   OH231678   6.721   0.888  11.558 -0.8471 -0.0358  0.4814
 3396TIP3    H131679   6.662   0.826  11.516 -0.1639 -0.3996  0.0419
 3396TIP3    H231680   6.681   0.904  11.643 -1.6327 -0.1914  0.1611
 3397TIP3   OH231681   4.076   2.513   3.281  0.1197 -0.1535  0.5189
 3397TIP3    H131682   4.142   2.562   3.231 -0.9424  0.1245 -0.6709
 3397TIP3    H231683   4.000   2.571   3.283  0.2077 -0.0484  2.7529
 3398TIP3   OH231684   6.056   2.098  16.589 -0.3833 -0.0665  0.1139
 3398TIP3    H131685   6.005   2.157  16.534 -1.4190 -0.3659  0.7241
 3398TIP3    H231686   6.002   2.086  16.667  0.7218 -0.2235  0.8790
 3399TIP3   OH231687   0.805   0.187  14.714 -0.7419 -0.0866  0.7879
 3399TIP3    H131688   0.782   0.125  14.783 -1.8319 -1.2169 -0.5537
 3399TIP3    H231689   0.810   0.135  14.634 -0.1391  1.3043 -0.1253
 3400TIP3   OH231690   3.211   2.983  16.986  0.4634 -0.6226  0.5810
 3400TIP3    H131691   3.291   3.034  16.976  1.2484 -1.5983  1.5558
 3400TIP3    H231692   3.145   3.046  17.013  1.4804 -0.1385  2.0657
 3401TIP3   OH231693   4.215   6.060   5.031  0.0560  0.3866 -0.0884
 3401TIP3    H131694   4.206   5.968   5.055 -3.0607  0.6997  0.3660
 3401TIP3    H231695   4.195   6.062   4.937  0.1717  0.6244 -0.1090
 3402TIP3   OH231696   5.679   2.339   2.228  0.0128  0.6482  0.0037
 3402TIP3    H131697   5.658   2.424   2.268 -0.4355 -0.5499  2.4824
 3402TIP3    H231698   5.721   2.289   2.298 -2.5517 -2.2839 -0.3566
 3403TIP3   OH231699   6.083   6.478  16.068  0.2004 -0.1051  0.2455
 3403TIP3    H131700   6.178   6.468  16.070  0.2077  0.0152  1.0355
 3403TIP3    H231701   6.050   6.392  16.040  0.4776 -0.7779  1.8559
 3404TIP3   OH231702   4.317   1.643  15.898 -0.5345 -0.1431  0.4314
 3404TIP3    H131703   4.306   1.673  15.989 -0.3917  2.7626 -0.4233
 3404TIP3    H231704   4.377   1.707  15.859 -1.4928 -0.6581 -2.0303
 3405TIP3   OH231705   3.069   1.087  15.175 -0.1150 -0.0605  0.0888
 3405TIP3    H131706   2.979   1.056  15.158 -1.0099  2.2949  0.1207
 3405TIP3    H231707   3.096   1.041  15.254 -0.7780 -1.7520 -0.6090
 3406TIP3   OH231708   5.173   6.595  13.133  0.6213 -0.0985 -0.6107
 3406TIP3    H131709   5.201   6.505  13.149  3.0285  0.7275  0.2091
 3406TIP3    H231710   5.113   6.589  13.059 -1.3853 -2.6724  1.0462
 3407TIP3   OH231711   5.630   0.555  13.815 -0.6136 -0.1826  0.1945
 3407TIP3    H131712   5.630   0.642  13.775 -1.8076 -0.3836 -0.2976
 3407TIP3    H231713   5.544   0.520  13.793 -0.1700 -1.4592  0.4581
 3408TIP3   OH231714   2.118   6.486  13.649 -0.1777  0.7409  0.7824
 3408TIP3    H131715   2.024   6.499  13.658 -0.4541 -0.8745  0.4929
 3408TIP3    H231716   2.127   6.423  13.578  1.3667  4.1312 -2.3690
 3409TIP3   OH231717   6.091   2.225  15.540  0.6784  0.1019  0.3765
 3409TIP3    H131718   6.002   2.230  15.573  0.2940  1.1362 -0.7446
 3409TIP3    H231719   6.139   2.178  15.608 -0.7036 -0.4591  1.0038
 3410TIP3   OH231720   0.542   6.164  11.626  0.5819  0.1630 -0.0294
 3410TIP3    H131721   0.581   6.209  11.700 -0.7038  2.0525 -0.4415
 3410TIP3    H231722   0.592   6.194  11.550 -0.2166  0.8803 -0.2931
 3411TIP3   OH231723   3.522   2.902   4.742 -0.0121  0.3011 -0.2978
 3411TIP3    H131724   3.516   2.848   4.821  1.3165  0.7444  0.1401
 3411TIP3    H231725   3.575   2.978   4.769  1.2447  0.0307 -1.8386
 3412TIP3   OH231726   3.661   0.589  12.677 -0.4440 -0.3499  0.1133
 3412TIP3    H131727   3.693   0.518  12.732 -0.4808  0.3646  1.0719
 3412TIP3    H231728   3.731   0.603  12.612  0.5200  0.1558  1.2293
 3413TIP3   OH231729   3.767   0.236   5.773  0.6525  0.2307  0.0814
 3413TIP3    H131730   3.853   0.195   5.762  0.7704  0.5201 -0.0737
 3413TIP3    H231731   3.707   0.162   5.783  0.8697  0.0193 -0.1498
 3414TIP3   OH231732   4.800   2.287   4.930  0.1519  0.6966 -0.1360
 3414TIP3    H131733   4.721   2.245   4.964  0.3038  0.6966  0.2242
 3414TIP3    H231734   4.871   2.227   4.955  0.3482  1.0630  0.1943
 3415TIP3   OH231735   0.006   4.366   4.487  0.4881  0.6464 -0.1913
 3415TIP3    H131736   0.030   4.385   4.396  0.3242  1.6472 -0.0405
 3415TIP3    H231737  -0.029   4.449   4.520 -2.1658 -0.4181 -0.0911
 3416TIP3   OH231738   2.146   2.663  14.702 -0.5090  0.3409  0.5087
 3416TIP3    H131739   2.194   2.744  14.684 -1.0629  0.5549 -0.0389
 3416TIP3    H231740   2.189   2.597  14.648 -0.9272  0.5706 -0.1204
 3417TIP3   OH231741   3.582   0.401   2.929 -0.9020 -0.2095 -0.0336
 3417TIP3    H131742   3.669   0.398   2.969 -0.6781  0.2924 -0.4765
 3417TIP3    H231743   3.576   0.488   2.891 -1.9057  0.0566  0.6753
 3418TIP3   OH231744   6.063   2.821   5.482  0.3086 -0.5554  0.2542
 3418TIP3    H131745   6.097   2.889   5.425 -0.2748 -0.2207  0.3090
 3418TIP3    H231746   6.058   2.862   5.569 -0.3424 -0.5649  0.2266
 3419TIP3   OH231747   0.959   5.725   5.384  0.5555 -0.1786 -0.0728
 3419TIP3    H131748   0.864   5.738   5.390  0.1449 -1.6691 -2.1443
 3419TIP3    H231749   0.995   5.783   5.451 -1.7321  1.3558 -0.0289
 3420TIP3   OH231750   5.747   1.288  16.700 -0.6177  0.2746 -0.5049
 3420TIP3    H131751   5.797   1.304  16.780 -1.6078  0.3465  0.1148
 3420TIP3    H231752   5.810   1.248  16.640  0.0757 -0.0248  0.4026
 3421TIP3   OH231753   4.694   4.438   0.218  0.3745 -0.1886 -0.1996
 3421TIP3    H131754   4.737   4.480   0.143  2.2187  0.3691  1.1004
 3421TIP3    H231755   4.639   4.506   0.255  0.7777  0.0725 -0.0682
 3422TIP3   OH231756   3.174   3.999   1.018 -0.1472  0.3687 -0.4086
 3422TIP3    H131757   3.215   4.086   1.022  0.6455 -0.0019 -0.3815
 3422TIP3    H231758   3.080   4.017   1.025  0.0887  1.0826  1.9184
 3423TIP3   OH231759   6.746   5.105  14.163  0.3931  0.0232  0.0391
 3423TIP3    H131760   6.815   5.170  14.157  1.2472 -0.9248 -0.8110
 3423TIP3    H231761   6.710   5.099  14.074 -1.2677  0.9751  0.5916
 3424TIP3   OH231762   4.672   2.216  10.497  0.7420  0.3644  0.0696
 3424TIP3    H131763   4.749   2.173  10.534 -0.5309  0.2659  2.8394
 3424TIP3    H231764   4.642   2.157  10.429  1.9729 -0.5596  0.2909
 3425TIP3   OH231765   1.445   3.833   5.422  0.3070 -0.1981 -0.2651
 3425TIP3    H131766   1.493   3.913   5.443  0.2615 -0.7431  2.3761
 3425TIP3    H231767   1.509   3.777   5.378  0.4160  1.1488 -1.8841
 3426TIP3   OH231768   0.739   2.779  16.790  0.3357 -0.2220 -0.1338
 3426TIP3    H131769   0.789   2.699  16.779  0.9464 -0.0186  1.0079
 3426TIP3    H231770   0.697   2.770  16.876  2.9843  1.9754  1.5775
 3427TIP3   OH231771   1.224   0.536   1.978 -0.0526  0.1079  0.3185
 3427TIP3    H131772   1.205   0.453   1.933  0.4224 -0.0477  0.3992
 3427TIP3    H231773   1.223   0.601   1.908  1.6990 -0.2779 -0.1155
 3428TIP3   OH231774   6.257   4.139   5.120 -0.1942 -0.1051 -0.4585
 3428TIP3    H131775   6.225   4.154   5.209 -0.1830 -4.4675  0.4923
 3428TIP3    H231776   6.349   4.116   5.131 -0.4071 -1.5358 -1.4322
 3429TIP3   OH231777   4.567   3.700  13.828  0.0060  0.1699 -0.9466
 3429TIP3    H131778   4.506   3.761  13.868 -0.3324  1.1969 -2.9161
 3429TIP3    H231779   4.649   3.713  13.876 -0.7852  0.1138  0.4795
 3430TIP3   OH231780   2.549   1.687   5.702 -0.2909 -0.0339  0.2747
 3430TIP3    H131781   2.542   1.757   5.766 -3.4035  0.8333 -0.8310
 3430TIP3    H231782   2.560   1.732   5.618 -1.4873 -0.8485 -0.3512
 3431TIP3   OH231783   6.761   2.067  11.035 -0.0315  0.1528  0.3010
 3431TIP3    H131784   6.735   1.975  11.027  0.6367  0.0085 -0.3107
 3431TIP3    H231785   6.799   2.088  10.950 -1.9228  1.5641 -0.2537
 3432TIP3   OH231786   2.617   3.153  15.636  0.1072 -0.0408 -0.2523
 3432TIP3    H131787   2.655   3.227  15.683 -1.1787  1.3483 -1.2654
 3432TIP3    H231788   2.689   3.091  15.626  1.5059  1.4818 -0.1608
 3433TIP3   OH231789   6.090   3.251   4.222 -0.6408 -0.8609 -0.5157
 3433TIP3    H131790   6.017   3.227   4.164 -1.9886  1.8777 -0.1080
 3433TIP3    H231791   6.051   3.254   4.309  0.0098  0.3561 -0.2482
 3434TIP3   OH231792   1.082   2.565   3.991 -0.1165  0.8104  0.1129
 3434TIP3    H131793   1.022   2.490   3.993  1.0168 -0.3541 -3.1369
 3434TIP3    H231794   1.148   2.544   4.057 -0.7618 -0.1932  0.4668
 3435TIP3   OH231795   4.114   2.642  11.457 -0.2933 -0.3312 -0.3457
 3435TIP3    H131796   4.049   2.648  11.386 -0.2776 -0.3447 -0.3612
 3435TIP3    H231797   4.105   2.552  11.489 -1.1593  0.0463  0.4926
 3436TIP3   OH231798   5.878   6.524   2.438  0.1939 -0.3353 -0.0110
 3436TIP3    H131799   5.847   6.436   2.418  0.3825 -0.7507  1.4186
 3436TIP3    H231800   5.952   6.537   2.380  1.1019 -1.7203  0.7879
 3437TIP3   OH231801   4.116   4.271   3.181 -0.1500  0.6080 -0.0208
 3437TIP3    H131802   4.087   4.353   3.140 -1.7234  0.6756  1.1564
 3437TIP3    H231803   4.179   4.234   3.119 -1.7755  1.1328 -2.0888
 3438TIP3   OH231804   1.501   2.200  13.169 -0.5013  0.0789 -0.2975
 3438TIP3    H131805   1.521   2.293  13.172 -2.6216  0.5606  1.2728
 3438TIP3    H231806   1.454   2.188  13.086  1.6859 -0.1301 -1.6116
 3439TIP3   OH231807   5.999   4.662  16.533 -0.5173 -0.4132 -0.3737
 3439TIP3    H131808   5.972   4.709  16.612  2.1151  1.1442 -0.2804
 3439TIP3    H231809   6.005   4.571  16.561  0.8668  0.1658  1.4591
 3440TIP3   OH231810   3.277   5.069   5.067  0.0766 -0.1822 -0.1685
 3440TIP3    H131811   3.236   5.100   4.986 -1.1311 -0.9753  0.1073
 3440TIP3    H231812   3.273   4.974   5.061 -1.7591 -0.2891  1.6266
 3441TIP3   OH231813   2.023   0.806   5.272  0.1293 -0.6196  0.2945
 3441TIP3    H131814   2.075   0.757   5.336  1.2854 -1.4286 -1.1772
 3441TIP3    H231815   1.948   0.749   5.254 -0.6805  0.0159  1.5539
 3442TIP3   OH231816   6.741   1.221  13.074 -0.5953 -0.0575  0.3478
 3442TIP3    H131817   6.730   1.307  13.034  0.1594 -0.5051 -0.9025
 3442TIP3    H231818   6.704   1.160  13.011 -3.3240 -0.5520  2.2573
 3443TIP3   OH231819   6.439   5.217   6.286 -0.3376  0.3098  0.2680
 3443TIP3    H131820   6.500   5.155   6.245  1.2909  1.5047  0.7380
 3443TIP3    H231821   6.382   5.163   6.340  1.0948 -0.7960  0.7285
 3444TIP3   OH231822   6.020   2.659  16.629 -0.5577  0.0772  0.1847
 3444TIP3    H131823   5.969   2.674  16.550 -0.2216 -0.8037 -0.2135
 3444TIP3    H231824   5.959   2.675  16.701 -0.9862  0.4533 -0.2523
 3445TIP3   OH231825   0.383   1.351   2.930 -0.4207  0.0468 -0.3263
 3445TIP3    H131826   0.421   1.438   2.923 -0.3787 -0.0461 -1.3274
 3445TIP3    H231827   0.438   1.306   2.994 -0.7554  0.9040  0.6007
 3446TIP3   OH231828   4.908   1.354   4.808  0.0960 -0.4591  0.5340
 3446TIP3    H131829   4.885   1.307   4.888  0.7149 -1.5613  0.0941
 3446TIP3    H231830   4.824   1.379   4.769 -0.2667 -1.4864  0.6311
 3447TIP3   OH231831   2.798   2.953  15.584 -0.4485  0.1611 -0.5069
 3447TIP3    H131832   2.741   2.899  15.638 -0.4963  0.7840  0.0771
 3447TIP3    H231833   2.873   2.897  15.564 -0.2773  0.0185  0.4713
 3448TIP3   OH231834   2.509   6.721   6.298 -0.3128 -0.4070  0.3490
 3448TIP3    H131835   2.454   6.653   6.258  0.1041  0.5045 -1.9570
 3448TIP3    H231836   2.448   6.787   6.329 -0.6583 -1.2022  1.4174
 3449TIP3   OH231837   2.307   0.816  14.873 -0.3998 -0.4312 -0.1057
 3449TIP3    H131838   2.319   0.881  14.804  0.5054  0.0927  0.5292
 3449TIP3    H231839   2.242   0.855  14.932 -2.3858 -1.5498 -1.4378
 3450TIP3   OH231840   1.127   2.132  14.361 -0.0999  0.2607 -0.6463
 3450TIP3    H131841   1.039   2.096  14.367  0.4904 -1.0296  1.4166
 3450TIP3    H231842   1.119   2.222  14.393 -0.4076 -0.4811  1.5554
 3451TIP3   OH231843   1.369   5.098  16.916 -0.1166 -0.2165 -0.0292
 3451TIP3    H131844   1.292   5.063  16.872 -1.0584 -0.1524  1.4822
 3451TIP3    H231845   1.380   5.186  16.880 -0.0978 -0.6087 -1.0117
 3452TIP3   OH231846   1.509   0.051  11.421  0.6160  0.3814  0.2243
 3452TIP3    H131847   1.515   0.138  11.382  1.0519  1.3727  2.3493
 3452TIP3    H231848   1.569  -0.003  11.370  1.4325  1.7005 -0.2479
 3453TIP3   OH231849   4.324   2.583   5.701  0.4740 -0.0039  0.2931
 3453TIP3    H131850   4.352   2.527   5.629  1.8688 -0.4534  1.1334
 3453TIP3    H231851   4.251   2.537   5.741  0.4474 -0.3244 -0.1216
 3454TIP3   OH231852   0.469   3.934  10.865  0.0886  0.0856 -0.1796
 3454TIP3    H131853   0.508   4.019  10.882 -1.5858  0.4526  2.3136
 3454TIP3    H231854   0.387   3.954  10.819  0.2370 -0.2822 -0.6158
 3455TIP3   OH231855   0.908   4.892   1.103 -0.1022  0.0014 -0.0163
 3455TIP3    H131856   0.991   4.906   1.148  0.8862  1.7676 -2.1818
 3455TIP3    H231857   0.921   4.811   1.053  1.0222  1.0947 -1.6130
 3456TIP3   OH231858   0.675   4.701   4.382 -0.3085  0.5481  0.0791
 3456TIP3    H131859   0.694   4.707   4.289  0.4663  0.2103  0.2070
 3456TIP3    H231860   0.729   4.770   4.422  2.1167 -1.5289  0.6380
 3457TIP3   OH231861   0.288   3.883   2.293  0.2423 -0.2690 -0.2762
 3457TIP3    H131862   0.217   3.901   2.354 -0.0955  0.5886 -0.9091
 3457TIP3    H231863   0.284   3.788   2.279  0.0529 -0.4105  0.6878
 3458TIP3   OH231864   1.418   5.775  16.585 -0.4037 -0.4070 -0.3210
 3458TIP3    H131865   1.496   5.825  16.608 -0.1545  0.6772 -3.1650
 3458TIP3    H231866   1.348   5.815  16.636  0.8719 -1.8226  2.7992
 3459TIP3   OH231867   5.123   1.312  12.212 -0.0182 -0.2804  0.1199
 3459TIP3    H131868   5.176   1.281  12.286 -0.6463 -1.5161  0.0803
 3459TIP3    H231869   5.045   1.350  12.253 -0.8636 -1.9177  0.1012
 3460TIP3   OH231870   3.045   4.604  16.332 -0.4006 -0.5942 -0.5236
 3460TIP3    H131871   3.067   4.567  16.246 -0.2717  3.4002 -2.4547
 3460TIP3    H231872   2.988   4.678  16.312  2.0082  2.3813  2.4760
 3461TIP3   OH231873   2.181   1.023  11.721  0.1777  0.5440 -0.0967
 3461TIP3    H131874   2.220   0.941  11.690 -0.5681  0.0182  0.3224
 3461TIP3    H231875   2.097   1.029  11.674 -0.6099  0.1293  1.2043
 3462TIP3   OH231876   4.664   3.056  11.853 -0.1111 -0.4914  0.3289
 3462TIP3    H131877   4.688   3.102  11.773 -0.7786 -0.0521  0.3798
 3462TIP3    H231878   4.742   3.065  11.909 -0.2882  0.7562  0.4165
 3463TIP3   OH231879   0.268   6.287  15.514  0.3198 -0.1534  0.2733
 3463TIP3    H131880   0.341   6.285  15.452 -0.4042 -1.3682 -0.6062
 3463TIP3    H231881   0.275   6.204  15.562  0.9452  0.8297  1.9532
 3464TIP3   OH231882   1.871   5.041  12.613 -0.2308 -0.1956  0.1213
 3464TIP3    H131883   1.962   5.032  12.583 -0.7234  1.4053 -2.1455
 3464TIP3    H231884   1.877   5.095  12.692  0.8695 -1.3218  0.8406
 3465TIP3   OH231885   6.042   5.499  14.760  0.1431 -0.7660  0.0094
 3465TIP3    H131886   6.108   5.502  14.691  0.1153 -0.7658 -0.0168
 3465TIP3    H231887   5.976   5.562  14.734  0.3806 -0.3919  0.2906
 3466TIP3   OH231888   5.050   1.664  11.508 -0.1420 -0.0672 -0.3762
 3466TIP3    H131889   5.073   1.571  11.509  0.4090  0.0716  0.7218
 3466TIP3    H231890   5.074   1.693  11.420 -0.0630 -0.8985 -0.6396
 3467TIP3   OH231891   1.396   1.979   1.593  0.6901  0.0736 -0.2766
 3467TIP3    H131892   1.454   1.906   1.614 -0.3566 -0.3307  1.4658
 3467TIP3    H231893   1.445   2.032   1.531  2.0766 -1.3209 -0.4291
 3468TIP3   OH231894   2.205   0.088  11.885  0.4629 -0.3964 -0.0442
 3468TIP3    H131895   2.133   0.105  11.825 -0.9696 -0.7485  1.5172
 3468TIP3    H231896   2.271   0.153  11.861 -0.7111  0.5167 -0.9371
 3469TIP3   OH231897   1.100   6.822   1.476  0.3336  0.2113 -0.5940
 3469TIP3    H131898   1.033   6.816   1.408 -0.2876 -0.5770  0.0703
 3469TIP3    H231899   1.060   6.784   1.554  0.9162  1.3980  0.3254
 3470TIP3   OH231900   1.525   2.335   5.499 -0.0438 -0.6384  0.2076
 3470TIP3    H131901   1.516   2.427   5.521  1.9299 -0.5416  0.8233
 3470TIP3    H231902   1.524   2.289   5.583  0.9181 -0.9476  0.0746
 3471TIP3   OH231903   0.971   5.236   1.385  0.3100 -0.6970 -0.2518
 3471TIP3    H131904   0.976   5.285   1.303  0.7593  0.3754  0.4019
 3471TIP3    H231905   0.877   5.234   1.405  0.3701  1.3764  0.5412
 3472TIP3   OH231906   6.250   5.959   2.153 -0.2992  0.2061  0.4646
 3472TIP3    H131907   6.156   5.951   2.171 -0.3835 -2.4324 -0.6152
 3472TIP3    H231908   6.291   5.966   2.239 -1.5552  4.3401  0.9107
 3473TIP3   OH231909   3.874   2.646  11.849  0.1397  0.2670  0.0555
 3473TIP3    H131910   3.889   2.656  11.943  0.5234  0.0662  0.0191
 3473TIP3    H231911   3.863   2.735  11.816 -1.2962  0.2776  0.4863
 3474TIP3   OH231912   5.694   2.277   1.245  0.0449  0.7552  0.2606
 3474TIP3    H131913   5.659   2.353   1.200  0.7073  0.9415  0.0434
 3474TIP3    H231914   5.622   2.245   1.299  0.1813  2.3957  1.4753
 3475TIP3   OH231915   2.131   2.901  12.864  0.4456  0.0347 -0.4054
 3475TIP3    H131916   2.104   2.821  12.818 -2.1804  0.5225  0.1684
 3475TIP3    H231917   2.063   2.915  12.930  1.4087  2.1929  0.2023
 3476TIP3   OH231918   0.087   5.107   1.722 -0.1226 -0.3381  0.0347
 3476TIP3    H131919   0.121   5.061   1.645 -1.1162 -3.5933  1.3489
 3476TIP3    H231920  -0.005   5.123   1.702 -0.3197 -0.9611  0.4075
 3477TIP3   OH231921   2.040   6.210   3.414 -0.3646 -0.3373 -0.2263
 3477TIP3    H131922   1.963   6.172   3.458 -1.7370  1.1923 -1.1935
 3477TIP3    H231923   2.073   6.275   3.476  0.1707 -0.9921  0.1885
 3478TIP3   OH231924   5.289   0.474   1.993 -0.0822 -0.1241 -0.5046
 3478TIP3    H131925   5.382   0.493   1.982 -0.1053 -0.5887 -1.6298
 3478TIP3    H231926   5.259   0.536   2.060  1.3179 -0.8798  0.8788
 3479TIP3   OH231927   6.317   4.088  13.165  0.4481 -0.4273 -0.5377
 3479TIP3    H131928   6.359   4.010  13.201 -2.8863 -1.2689  1.9619
 3479TIP3    H231929   6.239   4.055  13.119  0.1098  1.3117 -1.3031
 3480TIP3   OH231930   2.683   0.311  14.232 -0.6614  0.4652  0.0811
 3480TIP3    H131931   2.768   0.289  14.272 -0.3114  2.8458  0.7847
 3480TIP3    H231932   2.624   0.322  14.306 -1.1881  0.4344 -0.3268
 3481TIP3   OH231933   0.104   0.283   3.386  0.3506  0.2363 -0.4319
 3481TIP3    H131934   0.125   0.296   3.478  0.6513 -3.7535  0.2565
 3481TIP3    H231935   0.028   0.339   3.370  1.4536  2.4641  1.6462
 3482TIP3   OH231936   5.639   0.919  16.399  0.2038 -0.4046 -0.0382
 3482TIP3    H131937   5.620   0.966  16.317 -1.8588 -0.6095  0.2756
 3482TIP3    H231938   5.554   0.907  16.440  1.0765 -1.3741  1.5819
 3483TIP3   OH231939   0.177   4.968   5.432  0.2685  0.2178  0.2318
 3483TIP3    H131940   0.130   4.895   5.391  1.2019 -0.9266  1.1039
 3483TIP3    H231941   0.117   5.042   5.426 -0.7448 -0.6315 -0.6311
 3484TIP3   OH231942   1.134   4.433  12.776 -0.0057  0.0480  0.2978
 3484TIP3    H131943   1.188   4.369  12.730 -0.3245  1.0659 -1.6058
 3484TIP3    H231944   1.197   4.496  12.811  0.1767 -0.1034  0.2489
 3485TIP3   OH231945   5.119   0.995   3.943 -0.5172 -0.7347  1.0302
 3485TIP3    H131946   5.042   1.001   3.886 -0.1938 -2.2178  0.3854
 3485TIP3    H231947   5.175   1.068   3.917 -1.7055  0.3985  1.5470
 3486TIP3   OH231948   4.673   2.030   5.920 -0.3023 -0.3611 -0.0640
 3486TIP3    H131949   4.715   1.945   5.932 -0.5586 -0.4391  0.2634
 3486TIP3    H231950   4.603   2.032   5.984 -0.0372  0.2694  0.2100
 3487TIP3   OH231951   2.835   4.440  10.648 -0.1069 -0.0622  0.2020
 3487TIP3    H131952   2.842   4.347  10.670 -0.8931  0.1530  1.4559
 3487TIP3    H231953   2.766   4.444  10.582 -1.0226 -0.2510  1.1176
 3488TIP3   OH231954   6.320   6.301  14.193  0.6506 -0.3154  0.3425
 3488TIP3    H131955   6.306   6.319  14.100  1.4304  0.0967  0.3053
 3488TIP3    H231956   6.390   6.236  14.195  3.4805  2.5213  0.7328
 3489TIP3   OH231957   5.439   5.340   4.080 -0.1172  0.4809  0.0070
 3489TIP3    H131958   5.411   5.250   4.066  1.0203 -0.3754  2.5968
 3489TIP3    H231959   5.530   5.341   4.053  0.1574  0.5612  0.9009
 3490TIP3   OH231960   3.795   6.258  15.334  0.0136 -0.1517 -0.3855
 3490TIP3    H131961   3.712   6.302  15.352 -0.2543 -1.1019  0.7968
 3490TIP3    H231962   3.856   6.329  15.317 -1.1735  0.5571 -1.9795
 3491TIP3   OH231963   4.247   3.576  12.762  0.4816  0.1523 -0.2857
 3491TIP3    H131964   4.313   3.508  12.773 -0.9314 -1.2775 -0.2733
 3491TIP3    H231965   4.233   3.611  12.850 -0.4767 -1.2429  0.1574
 3492TIP3   OH231966   4.048   2.215  13.544 -0.1012 -0.2881 -0.3138
 3492TIP3    H131967   4.128   2.188  13.590 -0.7410 -0.2572  0.8610
 3492TIP3    H231968   4.032   2.304  13.576 -0.1758  0.0180 -1.1660
 3493TIP3   OH231969   1.427   0.637   2.710 -0.7699 -0.3017  0.2721
 3493TIP3    H131970   1.512   0.669   2.680 -1.8743  0.4021 -2.3305
 3493TIP3    H231971   1.376   0.716   2.725 -1.2347 -0.7394  1.0549
 3494TIP3   OH231972   3.373   6.806   0.348  0.3471 -0.4660 -0.5470
 3494TIP3    H131973   3.322   6.792   0.428 -0.2065 -1.3642 -1.0421
 3494TIP3    H231974   3.440   6.738   0.349  0.0024 -0.8217 -1.1072
 3495TIP3   OH231975   1.317   2.811   4.810  0.1645  0.1188 -0.3051
 3495TIP3    H131976   1.327   2.738   4.871 -0.5044 -0.0680 -0.4018
 3495TIP3    H231977   1.339   2.889   4.861 -0.0864 -0.0631  0.0841
 3496TIP3   OH231978   3.764   5.636   4.822 -0.4531 -0.5015 -0.5011
 3496TIP3    H131979   3.712   5.638   4.742  2.9879 -2.4449 -3.0617
 3496TIP3    H231980   3.757   5.547   4.854  0.5549 -0.5500 -0.3826
 3497TIP3   OH231981   4.087   4.525  15.522  0.1813  0.1215 -0.3539
 3497TIP3    H131982   4.119   4.437  15.544 -0.4060 -0.8029 -2.7873
 3497TIP3    H231983   4.166   4.579  15.523  0.8872 -0.8556 -0.5823
 3498TIP3   OH231984   5.444   2.007   3.989  0.1042  0.5776 -0.0009
 3498TIP3    H131985   5.444   1.925   3.940  2.1139 -0.5592  1.7153
 3498TIP3    H231986   5.533   2.042   3.978  0.1776  1.0005  1.6053
 3499TIP3   OH231987   1.565   4.297   2.199 -0.1425  0.5992  0.2794
 3499TIP3    H131988   1.527   4.233   2.258 -3.6380  0.3186 -1.9541
 3499TIP3    H231989   1.559   4.380   2.246 -1.8531  0.2275  0.7877
 3500TIP3   OH231990   3.617   4.325  17.219 -0.0685 -0.0651  1.0476
 3500TIP3    H131991   3.654   4.284  17.141 -0.6000 -1.4491  1.4742
 3500TIP3    H231992   3.560   4.394  17.186  0.2861 -0.1439  0.2551
 3501TIP3   OH231993   4.084   0.502  11.033  0.1219  0.1633  0.4196
 3501TIP3    H131994   4.086   0.407  11.025 -2.5717  0.0851 -0.3332
 3501TIP3    H231995   4.144   0.533  10.965  1.9380 -0.9662  1.4457
 3502TIP3   OH231996   6.334   6.797  16.119 -0.2217 -0.4695 -0.8717
 3502TIP3    H131997   6.349   6.713  16.163 -0.2305  0.3439  0.7251
 3502TIP3    H231998   6.400   6.856  16.155  1.1176 -0.2502 -3.4710
 3503TIP3   OH231999   6.276   2.945  15.083 -0.3659 -0.5914 -0.2642
 3503TIP3    H132000   6.343   2.982  15.025 -0.8035  1.7337  0.5941
 3503TIP3    H232001   6.193   2.961  15.038 -0.6167  0.1844  0.4436
 3504TIP3   OH232002   4.933   0.662   5.819  0.2635 -0.1643 -0.5913
 3504TIP3    H132003   4.943   0.746   5.863 -1.3092 -0.0099 -0.4516
 3504TIP3    H232004   5.011   0.613   5.842  0.5962  0.7894  0.3893
 3505TIP3   OH232005   1.400   0.639  11.231  0.9698  0.1317  0.3572
 3505TIP3    H132006   1.374   0.730  11.246 -0.1785  0.1494 -1.4590
 3505TIP3    H232007   1.406   0.601  11.319  0.7981  1.7670  1.1166
 3506TIP3   OH232008   0.802   6.375  14.403 -0.6826 -0.0136  0.2383
 3506TIP3    H132009   0.781   6.345  14.492  0.0270  1.0321  0.7837
 3506TIP3    H232010   0.783   6.300  14.347  0.4979 -1.2826  1.4625
 3507TIP3   OH232011   1.242   1.159  15.555 -0.0104  0.2521  0.3274
 3507TIP3    H132012   1.176   1.227  15.546 -0.8305 -0.1790  2.3817
 3507TIP3    H232013   1.297   1.189  15.628  0.2090 -0.8078  0.6219
 3508TIP3   OH232014   0.666   0.076   5.789 -0.0982 -0.0914  0.4043
 3508TIP3    H132015   0.748   0.041   5.824  0.1495 -0.5554 -0.5861
 3508TIP3    H232016   0.599   0.013   5.816  0.3780 -1.5347 -1.5682
 3509TIP3   OH232017   1.242   4.199   6.007  0.7550 -0.0093  0.7659
 3509TIP3    H132018   1.235   4.282   5.960 -2.4535  0.0492  1.1412
 3509TIP3    H232019   1.168   4.148   5.976  1.5291 -1.9870  2.0139
 3510TIP3   OH232020   5.918   2.160   1.345 -0.4309  0.0755  0.0214
 3510TIP3    H132021   5.840   2.200   1.306 -0.2498 -0.6203 -1.0917
 3510TIP3    H232022   5.953   2.104   1.276  2.0149  1.6382 -0.1495
 3511TIP3   OH232023   3.262   0.998  15.820 -0.6308 -1.1309 -0.0399
 3511TIP3    H132024   3.291   1.087  15.802  0.7913 -1.4668  0.5027
 3511TIP3    H232025   3.176   1.009  15.861 -1.0998 -0.0945 -1.2233
 3512TIP3   OH232026   3.334   4.728  10.463 -0.1742 -0.0324 -0.0746
 3512TIP3    H132027   3.272   4.777  10.517 -0.6148  0.7819 -1.2783
 3512TIP3    H232028   3.391   4.684  10.526  0.6036  2.4441  1.0886
 3513TIP3   OH232029   3.785   4.430  11.387 -0.0456  0.4929  0.5368
 3513TIP3    H132030   3.779   4.513  11.434  1.0683  0.0136  1.5857
 3513TIP3    H232031   3.818   4.368  11.452 -0.2668 -0.6411 -0.3925
 3514TIP3   OH232032   6.321   5.488  12.707 -0.0881 -0.3285  0.4240
 3514TIP3    H132033   6.258   5.560  12.714  0.4432  0.2278 -0.3960
 3514TIP3    H232034   6.398   5.518  12.756 -0.3158 -0.8669  1.1334
 3515TIP3   OH232035   3.225   0.468  14.101 -0.2854  0.3858  0.2949
 3515TIP3    H132036   3.198   0.536  14.162 -1.7662 -0.8998  1.1537
 3515TIP3    H232037   3.219   0.387  14.151  0.9788 -0.4447 -0.8221
 3516TIP3   OH232038   1.799   3.527   3.478  0.3952 -0.3749 -0.5237
 3516TIP3    H132039   1.768   3.546   3.389 -2.4130  2.2635  0.8790
 3516TIP3    H232040   1.873   3.586   3.490 -0.8145  1.1469 -0.2986
 3517TIP3   OH232041   1.040   1.535  10.425 -0.0141  0.2142 -0.0084
 3517TIP3    H132042   0.984   1.489  10.488  1.0266  0.6937  1.3334
 3517TIP3    H232043   1.075   1.466  10.370 -0.2088 -0.3508  0.5603
 3518TIP3   OH232044   4.284   0.813   6.251 -0.3418 -0.1092 -0.2155
 3518TIP3    H132045   4.191   0.815   6.272 -0.3740 -1.6570 -0.0997
 3518TIP3    H232046   4.287   0.787   6.159 -0.0438  1.3487 -0.6440
 3519TIP3   OH232047   3.060   2.180   1.576  0.1795  0.4436 -0.4673
 3519TIP3    H132048   2.978   2.130   1.566  0.6528 -0.4396 -0.0284
 3519TIP3    H232049   3.083   2.171   1.668  1.3708 -0.2862 -0.8148
 3520TIP3   OH232050   1.080   0.693  15.565  0.1397 -0.2970  0.1797
 3520TIP3    H132051   1.108   0.611  15.525  0.9338  0.8502 -1.7464
 3520TIP3    H232052   0.986   0.698  15.547  0.1168 -0.7094  0.1754
 3521TIP3   OH232053   0.448   0.965   5.655 -0.5979  0.2513  0.0622
 3521TIP3    H132054   0.467   1.018   5.577  0.7908 -0.8189 -0.3607
 3521TIP3    H232055   0.426   0.878   5.621 -0.8594  0.0034  0.8332
 3522TIP3   OH232056   5.580   6.807  13.983  0.4302  0.1244 -0.3640
 3522TIP3    H132057   5.619   6.894  13.995 -0.2334  0.4385 -0.4411
 3522TIP3    H232058   5.652   6.746  14.000  1.2663  0.7053 -1.6686
 3523TIP3   OH232059   4.962   0.655   2.747 -0.4680  0.0812  1.0541
 3523TIP3    H132060   4.915   0.691   2.822 -0.3840  1.1034  0.6305
 3523TIP3    H232061   5.042   0.617   2.784 -1.3234 -1.1476  1.7026
 3524TIP3   OH232062   5.382   2.198   0.881 -0.4029 -0.2537 -0.8460
 3524TIP3    H132063   5.448   2.144   0.925 -1.0990 -0.6588 -0.2743
 3524TIP3    H232064   5.432   2.269   0.840  0.3730 -0.4941 -0.3300
 3525TIP3   OH232065   2.044   2.246   1.517  0.6088  0.0355 -0.0483
 3525TIP3    H132066   2.091   2.164   1.506 -0.1857 -0.5140  0.5603
 3525TIP3    H232067   2.093   2.293   1.585  1.7547  0.6029 -1.2403
 3526TIP3   OH232068   5.428   6.524   1.133  0.3178  0.6201 -0.0907
 3526TIP3    H132069   5.351   6.545   1.185 -1.0501  2.0053 -2.4952
 3526TIP3    H232070   5.405   6.442   1.089  0.0007  1.2667 -1.1544
 3527TIP3   OH232071   2.300   3.412  16.931 -0.4243  1.2088 -0.6641
 3527TIP3    H132072   2.309   3.439  16.839  1.4206 -0.3563 -0.9954
 3527TIP3    H232073   2.376   3.451  16.974 -0.2600  0.3737 -0.1988
 3528TIP3   OH232074   6.366   1.169   2.937 -0.0035 -0.3511  0.6706
 3528TIP3    H132075   6.309   1.100   2.970 -0.4916 -0.0739  0.4087
 3528TIP3    H232076   6.334   1.249   2.979  0.8384 -0.3400  1.3211
 3529TIP3   OH232077   1.066   6.295  14.243 -0.4185  0.4311 -0.2042
 3529TIP3    H132078   1.127   6.364  14.268  1.8184 -1.4801 -0.0294
 3529TIP3    H232079   1.115   6.240  14.182 -1.9642 -1.2207 -0.0524
 3530TIP3   OH232080   3.801   0.326  11.959 -0.3939  0.2816 -0.2085
 3530TIP3    H132081   3.740   0.347  11.889 -1.0095 -0.3600  0.1129
 3530TIP3    H232082   3.749   0.273  12.020  0.9693 -1.9773 -0.8709
 3531TIP3   OH232083   6.576   1.380  15.390 -0.3228  0.1361 -0.3410
 3531TIP3    H132084   6.652   1.402  15.337 -1.0946  2.4972 -0.6101
 3531TIP3    H232085   6.575   1.285  15.393  1.6802  0.0145 -1.7058
 3532TIP3   OH232086   4.598   5.517  14.326  0.3415  0.3640  0.7403
 3532TIP3    H132087   4.636   5.434  14.299 -2.7344 -1.0364  0.3558
 3532TIP3    H232088   4.667   5.559  14.377  2.6966 -1.4808 -0.7059
 3533TIP3   OH232089   4.187   3.482   5.093 -0.2158  0.3275 -0.2527
 3533TIP3    H132090   4.233   3.453   5.172 -0.4377  1.0023  0.1329
 3533TIP3    H232091   4.100   3.444   5.102  0.2298 -0.9111 -0.9593
 3534TIP3   OH232092   1.447   6.229   5.349  0.4410  0.5837  0.0386
 3534TIP3    H132093   1.472   6.306   5.401  1.7222  1.4671 -1.7699
 3534TIP3    H232094   1.361   6.251   5.314  0.2371  0.6295  0.5609
 3535TIP3   OH232095   2.881   4.390   2.336 -1.1462  0.1708  0.2765
 3535TIP3    H132096   2.956   4.391   2.276 -1.5088 -0.8762 -0.2112
 3535TIP3    H232097   2.805   4.373   2.279 -1.6255  0.1732  0.9055
 3536TIP3   OH232098   5.951   6.155  13.754  0.1855 -0.2079 -0.6984
 3536TIP3    H132099   5.942   6.066  13.787  1.4172 -0.3691 -0.7646
 3536TIP3    H232100   5.897   6.208  13.813 -0.9142 -1.0317 -0.9211
 3537TIP3   OH232101   3.238   1.685  15.534  0.1344  0.0888  0.0443
 3537TIP3    H132102   3.191   1.711  15.613  1.0483 -0.0518  0.6507
 3537TIP3    H232103   3.298   1.758  15.516  1.5908 -0.8457  0.8486
 3538TIP3   OH232104   5.930   0.149   5.684  0.4505 -0.8725 -0.1410
 3538TIP3    H132105   5.899   0.226   5.637  0.1898 -1.0036 -0.1884
 3538TIP3    H232106   6.019   0.171   5.710  0.4895 -0.6803 -0.4317
 3539TIP3   OH232107   1.082   0.512   4.565 -0.5296  0.0501  0.2538
 3539TIP3    H132108   1.032   0.501   4.485 -1.6268 -0.7112  1.0112
 3539TIP3    H232109   1.113   0.602   4.563 -1.8171  0.4913 -0.3024
 3540TIP3   OH232110   4.930   2.516   5.088  0.1281 -0.7169  0.1134
 3540TIP3    H132111   4.869   2.494   5.017 -1.2441 -0.4869  1.1818
 3540TIP3    H232112   5.003   2.560   5.044 -1.4059  0.8523 -1.0164
 3541TIP3   OH232113   5.611   4.140  16.814  0.4517 -0.3535 -0.1024
 3541TIP3    H132114   5.591   4.092  16.734  0.8243 -1.7696  0.6294
 3541TIP3    H232115   5.629   4.073  16.879  1.9368  0.7918  0.7278
 3542TIP3   OH232116   1.236   2.473   4.202 -0.1566  0.4104 -0.1227
 3542TIP3    H132117   1.307   2.410   4.188 -1.2535 -1.0421  0.5958
 3542TIP3    H232118   1.234   2.486   4.296  1.2103  2.9683 -0.3769
 3543TIP3   OH232119   4.564   5.501  13.227  0.5601  0.3368 -0.1723
 3543TIP3    H132120   4.551   5.546  13.143  0.2385  1.4608  0.4627
 3543TIP3    H232121   4.583   5.411  13.203 -0.3835  0.4469 -1.4340
 3544TIP3   OH232122   3.289   5.882  14.877 -0.4862 -0.2862  0.2600
 3544TIP3    H132123   3.258   5.922  14.958 -0.6681 -0.5968  0.3454
 3544TIP3    H232124   3.256   5.939  14.807 -1.9315 -1.0278  0.2996
 3545TIP3   OH232125   5.519   5.072   5.760 -0.7990  0.2688  0.2593
 3545TIP3    H132126   5.515   5.158   5.803 -0.9209  0.4293 -0.0695
 3545TIP3    H232127   5.583   5.023   5.810 -1.1199  0.3708  0.7787
 3546TIP3   OH232128   5.600   5.459   3.250 -0.3650 -0.1067  0.0625
 3546TIP3    H132129   5.580   5.497   3.335 -0.2072 -1.5232  0.7436
 3546TIP3    H232130   5.515   5.444   3.209 -0.4432  0.3874  0.0322
 3547TIP3   OH232131   1.564   0.870  13.386 -0.8559  0.0404 -0.5540
 3547TIP3    H132132   1.633   0.814  13.351 -1.5388 -0.2588 -1.4706
 3547TIP3    H232133   1.606   0.955  13.398 -0.1512 -0.3214 -0.4124
 3548TIP3   OH232134   4.897   6.012   1.180  0.1511  0.1352 -0.4574
 3548TIP3    H132135   4.815   6.008   1.131 -0.7568 -0.3978  1.0382
 3548TIP3    H232136   4.874   6.055   1.262  1.2344 -0.5319  0.2233
 3549TIP3   OH232137   1.206   1.569   2.462  0.4405 -0.2576 -0.5065
 3549TIP3    H132138   1.241   1.508   2.527  0.0233 -0.5408 -0.5436
 3549TIP3    H232139   1.146   1.625   2.511 -0.3374 -0.8605 -0.7535
 3550TIP3   OH232140   0.896   4.961   0.497 -0.7265 -0.0334 -0.0015
 3550TIP3    H132141   0.847   4.951   0.416  0.0560 -0.9793 -0.3869
 3550TIP3    H232142   0.923   4.872   0.519 -1.2962  0.1560  1.5418
 3551TIP3   OH232143   6.196   6.212   4.243 -0.2018  0.1034 -0.1885
 3551TIP3    H132144   6.166   6.302   4.233 -0.7056 -0.1968 -1.6679
 3551TIP3    H232145   6.243   6.211   4.326 -0.2236  1.7155 -0.1311
 3552TIP3   OH232146   1.509   5.265  13.189 -0.3673  0.0816 -0.2549
 3552TIP3    H132147   1.511   5.172  13.212  0.5544  0.2503  0.3964
 3552TIP3    H232148   1.416   5.288  13.195 -0.4580 -0.4860  0.9238
 3553TIP3   OH232149   1.995   6.117  12.922  0.1340  0.4835  0.3620
 3553TIP3    H132150   1.902   6.106  12.906 -0.3545  0.9054  2.5993
 3553TIP3    H232151   2.002   6.196  12.975  1.8143  0.7154 -0.1430
 3554TIP3   OH232152   3.338   1.377   5.474 -0.1475  0.1430  0.0299
 3554TIP3    H132153   3.293   1.410   5.396  0.8778 -1.8230 -1.4762
 3554TIP3    H232154   3.424   1.351   5.442  1.1469  1.3834  2.3130
 3555TIP3   OH232155   3.783   4.355   3.296 -0.3847  0.0341  0.0888
 3555TIP3    H132156   3.845   4.427   3.309 -1.2987  0.6740  1.1601
 3555TIP3    H232157   3.698   4.398   3.286 -0.6187 -0.7984 -1.8609
 3556TIP3   OH232158   0.822   1.018  11.286 -0.2100 -0.4196 -0.0215
 3556TIP3    H132159   0.745   1.060  11.324 -0.8739  0.2942 -2.0346
 3556TIP3    H232160   0.894   1.080  11.304 -0.4639 -0.2074  0.2673
 3557TIP3   OH232161   6.418   4.825   0.137 -0.3428 -0.2387 -0.2051
 3557TIP3    H132162   6.325   4.810   0.154 -0.9924  3.3661  0.0466
 3557TIP3    H232163   6.461   4.799   0.219 -1.4011  0.2790  0.5354
 3558TIP3   OH232164   5.650   5.454  11.371 -0.3458 -0.6494  0.2706
 3558TIP3    H132165   5.671   5.423  11.283  1.2590 -1.5317  0.9173
 3558TIP3    H232166   5.585   5.523  11.358  0.2165 -0.4407 -1.6238
 3559TIP3   OH232167   4.895   3.652   2.998  0.3447 -0.0236 -0.3958
 3559TIP3    H132168   4.858   3.740   2.994  2.2066  0.7547 -1.9559
 3559TIP3    H232169   4.990   3.666   3.006  0.5391 -1.9175  1.5090
 3560TIP3   OH232170   0.382   0.018  14.537 -0.5465  0.2639 -0.2084
 3560TIP3    H132171   0.379   0.113  14.548 -0.9417  0.3898 -1.2909
 3560TIP3    H232172   0.304  -0.013  14.583 -1.1578  0.6014 -0.9838
 3561TIP3   OH232173   4.490   1.447  14.416 -0.4840 -0.1826  0.1357
 3561TIP3    H132174   4.520   1.373  14.363 -0.2742  2.2178 -3.4449
 3561TIP3    H232175   4.410   1.477  14.374 -0.6995  1.5035  1.5812
 3562TIP3   OH232176   2.209   2.020  14.627  0.2342  0.4317 -0.2538
 3562TIP3    H132177   2.258   2.042  14.548  0.3170 -2.4057 -1.1224
 3562TIP3    H232178   2.125   1.987  14.594 -0.6814  1.4162  1.0106
 3563TIP3   OH232179   4.859   0.423   0.669 -0.1235  0.2803 -0.9215
 3563TIP3    H132180   4.891   0.417   0.579  1.1424  3.8333 -0.8519
 3563TIP3    H232181   4.906   0.496   0.707 -0.3983 -1.2619  2.8224
 3564TIP3   OH232182   1.031   4.204  10.879  0.0615  0.3582  0.1545
 3564TIP3    H132183   1.041   4.111  10.860  2.3284  0.7259 -0.7608
 3564TIP3    H232184   0.971   4.236  10.811  1.2142 -0.0156 -1.0945
 3565TIP3   OH232185   3.551   3.953  14.419 -0.3770  0.2865  0.2312
 3565TIP3    H132186   3.461   3.985  14.427 -1.4766 -2.3320 -0.4577
 3565TIP3    H232187   3.553   3.909  14.334  1.6409  0.4809  0.1414
 3566TIP3   OH232188   1.812   0.350  12.600 -1.0018 -0.1051 -0.0539
 3566TIP3    H132189   1.812   0.317  12.689  1.0278  1.4989  0.6376
 3566TIP3    H232190   1.725   0.388  12.588 -0.7847  1.1397  1.8828
 3567TIP3   OH232191   0.268   2.671  15.544  0.3420  0.1819  0.2513
 3567TIP3    H132192   0.240   2.736  15.608  1.1374  1.0856 -0.2992
 3567TIP3    H232193   0.211   2.596  15.560  1.1689 -0.0218  2.6997
 3568TIP3   OH232194   0.090   4.429  15.758  0.6331 -0.1894 -0.1595
 3568TIP3    H132195   0.019   4.364  15.765 -0.3986  0.1213 -4.6109
 3568TIP3    H232196   0.168   4.377  15.740  1.0268 -0.3748  1.8678
 3569TIP3   OH232197   1.132   4.820   0.644  0.2240  0.0218 -1.0353
 3569TIP3    H132198   1.202   4.789   0.586  0.9823 -1.2435  0.5010
 3569TIP3    H232199   1.166   4.807   0.732 -0.8759  1.9774 -0.2619
 3570TIP3   OH232200   6.478   1.821  14.541 -0.0266  0.0036 -0.2498
 3570TIP3    H132201   6.405   1.873  14.507 -0.8263 -0.3766  0.8302
 3570TIP3    H232202   6.441   1.775  14.616  1.3712 -0.1119  0.3894
 3571TIP3   OH232203   2.683   6.529  12.710  0.4948 -0.0078  0.2418
 3571TIP3    H132204   2.682   6.557  12.802 -0.4575 -1.5587  0.7447
 3571TIP3    H232205   2.738   6.451  12.710 -0.5088 -0.7433 -0.2398
 3572TIP3   OH232206   2.725   0.825   3.957  0.9806 -0.2110  0.0225
 3572TIP3    H132207   2.796   0.889   3.962  0.3513  0.3796  2.2682
 3572TIP3    H232208   2.650   0.874   3.924  0.5535  0.2163  1.5504
 3573TIP3   OH232209   3.675   2.394   3.827  0.0673  0.3809  0.6344
 3573TIP3    H132210   3.719   2.391   3.742 -0.0948  0.1583  0.5593
 3573TIP3    H232211   3.588   2.429   3.809  0.5029  1.6439  0.9078
 3574TIP3   OH232212   4.087   4.450  10.788 -0.3738  0.0097  0.3014
 3574TIP3    H132213   4.123   4.378  10.736 -1.1649 -0.7280  0.7517
 3574TIP3    H232214   3.996   4.425  10.805  0.0665 -0.1858  2.7304
 3575TIP3   OH232215   4.643   4.816   5.474  0.0330  0.2358 -0.0779
 3575TIP3    H132216   4.561   4.856   5.444 -1.1341 -3.5491 -2.5993
 3575TIP3    H232217   4.620   4.725   5.492  3.4917 -0.6909  0.3649
 3576TIP3   OH232218   5.458   4.243  13.917 -0.0393  0.7760  0.3842
 3576TIP3    H132219   5.394   4.278  13.978 -0.3091  0.5328  0.2439
 3576TIP3    H232220   5.447   4.295  13.838 -0.3236  0.4889  0.2329
 3577TIP3   OH232221   3.389   2.541  14.774 -0.0027  0.1012 -0.4257
 3577TIP3    H132222   3.363   2.482  14.703 -1.8078 -1.4033  1.3894
 3577TIP3    H232223   3.434   2.485  14.837  0.0824  1.0581  0.3884
 3578TIP3   OH232224   6.528   2.226   6.271 -0.3817  0.8684 -0.1787
 3578TIP3    H132225   6.438   2.194   6.271  0.2323 -0.9931 -0.7807
 3578TIP3    H232226   6.582   2.147   6.269  1.2918  1.9254  0.7260
 3579TIP3   OH232227   6.566   5.807   2.530  0.2866  0.2235  0.2895
 3579TIP3    H132228   6.628   5.857   2.583 -0.6059 -0.7705  2.4001
 3579TIP3    H232229   6.483   5.815   2.576 -0.8463  0.3118 -1.6726
 3580TIP3   OH232230   2.802   4.572   1.191 -0.1004 -0.2133  0.0326
 3580TIP3    H132231   2.894   4.570   1.215 -0.2579 -3.6575  0.8881
 3580TIP3    H232232   2.802   4.559   1.096  0.3199 -2.1369  0.2675
 3581TIP3   OH232233   3.901   3.580   1.000  0.3081 -0.5938 -0.2496
 3581TIP3    H132234   3.924   3.605   1.089 -0.7383 -0.5049  0.0156
 3581TIP3    H232235   3.894   3.485   1.002 -2.2363 -0.4792  0.4681
 3582TIP3   OH232236   4.018   0.029  12.393 -0.3452 -0.3958  0.5220
 3582TIP3    H132237   3.939   0.081  12.381  0.0787  0.3686  0.9103
 3582TIP3    H232238   4.020  -0.030  12.319 -0.1425  1.0892 -0.7171
 3583TIP3   OH232239   3.967   6.350   5.712 -0.3035  0.5097  0.3110
 3583TIP3    H132240   3.912   6.332   5.788  0.7582  0.9068  1.2106
 3583TIP3    H232241   4.011   6.432   5.733  1.1330 -0.1284 -0.0535
 3584TIP3   OH232242   3.404   4.731  14.911  0.5965 -0.1269 -0.1863
 3584TIP3    H132243   3.486   4.762  14.872  0.0606  0.8616 -0.5727
 3584TIP3    H232244   3.349   4.709  14.836  0.1872  0.0952  0.0455
 3585TIP3   OH232245   2.883   5.159  15.222  0.1455  0.2161  0.1749
 3585TIP3    H132246   2.810   5.219  15.205 -0.8525 -0.0044  3.1061
 3585TIP3    H232247   2.884   5.100  15.146 -0.9545  1.8805 -1.2049
 3586TIP3   OH232248   4.297   2.649   0.432  0.0256  0.1881 -0.0896
 3586TIP3    H132249   4.270   2.728   0.479 -2.0335 -0.8202  0.5817
 3586TIP3    H232250   4.380   2.624   0.473  2.0321  3.1904 -1.9022
 3587TIP3   OH232251   1.527   6.514  15.919 -0.2033  0.2394 -0.2522
 3587TIP3    H132252   1.558   6.471  15.998  2.5159  2.5313  0.0801
 3587TIP3    H232253   1.468   6.583  15.950 -0.3245  0.1892 -0.3657
 3588TIP3   OH232254   3.705   6.134   0.769 -0.8115  0.1830 -0.5558
 3588TIP3    H132255   3.779   6.173   0.816 -0.6848  0.5917 -1.0984
 3588TIP3    H232256   3.654   6.208   0.738  0.4009  0.0190 -3.1668
 3589TIP3   OH232257   1.957   2.249  13.149  0.1435 -0.2686  0.2751
 3589TIP3    H132258   2.039   2.244  13.101  0.1213  0.3977  0.1504
 3589TIP3    H232259   1.889   2.229  13.085  0.1157  0.5962  0.0242
 3590TIP3   OH232260   3.336   0.240   4.445  0.1156  0.4873  0.4745
 3590TIP3    H132261   3.317   0.323   4.402  1.9579  0.4821 -0.4701
 3590TIP3    H232262   3.427   0.220   4.420 -0.6678 -2.4911 -0.4933
 3591TIP3   OH232263   1.755   4.657  11.529 -0.0765 -0.1053 -0.0151
 3591TIP3    H132264   1.746   4.741  11.483 -1.1692 -0.2179 -0.0369
 3591TIP3    H232265   1.679   4.654  11.587  1.3927  0.1561  2.0204
 3592TIP3   OH232266   1.647   4.194  16.700 -0.4755 -0.5332 -0.0683
 3592TIP3    H132267   1.666   4.288  16.691  1.2782 -0.6727  1.6232
 3592TIP3    H232268   1.607   4.185  16.786 -0.5789 -1.3435 -0.1903
 3593TIP3   OH232269   2.562   1.000   3.491  0.1136  0.2733  0.2107
 3593TIP3    H132270   2.493   0.947   3.450  1.5306  0.2727 -2.3626
 3593TIP3    H232271   2.608   0.939   3.549 -2.2774  0.4111  2.4511
 3594TIP3   OH232272   3.682   1.057   2.870 -0.6311  0.3423  0.3162
 3594TIP3    H132273   3.729   0.978   2.894 -1.1745 -1.4519 -3.7077
 3594TIP3    H232274   3.746   1.110   2.823 -1.1367  0.6261 -0.0693
 3595TIP3   OH232275   4.756   2.448   5.280 -0.0325  0.2044  0.1162
 3595TIP3    H132276   4.799   2.383   5.336  0.2560  1.6917  1.7174
 3595TIP3    H232277   4.827   2.494   5.236 -0.2754 -1.5943 -2.3721
 3596TIP3   OH232278   1.727   4.505  14.769  0.1915 -0.7880 -0.2136
 3596TIP3    H132279   1.772   4.544  14.694  1.9794 -0.8488  0.7794
 3596TIP3    H232280   1.765   4.418  14.777  0.3545 -0.6221  1.0153
 3597TIP3   OH232281   0.107   4.620  14.628  0.6135 -0.2920  0.0632
 3597TIP3    H132282   0.146   4.564  14.560  1.8268  1.5026 -0.7945
 3597TIP3    H232283   0.079   4.699  14.581 -0.7307  0.0158  1.2903
 3598TIP3   OH232284   5.593   3.589  13.518  0.2363  0.0518 -0.0995
 3598TIP3    H132285   5.501   3.573  13.501  0.0199  1.5958 -0.5939
 3598TIP3    H232286   5.639   3.553  13.442 -0.0564  0.1944 -0.3455
 3599TIP3   OH232287   4.763   3.235  11.613 -0.1384 -0.0265 -0.0461
 3599TIP3    H132288   4.776   3.243  11.519 -0.2030  1.2087  0.0405
 3599TIP3    H232289   4.847   3.260  11.651 -0.2898  0.0360  0.2492
 3600TIP3   OH232290   0.646   2.217  17.306  0.3799 -0.2527  0.3893
 3600TIP3    H132291   0.571   2.276  17.309 -0.7714 -1.4431 -2.2871
 3600TIP3    H232292   0.721   2.274  17.286 -0.1663  0.6547  0.8549
 3601TIP3   OH232293   1.713   3.044  14.904 -0.0701 -0.5283 -0.4135
 3601TIP3    H132294   1.691   2.955  14.932 -1.7765  0.0203  0.0877
 3601TIP3    H232295   1.803   3.037  14.873  0.7795 -1.9122  2.0288
 3602TIP3   OH232296   5.076   4.173  12.998  0.1917  0.1532  0.4977
 3602TIP3    H132297   5.119   4.197  12.916 -0.5707 -1.1526 -0.3197
 3602TIP3    H232298   4.983   4.191  12.982  0.2330  2.0204  1.8986
 3603TIP3   OH232299   6.658   3.049   0.280 -0.5721 -0.3805  0.2121
 3603TIP3    H132300   6.594   3.013   0.341  0.6585 -1.1023  1.1259
 3603TIP3    H232301   6.639   3.005   0.197 -1.3951 -0.4144  0.4098
 3604TIP3   OH232302   1.498   5.136   5.676  0.1923  0.8780  0.3821
 3604TIP3    H132303   1.468   5.227   5.684 -0.9049  0.5342  0.2875
 3604TIP3    H232304   1.488   5.100   5.764 -0.7484  0.4399  0.0997
 3605TIP3   OH232305   2.831   1.029  13.425  0.3982  0.5691  0.2954
 3605TIP3    H132306   2.759   1.033  13.363  1.1674  0.7558 -0.6088
 3605TIP3    H232307   2.901   0.981  13.380  0.8228  0.3181  1.1763
 3606TIP3   OH232308   0.230   1.771  14.830  0.5069 -0.1445 -0.2137
 3606TIP3    H132309   0.237   1.856  14.873  0.7514 -0.6222  0.7199
 3606TIP3    H232310   0.297   1.773  14.762 -0.0437  0.7123 -0.7500
 3607TIP3   OH232311   0.093   1.886  15.606  0.2382  0.5985 -0.1139
 3607TIP3    H132312   0.123   1.835  15.530 -0.4591  0.7015 -0.4662
 3607TIP3    H232313   0.149   1.964  15.606  1.8190 -0.4639  0.8599
 3608TIP3   OH232314   4.168   2.445   6.037 -0.4668  0.0602 -0.0150
 3608TIP3    H132315   4.152   2.423   5.945 -0.1659 -0.7358  0.1167
 3608TIP3    H232316   4.260   2.427   6.050  0.7577  4.4991 -0.7410
 3609TIP3   OH232317   6.473   6.255   5.342 -0.2030  0.1300  0.7703
 3609TIP3    H132318   6.451   6.256   5.435 -0.6271  1.2086  0.6813
 3609TIP3    H232319   6.528   6.333   5.330 -1.9018  1.2563 -0.2453
 3610TIP3   OH232320   6.763   0.510   2.687 -0.0187  0.2472  0.3153
 3610TIP3    H132321   6.798   0.431   2.730  1.2137  0.4532 -0.2564
 3610TIP3    H232322   6.820   0.522   2.611 -1.2170  0.7668 -0.5222
 3611TIP3   OH232323   4.725   4.817  12.997 -0.0463  0.3035 -0.3087
 3611TIP3    H132324   4.745   4.724  12.991 -1.0298  0.1391 -1.6565
 3611TIP3    H232325   4.632   4.823  12.972  0.0101  1.6329 -0.2637
 3612TIP3   OH232326   4.325   6.632  10.615 -0.1356 -0.0133 -0.0087
 3612TIP3    H132327   4.374   6.709  10.644  0.5079  0.4599 -2.1602
 3612TIP3    H232328   4.260   6.666  10.554  0.3898 -1.1839 -1.2695
 3613TIP3   OH232329   2.453   1.875  14.754 -0.1057 -0.3856  0.0462
 3613TIP3    H132330   2.379   1.918  14.711  1.0615  3.2269  1.2502
 3613TIP3    H232331   2.522   1.877  14.688 -0.2535 -1.1100 -0.1333
 3614TIP3   OH232332   1.987   4.576  15.345  0.3101 -0.1284 -0.1210
 3614TIP3    H132333   2.049   4.529  15.289  0.6710  1.8037 -1.4422
 3614TIP3    H232334   1.929   4.508  15.378  1.7889 -1.7097 -0.6116
 3615TIP3   OH232335   6.252   0.057  12.118  0.2066  0.6122  0.0145
 3615TIP3    H132336   6.281   0.128  12.175  1.2139  0.4129 -0.2371
 3615TIP3    H232337   6.254   0.095  12.030 -0.3245  0.5994 -0.0043
 3616TIP3   OH232338   3.447   1.713   3.468 -0.2076 -0.1975  0.5514
 3616TIP3    H132339   3.414   1.623   3.475  0.8073 -0.4562  3.4923
 3616TIP3    H232340   3.542   1.703   3.467 -0.0851  0.8486  0.6956
 3617TIP3   OH232341   1.280   4.761   3.222  0.0424 -0.2251  0.1753
 3617TIP3    H132342   1.320   4.703   3.287  1.3153  0.1023 -0.2939
 3617TIP3    H232343   1.335   4.752   3.144 -0.3432  0.8352 -0.2441
 3618TIP3   OH232344   2.353   4.099   1.258  0.0180  0.9018  0.9151
 3618TIP3    H132345   2.287   4.031   1.269  0.7275  0.2920  1.5759
 3618TIP3    H232346   2.322   4.152   1.186  0.5404 -1.4511 -1.1841
 3619TIP3   OH232347   3.742   1.052  16.680 -0.0993  0.5149  0.5050
 3619TIP3    H132348   3.823   1.003  16.692 -0.1958  0.1659 -0.1967
 3619TIP3    H232349   3.745   1.079  16.588 -0.2674  1.4299  0.7580
 3620TIP3   OH232350   4.471   0.183  11.363 -0.5618  0.3501  0.4010
 3620TIP3    H132351   4.439   0.099  11.394 -1.6456  0.4586 -0.3669
 3620TIP3    H232352   4.396   0.242  11.373 -0.4539  0.7429 -0.9480
 3621TIP3   OH232353   2.510   6.490  13.462  0.8892  0.5090  0.3331
 3621TIP3    H132354   2.461   6.549  13.519 -0.7952 -0.4774 -0.0233
 3621TIP3    H232355   2.550   6.427  13.522  0.7403  0.6283  0.5603
 3622TIP3   OH232356   5.660   3.836   0.495 -0.0507  0.2423 -0.4634
 3622TIP3    H132357   5.567   3.815   0.493 -0.0107 -0.0601 -3.1520
 3622TIP3    H232358   5.702   3.757   0.529 -0.6414 -0.3907 -1.1780
 3623TIP3   OH232359   4.578   2.974  16.318  0.0134 -0.2704 -0.1537
 3623TIP3    H132360   4.604   2.932  16.400  0.3213 -1.3099 -0.7561
 3623TIP3    H232361   4.660   2.989  16.271 -0.2325 -1.0599 -0.8888
 3624TIP3   OH232362   6.526   3.121  15.076  0.7541  0.0507 -0.2591
 3624TIP3    H132363   6.612   3.110  15.034  1.5195 -0.8125  1.4554
 3624TIP3    H232364   6.534   3.201  15.127  0.7074 -0.2699  0.2599
 3625TIP3   OH232365   6.132   1.493  16.576  0.2807 -0.3497  0.0822
 3625TIP3    H132366   6.137   1.531  16.664  0.1503 -2.0884  0.8885
 3625TIP3    H232367   6.051   1.528  16.539  1.3725  2.0739 -0.2321
 3626TIP3   OH232368   5.733   6.645  12.966  0.2846 -0.1302 -1.0056
 3626TIP3    H132369   5.740   6.737  12.993 -2.1629  0.5103 -2.3128
 3626TIP3    H232370   5.824   6.615  12.962  1.1390  2.1270 -0.2673
 3627TIP3   OH232371   6.370   3.121   2.048  0.2600 -0.2446  0.1366
 3627TIP3    H132372   6.379   3.035   2.008  2.3048 -1.0949  2.1813
 3627TIP3    H232373   6.401   3.109   2.138  0.9248  2.6783  0.4021
 3628TIP3   OH232374   4.822   2.485   3.504 -0.2938 -0.3079 -0.4158
 3628TIP3    H132375   4.780   2.417   3.557 -0.1087 -0.1662 -0.0781
 3628TIP3    H232376   4.873   2.536   3.568 -1.2000  0.7437 -0.4897
 3629TIP3   OH232377   2.838   3.398  11.079 -0.5411 -0.0546  0.1458
 3629TIP3    H132378   2.825   3.432  10.990 -0.8216 -0.4598  0.0269
 3629TIP3    H232379   2.859   3.475  11.131  2.0932 -0.0813 -0.7188
 3630TIP3   OH232380   5.071   4.928  12.194  0.1486  0.1970 -0.2211
 3630TIP3    H132381   4.978   4.945  12.178  0.3790  0.7117 -1.0848
 3630TIP3    H232382   5.082   4.835  12.174 -0.5643 -0.3802  1.8315
 3631TIP3   OH232383   6.531   3.942   4.678 -0.8308 -0.2862 -0.2894
 3631TIP3    H132384   6.480   3.896   4.611 -0.3910  0.6542 -1.3072
 3631TIP3    H232385   6.610   3.889   4.688 -0.6053 -0.0976 -1.0011
 3632TIP3   OH232386   4.638   6.170   4.044  0.6650  0.1070 -0.7645
 3632TIP3    H132387   4.651   6.252   3.997  3.2085 -0.2152 -0.7756
 3632TIP3    H232388   4.633   6.104   3.975  1.5597 -0.0458 -0.6977
 3633TIP3   OH232389   1.869   3.521   1.067  0.7263  0.2521  0.1900
 3633TIP3    H132390   1.947   3.475   1.040  0.2172 -0.4381 -0.1210
 3633TIP3    H232391   1.896   3.613   1.072  1.5307  0.0312  0.0349
 3634TIP3   OH232392   4.558   5.381  17.259 -0.4014 -0.6087  0.7284
 3634TIP3    H132393   4.611   5.347  17.331  2.0395 -1.2255 -1.2342
 3634TIP3    H232394   4.517   5.460  17.295 -0.4847 -1.6826  3.1993
 3635TIP3   OH232395   4.425   0.034   3.499  0.4298  0.7440 -0.0739
 3635TIP3    H132396   4.508   0.073   3.526  0.6495 -0.0664  0.4353
 3635TIP3    H232397   4.441   0.004   3.409 -0.1791  3.0695 -1.0449
 3636TIP3   OH232398   6.640   0.035   2.705  0.3717  0.6393 -0.0737
 3636TIP3    H132399   6.628   0.112   2.650  0.9302  1.7049  1.2480
 3636TIP3    H232400   6.551   0.001   2.717 -0.4160  3.1924  2.2359
 3637TIP3   OH232401   1.674   0.072   2.388  0.1884 -0.4269 -0.1077
 3637TIP3    H132402   1.768   0.091   2.385  0.1322 -0.0398  0.4082
 3637TIP3    H232403   1.634   0.146   2.341  0.0704 -0.0173  0.6234
 3638TIP3   OH232404   6.568   0.769   5.542  0.2302  0.4035  0.5345
 3638TIP3    H132405   6.549   0.758   5.449 -0.3380 -0.5274  0.7524
 3638TIP3    H232406   6.629   0.843   5.545 -0.0711  0.7138 -0.5345
 3639TIP3   OH232407   3.622   0.899   5.161 -0.1959 -0.0536 -0.0173
 3639TIP3    H132408   3.649   0.973   5.107  3.2767 -1.0906  0.1127
 3639TIP3    H232409   3.632   0.822   5.105  0.7382 -0.8565  1.1989
 3640TIP3   OH232410   5.158   3.680  13.002  0.1428  0.2589 -0.4153
 3640TIP3    H132411   5.210   3.657  13.079  0.5313 -0.9238 -1.0109
 3640TIP3    H232412   5.196   3.629  12.931 -0.1970  1.3476 -1.4065
 3641TIP3   OH232413   1.453   5.961  10.640 -0.1216  0.0167  0.2340
 3641TIP3    H132414   1.457   6.043  10.591  0.0978  0.9671  1.7705
 3641TIP3    H232415   1.403   5.903  10.584  1.5203  0.4816 -1.8573
 3642TIP3   OH232416   2.081   1.533   5.481 -0.2682  0.2650  0.2255
 3642TIP3    H132417   2.164   1.489   5.501  0.1843 -0.0736 -2.0894
 3642TIP3    H232418   2.072   1.600   5.548  0.6979 -1.1917  1.8927
 3643TIP3   OH232419   4.642   3.531  15.339 -0.3581  0.1932  0.5951
 3643TIP3    H132420   4.626   3.491  15.424 -1.2488  0.4243  0.5440
 3643TIP3    H232421   4.574   3.598  15.330 -1.7300 -1.3156 -1.2176
 3644TIP3   OH232422   4.458   4.511  15.379  0.0363  0.3455 -0.1044
 3644TIP3    H132423   4.548   4.498  15.349  0.2864  2.4304 -0.3954
 3644TIP3    H232424   4.423   4.422  15.388  0.8194 -0.5333 -3.9590
 3645TIP3   OH232425   5.564   0.485  15.877 -0.0316 -0.0255  0.0400
 3645TIP3    H132426   5.657   0.506  15.872 -0.2078  0.5230 -1.5482
 3645TIP3    H232427   5.521   0.569  15.897 -0.2187 -0.2298  0.5237
 3646TIP3   OH232428   3.653   2.911  14.708 -0.0658  0.3786  0.0007
 3646TIP3    H132429   3.744   2.890  14.688  0.2705  0.4364  1.3653
 3646TIP3    H232430   3.639   2.875  14.795 -1.8782 -1.1104 -0.8589
 3647TIP3   OH232431   4.069   1.132   2.736  0.1682 -0.0192  0.2948
 3647TIP3    H132432   3.980   1.166   2.722  0.2561  0.8378  1.6964
 3647TIP3    H232433   4.056   1.038   2.749 -0.3060 -0.2246 -1.4543
 3648TIP3   OH232434   5.910   3.821   2.549  0.0592  0.0689 -0.3358
 3648TIP3    H132435   5.911   3.914   2.572  0.7440  0.5716 -2.2291
 3648TIP3    H232436   5.824   3.806   2.510 -1.2295 -0.8602  2.5834
 3649TIP3   OH232437   4.563   3.540   3.906 -0.3834 -0.3838 -0.3593
 3649TIP3    H132438   4.506   3.470   3.939  1.0889 -1.7820 -0.6717
 3649TIP3    H232439   4.517   3.573   3.828 -1.7150 -0.0913  0.5108
 3650TIP3   OH232440   5.129   5.882   3.622  0.8966  0.1311 -0.2161
 3650TIP3    H132441   5.203   5.941   3.634  0.4644  0.7516 -0.5556
 3650TIP3    H232442   5.055   5.939   3.603 -0.1439 -0.2987  2.1329
 3651TIP3   OH232443   6.453   2.685   2.437 -0.5444  0.8596  0.2134
 3651TIP3    H132444   6.485   2.715   2.522  0.1243  0.6287  0.0503
 3651TIP3    H232445   6.532   2.674   2.384 -0.9616  1.0714 -0.4611
 3652TIP3   OH232446   1.001   0.518  16.280  0.1275  0.0170  0.2991
 3652TIP3    H132447   1.084   0.507  16.326 -0.1434  2.1776  1.4654
 3652TIP3    H232448   1.021   0.504  16.188  1.3960 -1.1417  0.7212
 3653TIP3   OH232449   6.782   4.185   0.444  0.3843  0.6358 -0.1073
 3653TIP3    H132450   6.858   4.166   0.499 -0.1481 -0.3467  0.3198
 3653TIP3    H232451   6.719   4.115   0.464 -1.2443  2.2424  0.6462
 3654TIP3   OH232452   3.393   3.822  10.620 -0.5885  0.3195  0.4057
 3654TIP3    H132453   3.435   3.908  10.617  0.7007 -0.2829  0.9623
 3654TIP3    H232454   3.301   3.841  10.642 -1.2272  1.8267 -2.9710
 3655TIP3   OH232455   6.800   2.932   2.893  0.0143 -0.5298  0.2217
 3655TIP3    H132456   6.712   2.945   2.858  0.6287 -1.3170 -1.7224
 3655TIP3    H232457   6.806   2.838   2.909  1.4034 -0.9602 -2.3779
 3656TIP3   OH232458   6.165   6.110  16.579  0.0360  0.2880 -0.0677
 3656TIP3    H132459   6.129   6.021  16.578 -0.9502  0.5850  2.3057
 3656TIP3    H232460   6.120   6.156  16.508 -0.9765 -0.5696 -0.0050
 3657TIP3   OH232461   1.781   4.761  16.614  0.2277  0.1025  0.1447
 3657TIP3    H132462   1.816   4.754  16.525  2.6884 -1.0244  1.1180
 3657TIP3    H232463   1.855   4.791  16.667 -1.3021  1.2232  1.7806
 3658TIP3   OH232464   1.898   1.059  11.240  0.2678 -0.2209  0.7127
 3658TIP3    H132465   1.885   1.143  11.195  2.6136  0.1419  0.6093
 3658TIP3    H232466   1.920   1.084  11.330 -1.7475 -0.8719  1.4496
 3659TIP3   OH232467   4.607   1.206  15.106  0.0760  0.3617  0.0569
 3659TIP3    H132468   4.567   1.123  15.131 -0.1745  0.9643  1.7445
 3659TIP3    H232469   4.534   1.261  15.077  0.3394 -0.2631 -2.0079
 3660TIP3   OH232470   5.315   1.766  11.929 -0.6722  0.7625 -0.0774
 3660TIP3    H132471   5.328   1.676  11.960 -0.4347  1.1312  0.9193
 3660TIP3    H232472   5.284   1.756  11.839 -0.2317 -0.3086 -0.1248
 3661TIP3   OH232473   4.484   3.771  13.558  0.1048 -0.4292 -0.0250
 3661TIP3    H132474   4.542   3.841  13.529  0.2790 -0.3884  0.4202
 3661TIP3    H232475   4.526   3.735  13.636 -0.8915  0.1845  0.8227
 3662TIP3   OH232476   5.380   3.449  12.100  0.3538  0.1601  0.5551
 3662TIP3    H132477   5.407   3.537  12.072  0.6454  0.1726  0.8744
 3662TIP3    H232478   5.400   3.446  12.193  1.3244 -0.6173  0.3364
 3663TIP3   OH232479   1.761   0.892  12.265  0.6954  0.0175  0.1475
 3663TIP3    H132480   1.734   0.833  12.196 -0.1794 -0.5297  0.9242
 3663TIP3    H232481   1.709   0.971  12.251 -1.2103 -0.9251  1.4633
 3664TIP3   OH232482   0.393   1.767   5.513 -0.0512  0.3461  0.1092
 3664TIP3    H132483   0.412   1.694   5.455 -0.2854 -1.0807  1.7541
 3664TIP3    H232484   0.467   1.769   5.574 -1.3865 -0.3838  1.8339
 3665TIP3   OH232485   3.910   0.180   3.189 -0.5772  0.7586 -0.0025
 3665TIP3    H132486   3.869   0.211   3.269 -0.7702  0.2684  0.0921
 3665TIP3    H232487   3.932   0.088   3.207  2.1840  1.4327  0.5986
 3666TIP3   OH232488   5.710   3.356  14.942 -0.2205  0.1496 -0.2687
 3666TIP3    H132489   5.800   3.389  14.943 -0.6705  1.4160 -0.0466
 3666TIP3    H232490   5.679   3.376  14.853  0.2568 -1.8904 -0.9534
 3667TIP3   OH232491   1.181   0.757  15.154 -0.2678  0.0949 -0.1529
 3667TIP3    H132492   1.175   0.794  15.066  0.7094 -0.6090 -0.5323
 3667TIP3    H232493   1.237   0.819  15.202  0.4538 -0.3015 -0.4713
 3668TIP3   OH232494   1.803   5.420   1.120 -0.7060 -0.5103  0.7050
 3668TIP3    H132495   1.856   5.496   1.145 -0.4708  0.0574 -1.3297
 3668TIP3    H232496   1.814   5.358   1.192  1.0466  0.4318  1.3050
 3669TIP3   OH232497   5.626   4.742  10.564 -0.2936 -0.1802  0.5059
 3669TIP3    H132498   5.679   4.708  10.492  1.5468 -0.0288  1.7364
 3669TIP3    H232499   5.665   4.827  10.585 -0.4554 -0.4401  2.0067
 3670TIP3   OH232500   5.951   3.076  15.322  0.6331 -0.4840 -0.0033
 3670TIP3    H132501   6.009   3.003  15.299  2.3046  0.9944 -0.7490
 3670TIP3    H232502   5.945   3.074  15.417  2.6504 -0.1840  0.1612
 3671TIP3   OH232503   2.659   4.325  17.117 -0.0082 -0.0929 -0.2806
 3671TIP3    H132504   2.603   4.311  17.041 -0.5941  1.8099 -0.2561
 3671TIP3    H232505   2.639   4.252  17.175 -1.2434 -0.3539 -1.0011
 3672TIP3   OH232506   6.685   0.347  17.144 -1.3085  0.3072  0.2567
 3672TIP3    H132507   6.631   0.370  17.068  1.2552  2.1757 -1.1653
 3672TIP3    H232508   6.721   0.430  17.174  1.8727 -0.8814  0.1482
 3673TIP3   OH232509   1.262   5.830  12.092  0.2163 -0.1283 -0.6923
 3673TIP3    H132510   1.259   5.833  11.996  0.3515  0.1669 -0.6884
 3673TIP3    H232511   1.214   5.751  12.115 -0.7864  0.3931 -0.9597
 3674TIP3   OH232512   4.159   1.962   4.916  0.3063  0.1984  0.1761
 3674TIP3    H132513   4.206   2.002   4.989  1.4792 -0.3021 -0.2770
 3674TIP3    H232514   4.077   1.930   4.954  1.3802 -1.0583  1.5238
 3675TIP3   OH232515   5.804   2.352  13.353 -0.0030 -1.1110 -0.2879
 3675TIP3    H132516   5.736   2.392  13.298 -0.8901  0.2678  1.7329
 3675TIP3    H232517   5.756   2.309  13.423  1.1946 -0.6349  0.8553
 3676TIP3   OH232518   6.710   2.368  16.687  0.0166 -0.6627 -0.2476
 3676TIP3    H132519   6.723   2.286  16.640  1.0564 -3.0406  3.6843
 3676TIP3    H232520   6.625   2.358  16.730 -0.4358  0.9373 -0.6922
 3677TIP3   OH232521   1.064   3.841   4.943  0.0555 -0.1700 -0.5815
 3677TIP3    H132522   1.122   3.782   4.992 -0.5784 -0.6100 -0.3387
 3677TIP3    H232523   1.098   3.928   4.961  0.6008 -0.4209 -0.3848
 3678TIP3   OH232524   4.961   1.703   2.694  0.7730 -0.4050 -0.2180
 3678TIP3    H132525   5.051   1.694   2.727  1.1811  1.0761 -0.8481
 3678TIP3    H232526   4.927   1.613   2.692  2.0605 -0.9341  0.5103
 3679TIP3   OH232527   2.273   1.297   5.568 -0.2091  0.3337  0.1458
 3679TIP3    H132528   2.190   1.318   5.611  0.1277 -0.0526  1.0210
 3679TIP3    H232529   2.254   1.218   5.517  0.0370 -0.8699  1.8154
 3680TIP3   OH232530   0.017   3.627  14.755  0.5648  0.0378  0.3466
 3680TIP3    H132531   0.080   3.696  14.735  0.7838 -0.5718 -1.2662
 3680TIP3    H232532   0.066   3.546  14.740  0.4172 -0.5275  2.5025
 3681TIP3   OH232533   5.595   6.700   3.942  0.4023 -0.6996  0.1502
 3681TIP3    H132534   5.637   6.642   4.006  0.8504 -1.1372 -0.5225
 3681TIP3    H232535   5.668   6.735   3.891  0.3752  2.1157  1.8423
 3682TIP3   OH232536   6.645   2.068  15.575  0.0348 -0.3988  0.2274
 3682TIP3    H132537   6.652   2.029  15.662  1.4804  0.7600  0.6712
 3682TIP3    H232538   6.731   2.055  15.536  0.0367  0.8693 -0.2417
 3683TIP3   OH232539   0.177   1.591  12.386  0.0399  0.0958  0.2630
 3683TIP3    H132540   0.205   1.592  12.477  1.2574 -0.3329 -0.0824
 3683TIP3    H232541   0.227   1.663  12.345  0.1400 -0.2494 -0.2341
 3684TIP3   OH232542   4.175   1.343   0.056 -0.2642 -0.3142  0.1379
 3684TIP3    H132543   4.227   1.387  -0.012 -1.1032 -0.7402 -0.8166
 3684TIP3    H232544   4.174   1.405   0.129  2.2498 -0.6333  0.5463
 3685TIP3   OH232545   5.243   3.878   5.659  0.2847 -0.2792  0.0325
 3685TIP3    H132546   5.296   3.845   5.586  0.0068 -0.4246 -0.1063
 3685TIP3    H232547   5.275   3.967   5.673  0.1716 -0.1607 -0.4329
 3686TIP3   OH232548   3.928   3.709   2.662 -0.1179 -0.1988  0.3473
 3686TIP3    H132549   4.010   3.756   2.652 -0.9501  0.8317 -2.9860
 3686TIP3    H232550   3.944   3.623   2.623 -0.4166 -0.2631  0.3589
 3687TIP3   OH232551   5.418   2.479  14.256  0.5162 -0.3966  0.7992
 3687TIP3    H132552   5.492   2.523  14.214  0.8729 -1.7484 -0.0649
 3687TIP3    H232553   5.453   2.450  14.341  1.2896 -1.7298  0.0770
 3688TIP3   OH232554   3.110   4.386   2.149 -0.2069  0.7244  0.3827
 3688TIP3    H132555   3.112   4.464   2.093 -0.2238 -0.0673 -0.7582
 3688TIP3    H232556   3.202   4.371   2.172  0.1372 -0.3117 -1.4499
 3689TIP3   OH232557   5.146   3.008   5.185 -0.5963 -0.0470 -0.2334
 3689TIP3    H132558   5.215   3.057   5.228 -0.1595 -1.2190  0.4573
 3689TIP3    H232559   5.175   3.001   5.094  2.0673 -3.4182  0.6266
 3690TIP3   OH232560   5.938   4.770  13.953  0.1589  0.2869 -0.1737
 3690TIP3    H132561   5.911   4.848  13.906  0.2498 -0.0629 -0.8220
 3690TIP3    H232562   5.888   4.699  13.912  0.8626 -0.1379 -0.3013
 3691TIP3   OH232563   0.360   0.167   5.540 -0.0040  0.1855 -0.3063
 3691TIP3    H132564   0.293   0.132   5.598  0.2616 -0.4849 -0.3918
 3691TIP3    H232565   0.414   0.222   5.597  0.0843 -0.2382  0.0220
 3692TIP3   OH232566   2.157   3.927   5.235 -0.3742 -0.0356  0.2267
 3692TIP3    H132567   2.157   4.012   5.279 -0.6289  0.3903 -0.5614
 3692TIP3    H232568   2.180   3.948   5.144 -1.0943 -0.7242 -0.1255
 3693TIP3   OH232569   5.100   0.456  15.795  0.8668 -0.1161 -0.4503
 3693TIP3    H132570   5.159   0.443  15.868  0.4763 -2.1689 -0.4404
 3693TIP3    H232571   5.154   0.442  15.717  0.4227 -2.1206 -0.4395
 3694TIP3   OH232572   5.006   5.943  12.924  0.5993 -0.5380 -0.1215
 3694TIP3    H132573   5.010   5.995  12.844 -0.5813  2.2123  1.4672
 3694TIP3    H232574   4.924   5.969  12.966  1.4273 -1.4596  2.2371
 3695TIP3   OH232575   0.529   1.068   5.412 -0.5975 -0.0176 -0.1710
 3695TIP3    H132576   0.545   1.128   5.339  2.4808  0.5964  0.8769
 3695TIP3    H232577   0.596   1.000   5.403 -1.5408 -1.1331  0.8815
 3696TIP3   OH232578   3.853   4.357  15.636 -0.0946 -0.0189 -0.1385
 3696TIP3    H132579   3.796   4.430  15.615 -0.7487 -1.0398 -2.1864
 3696TIP3    H232580   3.941   4.394  15.634 -0.4258  0.7676 -0.9081
 3697TIP3   OH232581   3.430   5.935  11.772 -0.4252 -0.2009 -0.1961
 3697TIP3    H132582   3.372   5.970  11.839 -0.1202  0.0002 -0.0374
 3697TIP3    H232583   3.518   5.950  11.805 -0.1977  1.5395 -1.4142
 3698TIP3   OH232584   2.812   1.737   4.239  0.1441 -0.2509 -0.3979
 3698TIP3    H132585   2.824   1.780   4.324  3.1181  0.7742 -1.2371
 3698TIP3    H232586   2.890   1.683   4.228  0.0653  0.0135 -2.6814
 3699TIP3   OH232587   3.581   0.255  15.175 -0.4454  0.3496  0.0927
 3699TIP3    H132588   3.503   0.277  15.227 -1.6769 -0.0767 -1.4824
 3699TIP3    H232589   3.653   0.255  15.238 -1.4859  2.0969  1.3676
 3700TIP3   OH232590   3.754   2.750   0.098  0.5226 -0.1542  0.0824
 3700TIP3    H132591   3.762   2.779   0.189 -0.5299  0.5266 -0.0274
 3700TIP3    H232592   3.841   2.763   0.060  0.2071  2.6190  0.1260
 3701TIP3   OH232593   5.676   4.063   1.012 -0.0452 -0.2617 -0.3129
 3701TIP3    H132594   5.771   4.053   1.009 -0.1408 -1.0757 -0.9011
 3701TIP3    H232595   5.659   4.137   0.953  0.3655  1.1668  1.2980
 3702TIP3   OH232596   4.528   5.815  13.294 -0.4246 -0.4363  0.1728
 3702TIP3    H132597   4.516   5.722  13.273 -0.8329 -0.1706 -0.7865
 3702TIP3    H232598   4.600   5.815  13.358 -2.0537 -1.6246  2.1382
 3703TIP3   OH232599   2.918   3.804   3.896 -0.0428  0.0692 -0.0043
 3703TIP3    H132600   2.906   3.806   3.801 -0.9495 -1.9853  0.0016
 3703TIP3    H232601   2.896   3.714   3.921  1.6191  0.1417  1.9837
 3704TIP3   OH232602   5.447   6.337  13.444 -0.1367  0.9351 -0.3762
 3704TIP3    H132603   5.510   6.365  13.377  0.8250 -1.7345 -0.6961
 3704TIP3    H232604   5.404   6.260  13.406 -2.9295  2.0601  0.2668
 3705TIP3   OH232605   6.417   1.116   1.296  0.1071  0.0606 -0.1958
 3705TIP3    H132606   6.412   1.034   1.247  0.5923 -0.2727  0.2996
 3705TIP3    H232607   6.362   1.102   1.373 -0.8010  0.6479 -0.7149
 3706TIP3   OH232608   3.251   2.686  13.864 -0.0673  0.0857  0.4120
 3706TIP3    H132609   3.296   2.749  13.808  0.1450  0.5918  1.1402
 3706TIP3    H232610   3.316   2.662  13.930 -0.9489  1.1103  1.6986
 3707TIP3   OH232611   1.181   0.106  11.648 -0.6729  0.1357  0.1357
 3707TIP3    H132612   1.093   0.126  11.616 -0.2033 -0.1229 -1.3867
 3707TIP3    H232613   1.168   0.030  11.706 -1.6812  1.2763  1.4845
 3708TIP3   OH232614   2.548   4.069  16.405 -0.0383 -0.0817 -0.2404
 3708TIP3    H132615   2.543   4.153  16.359 -1.6037  0.8338  1.4736
 3708TIP3    H232616   2.627   4.076  16.460  0.6982 -0.3900 -1.2194
 3709TIP3   OH232617   6.218   0.050   3.899  0.5559  0.0012  0.4656
 3709TIP3    H132618   6.251   0.138   3.915  0.5234 -0.0163  0.6292
 3709TIP3    H232619   6.285  -0.008   3.936 -0.2259 -0.0196  1.8952
 3710TIP3   OH232620   5.677   3.810   2.413  0.0229  0.1135 -0.0171
 3710TIP3    H132621   5.638   3.722   2.406  0.1544 -0.0215  0.8335
 3710TIP3    H232622   5.695   3.835   2.322 -0.8775 -0.3484 -0.3370
 3711TIP3   OH232623   5.216   0.411   1.681  0.6348 -0.6928  0.0308
 3711TIP3    H132624   5.276   0.393   1.753 -1.5893 -2.8086  1.5453
 3711TIP3    H232625   5.152   0.472   1.718  0.6367 -0.1583 -0.8286
 3712TIP3   OH232626   3.326   5.723   5.924  0.0357  0.2210  0.0312
 3712TIP3    H132627   3.385   5.648   5.919 -1.1103 -0.7611  0.7092
 3712TIP3    H232628   3.244   5.692   5.886 -0.6030  0.9713  0.7545
 3713TIP3   OH232629   0.115   6.056   0.933 -0.3563  0.1450 -0.4631
 3713TIP3    H132630   0.172   6.026   0.862  1.4267  2.1894  0.0014
 3713TIP3    H232631   0.033   6.081   0.890  0.4062  0.5872 -1.7102
 3714TIP3   OH232632   1.167   1.336   6.342  0.0501 -0.1664  0.0778
 3714TIP3    H132633   1.238   1.281   6.375  0.1055 -0.1540 -0.0169
 3714TIP3    H232634   1.146   1.299   6.256 -0.7875 -0.8161  0.5606
 3715TIP3   OH232635   6.434   6.698   3.140  0.0149  0.0818  0.1148
 3715TIP3    H132636   6.411   6.640   3.067 -0.2141  2.9884 -2.3549
 3715TIP3    H232637   6.353   6.746   3.158  0.5114  0.5387  1.1883
 3716TIP3   OH232638   6.417   5.823  16.689 -0.6367  0.1751 -0.2495
 3716TIP3    H132639   6.428   5.729  16.705  1.7945  0.5975  1.1217
 3716TIP3    H232640   6.434   5.834  16.596 -1.3266 -0.7760 -0.4963
 3717TIP3   OH232641   1.084   4.833   1.517  0.2732  0.0684 -0.2188
 3717TIP3    H132642   1.059   4.790   1.599 -1.8255  0.9797 -0.3298
 3717TIP3    H232643   1.052   4.922   1.526  3.0454  1.2212 -0.6899
 3718TIP3   OH232644   3.783   3.101   1.526 -0.2186 -0.2788 -0.3362
 3718TIP3    H132645   3.842   3.161   1.570 -0.8475 -0.0906  0.2678
 3718TIP3    H232646   3.839   3.027   1.500  0.1336 -0.5275  1.0173
 3719TIP3   OH232647   6.279   5.680   4.720  0.2365  0.0478 -0.5750
 3719TIP3    H132648   6.334   5.629   4.661  1.0504  0.0764  0.1394
 3719TIP3    H232649   6.315   5.768   4.718  0.2482  0.0606 -0.0788
 3720TIP3   OH232650   2.596   3.188   2.688 -0.2409 -0.1003  0.2671
 3720TIP3    H132651   2.638   3.220   2.608 -0.1383  0.7507  0.6545
 3720TIP3    H232652   2.659   3.208   2.757 -1.3196  1.3419  0.8841
 3721TIP3   OH232653   5.987   2.412  10.489  0.3055 -0.2613  0.6391
 3721TIP3    H132654   6.079   2.400  10.515  0.4771 -0.5364 -0.0837
 3721TIP3    H232655   5.957   2.324  10.466 -0.7240 -0.5115  2.6757
 3722TIP3   OH232656   2.556   3.732  14.746 -0.0251 -0.0257 -0.0456
 3722TIP3    H132657   2.583   3.681  14.822  0.4336 -1.7277 -1.2761
 3722TIP3    H232658   2.621   3.803  14.740 -1.3238  1.5002  2.3528
 3723TIP3   OH232659   5.162   0.448   4.050 -0.3117  0.2126  0.1366
 3723TIP3    H132660   5.234   0.392   4.024  0.6504  1.4719 -0.0148
 3723TIP3    H232661   5.150   0.431   4.144 -0.3529 -0.5625 -0.0021
 3724TIP3   OH232662   5.832   3.887  17.190 -0.4000 -0.4884 -0.1041
 3724TIP3    H132663   5.749   3.869  17.146 -0.3944 -1.5493  0.2829
 3724TIP3    H232664   5.856   3.804  17.232  0.0197  0.2513  1.1888
 3725TIP3   OH232665   6.572   3.461  13.544  0.3248  0.1220  0.1883
 3725TIP3    H132666   6.520   3.403  13.488  0.5662 -2.2993  2.2459
 3725TIP3    H232667   6.637   3.499  13.486 -0.8168 -0.4982 -1.5721
 3726TIP3   OH232668   2.095   5.584  10.814 -0.0966 -0.6015  0.3565
 3726TIP3    H132669   2.133   5.671  10.808 -1.7620  0.1885  0.7121
 3726TIP3    H232670   2.085   5.556  10.723 -0.3879 -0.0245  0.2045
 3727TIP3   OH232671   2.796   2.111  14.939  0.1161 -0.2675  0.0091
 3727TIP3    H132672   2.871   2.066  14.899  1.2159  0.5597  1.1033
 3727TIP3    H232673   2.831   2.194  14.969 -1.1597 -0.0373  0.9081
 3728TIP3   OH232674   1.082   0.453  17.003 -0.0031 -0.0889  0.0229
 3728TIP3    H132675   1.033   0.376  17.033  2.6803 -1.9610 -0.0216
 3728TIP3    H232676   1.120   0.490  17.083  1.9714 -1.2925 -0.2874
 3729TIP3   OH232677   6.714   6.590   1.228  0.2381  0.1096  0.7066
 3729TIP3    H132678   6.706   6.614   1.320 -0.9602 -0.9361  0.8956
 3729TIP3    H232679   6.653   6.517   1.216  0.8396 -0.1965 -0.7664
 3730TIP3   OH232680   6.083   0.150   0.440  0.0537  0.0258  0.2934
 3730TIP3    H132681   5.995   0.153   0.478 -0.6306 -1.1285 -1.0850
 3730TIP3    H232682   6.091   0.061   0.406  1.8125  0.0865  0.4810
 3731TIP3   OH232683   5.547   2.492  13.278 -0.2154 -0.1459 -0.0046
 3731TIP3    H132684   5.478   2.449  13.228  0.7442 -0.9759 -0.6788
 3731TIP3    H232685   5.504   2.563  13.325 -1.8746 -1.7743  1.0766
 3732TIP3   OH232686   0.140   1.452  11.501 -0.1377 -0.1741  0.0570
 3732TIP3    H132687   0.114   1.428  11.590  0.9099  0.5685  0.5762
 3732TIP3    H232688   0.119   1.545  11.494 -0.9755 -0.4115 -0.7704
 3733TIP3   OH232689   2.381   0.583   4.532  0.2698  0.1828  0.1121
 3733TIP3    H132690   2.367   0.664   4.482  5.0276  1.2225  0.0329
 3733TIP3    H232691   2.366   0.608   4.623 -1.8631  0.0312 -0.1286
 3734TIP3   OH232692   6.500   6.274  15.753 -0.3595 -0.9294  0.0860
 3734TIP3    H132693   6.439   6.218  15.705 -0.2397 -0.7995 -0.2202
 3734TIP3    H232694   6.480   6.363  15.722 -2.8468 -0.3022  2.9398
 3735TIP3   OH232695   1.982   5.417  11.015 -0.2160 -0.5231  0.8566
 3735TIP3    H132696   1.901   5.462  11.039 -0.1088  0.0864  0.1046
 3735TIP3    H232697   2.019   5.470  10.944  0.1252 -1.5567  0.2366
 3736TIP3   OH232698   2.093   2.204  16.581 -0.0190 -0.4764 -1.0156
 3736TIP3    H132699   2.134   2.216  16.496  0.1235  0.3604 -0.8335
 3736TIP3    H232700   2.167   2.198  16.643 -0.0770 -2.0186 -1.0376
 3737TIP3   OH232701   0.217   6.452  16.049 -0.1785  0.4357 -0.0179
 3737TIP3    H132702   0.253   6.365  16.034  1.4637  0.4489  3.0845
 3737TIP3    H232703   0.123   6.442  16.034 -0.3711 -2.4635  2.2327
 3738TIP3   OH232704   1.178   4.328  11.672  0.3257 -0.2425  0.7427
 3738TIP3    H132705   1.199   4.370  11.589 -0.2791 -0.3324  0.5373
 3738TIP3    H232706   1.144   4.242  11.648  0.6231 -0.4674  1.1098
 3739TIP3   OH232707   3.777   2.690   3.589 -0.0577 -0.0948  0.0870
 3739TIP3    H132708   3.835   2.734   3.651  0.6599 -1.7700  0.6702
 3739TIP3    H232709   3.814   2.602   3.580 -1.7725 -0.7949 -0.5392
 3740TIP3   OH232710   3.782   6.182  14.248 -0.1081  0.4241 -0.3359
 3740TIP3    H132711   3.870   6.148  14.237  0.1773  1.2798 -0.7978
 3740TIP3    H232712   3.725   6.117  14.208  0.3002 -0.1682  0.0285
 3741TIP3   OH232713   6.630   6.641  13.879 -0.2447 -0.0824 -0.0067
 3741TIP3    H132714   6.686   6.630  13.802 -0.9508 -0.5775 -0.4643
 3741TIP3    H232715   6.689   6.634  13.954  0.2200 -1.1583 -0.4583
 3742TIP3   OH232716   3.296   2.858   2.038  0.2965  0.3728 -0.3385
 3742TIP3    H132717   3.328   2.775   2.073  0.5474  0.6749  0.1761
 3742TIP3    H232718   3.215   2.837   1.993 -1.4785  0.3243  2.6610
 3743TIP3   OH232719   2.436   2.089  13.788 -0.0188  0.1878 -0.0567
 3743TIP3    H132720   2.521   2.050  13.770  0.4107  0.9807  0.1883
 3743TIP3    H232721   2.372   2.020  13.767  0.6407 -0.1739 -0.9010
 3744TIP3   OH232722   1.982   5.351   1.611  0.0614  0.5000  0.0831
 3744TIP3    H132723   1.890   5.335   1.593  0.1471  1.1705 -1.0324
 3744TIP3    H232724   1.985   5.442   1.642  0.1644 -0.0228  1.7006
 3745TIP3   OH232725   4.285   4.045   5.775 -0.0216 -0.6103 -0.2331
 3745TIP3    H132726   4.232   3.998   5.838 -0.7468  0.6478  0.1297
 3745TIP3    H232727   4.265   4.138   5.790  0.6330 -0.2206 -1.5493
 3746TIP3   OH232728   3.054   3.511  17.055 -0.4337 -0.1593 -0.1992
 3746TIP3    H132729   2.996   3.481  17.125 -0.7931 -0.8054 -0.7555
 3746TIP3    H232730   3.024   3.463  16.977 -1.1748  1.8044 -1.2058
 3747TIP3   OH232731   1.297   3.513  13.814  0.1347 -0.1301  0.3726
 3747TIP3    H132732   1.373   3.458  13.831  0.0914  0.0245  1.0911
 3747TIP3    H232733   1.285   3.564  13.894  0.7611  1.6474 -0.6220
 3748TIP3   OH232734   3.458   2.174  14.239 -0.2399  0.0403  0.1067
 3748TIP3    H132735   3.429   2.179  14.331  0.8805  0.0581  0.4706
 3748TIP3    H232736   3.453   2.081  14.218  3.5644 -0.6928  1.6081
 3749TIP3   OH232737   4.494   1.556   2.682  0.0489  0.5278  0.0914
 3749TIP3    H132738   4.589   1.562   2.689  0.0851  0.3501 -0.2566
 3749TIP3    H232739   4.462   1.632   2.731  0.3745  0.7451 -0.0302
 3750TIP3   OH232740   6.796   0.867   1.482  0.3564  0.0291  0.1708
 3750TIP3    H132741   6.775   0.802   1.416 -1.3139  0.7206 -0.0341
 3750TIP3    H232742   6.767   0.828   1.564  3.1862 -1.1846  0.7268
 3751TIP3   OH232743   4.497   4.210  15.601  0.3589  0.1392 -0.2037
 3751TIP3    H132744   4.539   4.218  15.515 -0.0635  0.2277 -0.4057
 3751TIP3    H232745   4.537   4.280  15.654  0.2250  0.4399 -0.4946
 3752TIP3   OH232746   5.779   4.614  15.755 -0.1734  0.4482 -0.0160
 3752TIP3    H132747   5.732   4.614  15.671 -1.2210 -0.4125  0.5379
 3752TIP3    H232748   5.797   4.707  15.772 -0.4908  0.6871 -0.8915
 3753TIP3   OH232749   1.875   1.290  10.929  0.6939  0.1078  0.0740
 3753TIP3    H132750   1.823   1.220  10.891  2.4110 -0.8424 -0.6561
 3753TIP3    H232751   1.966   1.261  10.919  1.6617  3.2325 -2.0498
 3754TIP3   OH232752   5.721   2.043   4.019 -0.1679 -0.1760 -0.2673
 3754TIP3    H132753   5.795   1.998   3.978 -1.7531 -2.1199 -1.1608
 3754TIP3    H232754   5.694   1.986   4.091 -0.9029  0.4099 -0.0562
 3755TIP3   OH232755   4.442   3.526   1.908  0.0645 -0.2235  0.4959
 3755TIP3    H132756   4.532   3.512   1.879  0.1050 -0.7499  0.8583
 3755TIP3    H232757   4.450   3.579   1.987 -0.0869  1.9218 -0.8436
 3756TIP3   OH232758   3.257   3.387   4.232 -0.1789  0.4351  0.1445
 3756TIP3    H132759   3.268   3.481   4.242 -1.8336  0.6381  0.4209
 3756TIP3    H232760   3.259   3.353   4.322 -0.9637  0.4126  0.1669
 3757TIP3   OH232761   2.385   5.950   0.385 -0.5502  0.6167 -0.3259
 3757TIP3    H132762   2.447   6.023   0.388 -1.7371  1.6609 -0.4984
 3757TIP3    H232763   2.307   5.982   0.430 -1.3214 -0.3117 -0.9530
 3758TIP3   OH232764   3.182   0.316   5.196 -0.0323  0.2396  0.3392
 3758TIP3    H132765   3.102   0.272   5.167 -0.0332  1.2153 -1.2472
 3758TIP3    H232766   3.169   0.408   5.174  1.0576  0.6063  1.1262
 3759TIP3   OH232767   3.126   1.408  12.816  0.0219 -0.4194 -0.4434
 3759TIP3    H132768   3.121   1.498  12.784 -1.7556  0.1235  1.1883
 3759TIP3    H232769   3.050   1.365  12.778 -2.0538  0.1992  2.6274
 3760TIP3   OH232770   0.359   6.203   2.062  0.6044 -0.5576 -0.2088
 3760TIP3    H132771   0.356   6.291   2.023  0.3650  0.0290  1.0842
 3760TIP3    H232772   0.334   6.216   2.153 -0.1006 -2.0861 -0.1524
 3761TIP3   OH232773   0.087   1.911   0.505  0.0654 -0.2926  0.0401
 3761TIP3    H132774   0.016   1.908   0.441 -0.5189 -0.8499  0.6907
 3761TIP3    H232775   0.089   2.002   0.535  0.0039 -0.1482 -0.3928
 3762TIP3   OH232776   1.814   0.645  12.118  0.0012  0.1648  0.3045
 3762TIP3    H132777   1.796   0.717  12.058  0.7201 -0.1577 -0.3277
 3762TIP3    H232778   1.732   0.595  12.122 -0.6947  1.3400  1.2342
 3763TIP3   OH232779   3.893   4.326   1.544  0.1987  0.1342 -0.2368
 3763TIP3    H132780   3.844   4.277   1.609 -0.1675 -0.2361 -0.7808
 3763TIP3    H232781   3.833   4.334   1.470  0.4128  1.0125 -0.3252
 3764TIP3   OH232782   3.748   1.312  11.682  0.4957 -0.1541  0.2847
 3764TIP3    H132783   3.768   1.315  11.588 -0.1115  1.4571  0.1845
 3764TIP3    H232784   3.805   1.243  11.716  1.7461  0.1901 -1.0188
 3765TIP3   OH232785   1.107   6.514   2.734  0.4248 -0.3187 -0.2948
 3765TIP3    H132786   1.011   6.511   2.728  0.2554  1.5669  0.4721
 3765TIP3    H232787   1.134   6.423   2.739 -1.2434 -0.9412 -1.6031
 3766TIP3   OH232788   0.349   1.176   1.287 -0.5149 -0.0895  0.2798
 3766TIP3    H132789   0.323   1.263   1.319 -0.3462 -0.4652  1.4634
 3766TIP3    H232790   0.282   1.117   1.320 -0.8759 -0.3666 -0.9025
 3767TIP3   OH232791   0.731   3.550   5.281 -0.3283 -0.2620  0.3080
 3767TIP3    H132792   0.759   3.472   5.234 -2.2189 -0.1071 -1.2134
 3767TIP3    H232793   0.789   3.620   5.247 -0.0188 -0.6136  0.1034
 3768TIP3   OH232794   2.613   2.549  12.876  0.3824  0.2235  0.0896
 3768TIP3    H132795   2.550   2.521  12.941  1.3204 -0.6560  0.6608
 3768TIP3    H232796   2.564   2.605  12.816 -0.8576 -0.2312  0.6587
 3769TIP3   OH232797   1.820   4.894  16.248  0.2184 -0.4536 -0.6831
 3769TIP3    H132798   1.830   4.815  16.301 -1.5782 -1.1861 -1.3287
 3769TIP3    H232799   1.807   4.862  16.158 -1.4990  0.4704 -0.8213
 3770TIP3   OH232800   1.065   3.366   5.104  0.2413 -0.1307 -0.1536
 3770TIP3    H132801   0.983   3.389   5.061 -1.3133  0.4872  2.8741
 3770TIP3    H232802   1.093   3.447   5.147  0.2883 -1.2305  2.0426
 3771TIP3   OH232803   6.456   3.356  12.759 -0.7481  0.2267  0.5018
 3771TIP3    H132804   6.380   3.413  12.743 -1.8762 -0.9809  1.3306
 3771TIP3    H232805   6.438   3.316  12.844  1.4324  0.8084  1.2805
 3772TIP3   OH232806   6.336   6.374  12.857  0.2669  0.0403 -0.6808
 3772TIP3    H132807   6.300   6.404  12.941 -0.8417  1.6498 -1.6618
 3772TIP3    H232808   6.431   6.385  12.866  0.1841 -0.0266  0.4350
 3773TIP3   OH232809   0.451   3.004   1.295  0.4745  0.2644  0.7150
 3773TIP3    H132810   0.422   2.969   1.379 -0.9899 -0.8176 -0.1837
 3773TIP3    H232811   0.454   2.927   1.237  0.6698  1.0971 -0.4072
 3774TIP3   OH232812   4.685   5.570  11.923  0.3494 -0.1967  0.1711
 3774TIP3    H132813   4.661   5.486  11.963  0.9710  0.1517  1.3001
 3774TIP3    H232814   4.634   5.635  11.970 -0.2062  0.0695 -0.7746
 3775TIP3   OH232815   1.961   0.673  16.798 -0.3507 -0.2169 -0.0104
 3775TIP3    H132816   1.932   0.741  16.737 -0.4038  0.6050  0.9036
 3775TIP3    H232817   2.054   0.689  16.809 -0.4153 -0.1186  0.4148
 3776TIP3   OH232818   2.259   0.147  15.426  0.6622 -0.2937  0.3717
 3776TIP3    H132819   2.280   0.053  15.427  1.7575 -0.0542  1.3643
 3776TIP3    H232820   2.191   0.157  15.493  0.1066 -0.4456 -0.1477
 3777TIP3   OH232821   4.809   1.599   3.484 -0.0169 -0.2898  0.2041
 3777TIP3    H132822   4.905   1.595   3.494  0.3273  1.8242 -1.4428
 3777TIP3    H232823   4.776   1.610   3.573  1.3546 -0.1968  0.7280
 3778TIP3   OH232824   3.617   2.561   2.656  0.1155 -0.0079  0.5876
 3778TIP3    H132825   3.541   2.578   2.711 -0.3500 -0.5086  0.1203
 3778TIP3    H232826   3.605   2.471   2.626 -0.4336  0.6927 -1.4881
 3779TIP3   OH232827   0.287   6.023   0.706  0.3224 -0.1108 -0.2869
 3779TIP3    H132828   0.293   6.061   0.618 -0.5263  1.3789  0.2593
 3779TIP3    H232829   0.375   6.033   0.742  0.1625  1.2279 -0.2260
 3780TIP3   OH232830   1.119   1.193  12.277 -0.1018  0.4207 -0.3627
 3780TIP3    H132831   1.045   1.167  12.333 -0.0618  0.1111 -0.4526
 3780TIP3    H232832   1.102   1.150  12.193  1.9976 -2.6855  0.6230
 3781TIP3   OH232833   1.854   3.333   0.276 -0.1673  0.0704 -0.1619
 3781TIP3    H132834   1.822   3.315   0.365 -0.0925  0.2774 -0.0926
 3781TIP3    H232835   1.854   3.248   0.233 -2.5208  0.2706 -0.7192
 3782TIP3   OH232836   1.545   5.290  12.904 -0.1480 -0.3556  0.3009
 3782TIP3    H132837   1.557   5.329  12.990 -1.9481  3.0054 -0.7764
 3782TIP3    H232838   1.461   5.325  12.873 -0.9291 -3.5956 -1.7851
 3783TIP3   OH232839   6.374   2.907  11.358 -0.1610  0.2785 -0.1685
 3783TIP3    H132840   6.414   2.937  11.276 -0.4433  0.5061 -0.2244
 3783TIP3    H232841   6.282   2.894  11.336  0.3383 -2.9294 -0.7883
 3784TIP3   OH232842   2.176   0.238   4.344 -0.1413 -0.0182 -0.3954
 3784TIP3    H132843   2.195   0.179   4.271  0.5822  0.8323 -0.9221
 3784TIP3    H232844   2.092   0.278   4.321  0.6164  1.0987 -1.3685
 3785TIP3   OH232845   3.207   6.285  11.080  0.8006 -0.3053  0.6989
 3785TIP3    H132846   3.232   6.369  11.118  0.3784  0.3508 -0.4035
 3785TIP3    H232847   3.289   6.250  11.044  0.6548  0.6074 -0.6096
 3786TIP3   OH232848   0.458   0.925  12.810 -0.4322 -0.1963  0.3203
 3786TIP3    H132849   0.474   1.003  12.863 -0.3197 -0.1842  0.2673
 3786TIP3    H232850   0.425   0.959  12.727  1.5861 -0.0785 -0.4949
 3787TIP3   OH232851   0.944   6.045  16.600  0.1779 -0.2666  0.4677
 3787TIP3    H132852   0.851   6.068  16.595  0.1425  0.3202  2.8392
 3787TIP3    H232853   0.982   6.109  16.659  1.9157 -1.0816  0.3075
 3788TIP3   OH232854   6.268   3.847   3.133 -0.1595  0.0932  0.1168
 3788TIP3    H132855   6.245   3.866   3.224 -0.8624 -0.4180  0.0646
 3788TIP3    H232856   6.246   3.754   3.123  0.1737  0.0789 -0.4938
 3789TIP3   OH232857   4.321   0.031   5.752  0.4356 -0.1954  0.4830
 3789TIP3    H132858   4.409   0.066   5.740  0.0776  0.8960  0.8937
 3789TIP3    H232859   4.299  -0.007   5.667 -0.2722  3.2542 -1.0452
 3790TIP3   OH232860   0.488   5.842  13.534  0.5657  0.3408  0.3707
 3790TIP3    H132861   0.537   5.776  13.485 -0.3457  0.3269 -0.5349
 3790TIP3    H232862   0.555   5.885  13.589  1.2956 -0.7916  0.3911
 3791TIP3   OH232863   3.624   0.255  14.012 -0.2967  0.6924  0.2048
 3791TIP3    H132864   3.610   0.163  13.989  0.1926  0.7136 -0.1910
 3791TIP3    H232865   3.572   0.303  13.947  0.3871  0.7241 -0.3375
 3792TIP3   OH232866   1.073   5.872  14.698 -0.0175 -0.0906  0.2369
 3792TIP3    H132867   1.147   5.872  14.637 -0.1592 -0.4099  0.0642
 3792TIP3    H232868   1.009   5.931  14.659  0.0134 -0.0628  0.2277
 3793TIP3   OH232869   6.566   4.695  14.006  0.6477  0.1342 -0.1664
 3793TIP3    H132870   6.652   4.731  14.028  0.4514  0.1470  0.6247
 3793TIP3    H232871   6.519   4.767  13.965  0.9427  0.1885 -0.4128
 3794TIP3   OH232872   3.956   2.140  11.529  0.1528 -0.3549 -0.0290
 3794TIP3    H132873   3.959   2.212  11.466 -3.6662 -0.6416 -0.7943
 3794TIP3    H232874   3.943   2.182  11.613 -0.5279 -0.0987 -0.2594
 3795TIP3   OH232875   1.551   4.607  12.021 -0.3240 -0.7657 -0.5573
 3795TIP3    H132876   1.601   4.529  12.045 -0.1493 -0.4638  0.0904
 3795TIP3    H232877   1.616   4.678  12.023 -0.3979 -0.6619 -1.5222
 3796TIP3   OH232878   1.641   1.183   3.880 -0.5819 -0.4198 -0.0074
 3796TIP3    H132879   1.575   1.243   3.844 -0.3207 -0.0029  0.2016
 3796TIP3    H232880   1.628   1.101   3.832 -1.0317 -0.2381 -0.2007
 3797TIP3   OH232881   1.585   2.496  12.962  0.1182 -0.0917 -0.0833
 3797TIP3    H132882   1.649   2.493  12.891 -0.3242 -0.6687 -0.4595
 3797TIP3    H232883   1.632   2.462  13.038  0.5344  0.3474 -0.1378
 3798TIP3   OH232884   1.879   1.718   6.035  0.1200 -0.5026 -0.4185
 3798TIP3    H132885   1.971   1.723   6.058  0.7326 -1.9207 -2.3155
 3798TIP3    H232886   1.833   1.751   6.112  2.1557 -0.7765  0.9856
 3799TIP3   OH232887   1.206   2.680  12.103  0.0492  0.1853 -0.4859
 3799TIP3    H132888   1.242   2.756  12.058 -1.3129  1.6342  0.7422
 3799TIP3    H232889   1.113   2.680  12.079 -0.2305 -0.3226  0.5380
 3800TIP3   OH232890   4.536   0.950  11.748  0.1372  0.2782 -0.0880
 3800TIP3    H132891   4.574   1.038  11.751 -0.5653  0.5757  2.0264
 3800TIP3    H232892   4.446   0.962  11.779 -0.0030 -1.1571  0.1391
 3801TIP3   OH232893   3.473   4.597  13.833  1.4462 -0.4249  0.0906
 3801TIP3    H132894   3.475   4.541  13.756  1.1786 -0.6135  0.2173
 3801TIP3    H232895   3.434   4.679  13.802  0.2468 -0.9074  0.2785
 3802TIP3   OH232896   2.556   6.801  13.093 -0.0322  0.1685  0.4311
 3802TIP3    H132897   2.616   6.832  13.160  1.8230 -1.4557 -0.3839
 3802TIP3    H232898   2.527   6.715  13.124  1.0931 -0.7529 -0.9062
 3803TIP3   OH232899   4.398   0.461  16.051  0.7220  0.4930 -0.5165
 3803TIP3    H132900   4.435   0.532  15.998  0.7820 -0.7776 -2.2430
 3803TIP3    H232901   4.474   0.414  16.085  0.6718  0.5839 -0.2711
 3804TIP3   OH232902   1.284   5.425  11.292  0.0727 -0.1717 -0.9040
 3804TIP3    H132903   1.224   5.384  11.229 -0.1040 -0.5403 -0.4991
 3804TIP3    H232904   1.268   5.519  11.282 -0.8442 -0.2833 -0.5353
 3805TIP3   OH232905   2.597   5.090   2.346 -0.2418 -0.1530 -0.6957
 3805TIP3    H132906   2.629   5.179   2.330 -0.4377 -0.2855 -1.9094
 3805TIP3    H232907   2.677   5.038   2.358 -0.1299  0.1931  0.1297
 3806TIP3   OH232908   2.745   1.167   5.875 -0.0880  0.1834  0.4503
 3806TIP3    H132909   2.761   1.172   5.970  2.5374 -0.3846  0.1283
 3806TIP3    H232910   2.782   1.248   5.841 -0.1074 -0.0748 -0.1868
 3807TIP3   OH232911   4.605   5.271   5.929 -0.5433  0.1512  0.2401
 3807TIP3    H132912   4.610   5.177   5.945  2.0276  0.1682 -0.1824
 3807TIP3    H232913   4.541   5.302   5.994  2.5814 -1.0999  4.3321
 3808TIP3   OH232914   2.839   1.865   3.523  1.0199 -0.2274  0.0300
 3808TIP3    H132915   2.761   1.894   3.475  0.4587 -0.8146  0.5739
 3808TIP3    H232916   2.811   1.787   3.570  1.7106  0.0277  0.8963
 3809TIP3   OH232917   3.718   2.675   4.685 -0.2154 -0.0831 -0.3312
 3809TIP3    H132918   3.722   2.584   4.655 -0.9177 -0.3687  0.4159
 3809TIP3    H232919   3.625   2.696   4.688 -0.0389  1.0792 -1.6684
 3810TIP3   OH232920   1.054   3.498  11.284  0.0427 -0.2672 -0.1096
 3810TIP3    H132921   0.971   3.485  11.238  0.3967 -0.1237 -0.8021
 3810TIP3    H232922   1.065   3.593  11.289 -0.0701 -0.2796  0.4185
 3811TIP3   OH232923   1.745   3.440   2.785  0.4228 -0.2757  0.8514
 3811TIP3    H132924   1.756   3.523   2.739 -0.1975  0.9156  2.7167
 3811TIP3    H232925   1.790   3.453   2.869 -1.6970 -0.9168  2.1768
 3812TIP3   OH232926   2.165   5.136   3.621  0.7706  0.3529  0.2101
 3812TIP3    H132927   2.102   5.203   3.645 -1.4622 -1.4830 -0.1154
 3812TIP3    H232928   2.166   5.137   3.525  1.9821  0.9756  0.2126
 3813TIP3   OH232929   6.770   6.499  11.751 -0.7791 -0.4565 -0.5523
 3813TIP3    H132930   6.863   6.519  11.757 -0.6335 -1.4231  1.2774
 3813TIP3    H232931   6.727   6.577  11.786 -0.6488 -0.1864 -0.9832
 3814TIP3   OH232932   0.184   6.705  12.598  0.0311 -0.0533 -0.3003
 3814TIP3    H132933   0.231   6.776  12.553  0.2694  0.1683  0.2905
 3814TIP3    H232934   0.195   6.724  12.691 -0.9534 -0.1859 -0.1493
 3815TIP3   OH232935   4.844   4.748  16.749 -0.3913  0.1208  0.0430
 3815TIP3    H132936   4.794   4.787  16.821 -0.7846  0.6470 -0.5089
 3815TIP3    H232937   4.935   4.756  16.777 -0.4761  1.1910  0.0794
 3816TIP3   OH232938   5.935   5.492  15.192  0.3499 -0.6332 -0.1627
 3816TIP3    H132939   5.966   5.429  15.127  1.9816  0.5513 -0.5947
 3816TIP3    H232940   5.879   5.552  15.142 -0.3884 -1.1315  0.0477
 3817TIP3   OH232941   6.364   5.842   0.846  0.0143 -0.1142 -0.1700
 3817TIP3    H132942   6.361   5.772   0.910  0.7530 -1.1617 -1.2354
 3817TIP3    H232943   6.273   5.870   0.836 -0.1123  0.0602  1.2880
 3818TIP3   OH232944   2.788   2.098  16.194 -0.0140  0.5857 -0.2216
 3818TIP3    H132945   2.782   2.097  16.099  3.4332 -2.5005 -0.5958
 3818TIP3    H232946   2.759   2.012  16.222  0.9232  0.7127  1.2990
 3819TIP3   OH232947   3.222   3.360  13.351 -0.2430 -0.1959  0.3036
 3819TIP3    H132948   3.303   3.363  13.402 -0.5380  1.2235  0.7363
 3819TIP3    H232949   3.240   3.414  13.274 -0.4039 -0.8449 -0.2029
 3820TIP3   OH232950   2.348   3.110   2.661  0.6407  0.2714 -0.3099
 3820TIP3    H132951   2.296   3.094   2.583  2.5015 -1.1778 -1.3298
 3820TIP3    H232952   2.429   3.150   2.629  0.9627  0.7346  1.0063
 3821TIP3   OH232953   5.526   3.854  12.953  0.6086  0.0420  0.2358
 3821TIP3    H132954   5.493   3.827  13.038  1.0189 -0.1389  0.3393
 3821TIP3    H232955   5.452   3.900  12.912  0.2821 -0.2242  0.5217
 3822TIP3   OH232956   0.059   1.169  10.985 -0.0454 -0.1294  0.0832
 3822TIP3    H132957   0.026   1.225  11.055 -0.3599  0.1759 -0.3068
 3822TIP3    H232958   0.142   1.136  11.019 -0.6921 -0.8433  1.0461
 3823TIP3   OH232959   2.338   1.204   2.957 -0.4581  0.2824 -0.3453
 3823TIP3    H132960   2.393   1.271   2.916 -0.0889 -0.0168 -0.3418
 3823TIP3    H232961   2.288   1.252   3.024  0.5334  0.3890  0.3379
 3824TIP3   OH232962   4.363   0.392   6.665  0.3071 -0.0062  0.5828
 3824TIP3    H132963   4.330   0.343   6.741 -0.4681 -0.9997 -0.3733
 3824TIP3    H232964   4.314   0.474   6.666 -2.3026 -1.4178 -0.7795
 3825TIP3   OH232965   2.818   2.158   3.122 -0.2972 -0.0399  0.0765
 3825TIP3    H132966   2.809   2.101   3.045  0.6436 -0.9154  0.6006
 3825TIP3    H232967   2.874   2.229   3.092 -0.6169  0.0656 -0.2838
 3826TIP3   OH232968   1.325   1.382   5.494  0.3775  0.3687 -0.7820
 3826TIP3    H132969   1.306   1.291   5.519  0.4107  0.7779  0.8486
 3826TIP3    H232970   1.315   1.431   5.575  3.3736  1.3803 -0.9168
 3827TIP3   OH232971   4.683   2.196   4.353 -0.0967 -0.4979 -0.2543
 3827TIP3    H132972   4.703   2.179   4.261 -0.6175 -1.0499 -0.2714
 3827TIP3    H232973   4.743   2.266   4.378 -0.2970  0.0176 -1.1580
 3828TIP3   OH232974   5.310   5.753   0.487  0.4044 -0.3605 -0.2995
 3828TIP3    H132975   5.282   5.670   0.527  0.1020 -0.2038 -0.1772
 3828TIP3    H232976   5.391   5.732   0.442  0.7329 -0.5614  0.3609
 3829TIP3   OH232977   0.892   0.680  16.893  0.0158  0.1142 -0.7080
 3829TIP3    H132978   0.979   0.714  16.874  0.0623  0.7132  0.4406
 3829TIP3    H232979   0.907   0.591  16.926  0.6742  1.5186  3.3290
 3830TIP3   OH232980   3.049   6.693   0.736 -0.1737 -0.3933  0.0739
 3830TIP3    H132981   3.101   6.754   0.683 -0.2757  0.2375  0.6945
 3830TIP3    H232982   2.985   6.748   0.781  0.1786 -0.8646  1.1911
 3831TIP3   OH232983   2.349   5.517  15.329  0.6351 -0.1619 -0.2216
 3831TIP3    H132984   2.274   5.462  15.351 -0.0378  0.5701 -0.6228
 3831TIP3    H232985   2.378   5.484  15.243  1.8765 -1.5645  0.6791
 3832TIP3   OH232986   1.597   6.494   0.440 -0.3526  0.2736 -0.0701
 3832TIP3    H132987   1.523   6.435   0.422  0.1069 -0.3535  0.0851
 3832TIP3    H232988   1.601   6.550   0.363 -1.6493  1.0191  0.3626
 3833TIP3   OH232989   0.421   2.114   2.359  0.4395 -0.4853  0.2478
 3833TIP3    H132990   0.451   2.180   2.297  1.8733 -0.9115  0.4659
 3833TIP3    H232991   0.402   2.037   2.305  1.8995 -0.9289  0.3290
 3834TIP3   OH232992   4.243   0.407  15.841 -0.5618  0.5789 -0.2567
 3834TIP3    H132993   4.188   0.329  15.849 -0.6344  0.5067 -1.3074
 3834TIP3    H232994   4.313   0.394  15.905 -0.7280 -0.2193 -0.2250
 3835TIP3   OH232995   5.010   1.230   4.571 -0.4239 -0.3336  0.2696
 3835TIP3    H132996   4.969   1.299   4.623 -0.9821  0.1597 -0.8068
 3835TIP3    H232997   4.994   1.150   4.621 -2.5998 -0.1379 -0.0209
 3836TIP3   OH232998   3.372   0.638  12.908 -0.8999 -0.9188  0.0087
 3836TIP3    H132999   3.440   0.571  12.917 -1.7442 -1.9083 -0.6550
 3836TIP3    H233000   3.405   0.713  12.957  0.4757 -1.5168  0.0432
 3837TIP3   OH233001   1.283   2.044   0.141 -0.0451  0.0271  0.3066
 3837TIP3    H133002   1.320   1.964   0.104  1.0179 -0.2596  1.8480
 3837TIP3    H233003   1.356   2.106   0.141 -0.4425  0.4966  0.4881
 3838TIP3   OH233004   0.520   2.665  13.292 -0.0026  0.3498 -0.4708
 3838TIP3    H133005   0.579   2.636  13.362 -2.1631  0.0999  1.3656
 3838TIP3    H233006   0.485   2.584  13.255 -0.3143  0.5058 -0.5217
 3839TIP3   OH233007   4.534   6.458  15.352 -0.4084  0.0479 -0.2111
 3839TIP3    H133008   4.556   6.552  15.351 -1.4066  0.4630  3.2865
 3839TIP3    H233009   4.605   6.418  15.403 -1.4786 -0.5451  0.8736
 3840TIP3   OH233010   1.020   4.680   4.476 -0.2236  0.1325  0.1981
 3840TIP3    H133011   0.996   4.726   4.557 -0.8837  0.3854 -0.1332
 3840TIP3    H233012   1.113   4.701   4.463 -0.4675  1.2393  0.1439
 3841TIP3   OH233013   0.810   4.016  13.020  0.6689  0.0514 -0.0578
 3841TIP3    H133014   0.733   4.050  13.066  0.0634  0.3243 -1.2282
 3841TIP3    H233015   0.883   4.064  13.058  0.5992 -1.7625  2.6481
 3842TIP3   OH233016   3.091   4.655   0.458  0.1549 -0.2635  0.4393
 3842TIP3    H133017   3.037   4.629   0.384 -1.5251  0.7305  1.2687
 3842TIP3    H233018   3.118   4.745   0.437  2.1687 -0.9869 -0.3110
 3843TIP3   OH233019   0.364   2.342   5.982  0.2369 -0.3764  0.2771
 3843TIP3    H133020   0.289   2.307   6.030 -0.0377 -0.6922 -0.3593
 3843TIP3    H233021   0.328   2.368   5.897  1.0717 -1.8313 -0.5710
 3844TIP3   OH233022   0.818   4.261   6.223 -0.5353 -0.4795  0.7460
 3844TIP3    H133023   0.877   4.185   6.225 -1.1114 -0.9368  0.8657
 3844TIP3    H233024   0.806   4.280   6.130  0.0384 -0.1882  0.7268
 3845TIP3   OH233025   4.532   4.203   4.333  0.3934  0.6240  0.0642
 3845TIP3    H133026   4.554   4.254   4.255  1.3082 -0.0783 -0.1514
 3845TIP3    H233027   4.609   4.214   4.390  0.1055  0.4092  0.4975
 3846TIP3   OH233028   0.875   2.024  14.309  0.2164  0.1694  0.0259
 3846TIP3    H133029   0.876   1.934  14.276 -0.8006 -0.0342  0.5099
 3846TIP3    H233030   0.809   2.023  14.378 -0.2542  1.4392 -0.3889
 3847TIP3   OH233031   4.158   2.229   2.362 -0.1567  0.1818 -0.0941
 3847TIP3    H133032   4.114   2.183   2.434 -0.0946  1.2549  0.6545
 3847TIP3    H233033   4.229   2.171   2.337 -1.0690 -0.8930 -0.3058
 3848TIP3   OH233034   0.741   1.933   4.329  0.4877  0.0527  0.0936
 3848TIP3    H133035   0.709   2.008   4.279 -2.4243 -1.0924  0.0507
 3848TIP3    H233036   0.752   1.967   4.418 -2.4139  0.2715  0.4615
 3849TIP3   OH233037   3.591   2.665   6.324 -0.4982 -0.0539  0.4607
 3849TIP3    H133038   3.583   2.754   6.360  0.7356  1.0634 -1.8069
 3849TIP3    H233039   3.504   2.628   6.333 -0.8494  1.0488  2.2329
 3850TIP3   OH233040   2.361   3.315   4.228 -0.4161  0.4024 -0.2604
 3850TIP3    H133041   2.316   3.232   4.245 -1.8094  0.6355 -2.4435
 3850TIP3    H233042   2.292   3.381   4.239  0.1551  1.0699 -0.6524
 3851TIP3   OH233043   4.560   4.894  15.996  0.0244  0.1762 -0.8562
 3851TIP3    H133044   4.619   4.941  16.056 -0.3879 -0.6506  0.2440
 3851TIP3    H233045   4.608   4.890  15.913  0.7059  1.1705 -0.5292
 3852TIP3   OH233046   1.630   4.055  12.373 -0.0094 -0.2450  0.3438
 3852TIP3    H133047   1.715   4.057  12.417 -0.1418  0.1517  0.5939
 3852TIP3    H233048   1.647   4.015  12.288  0.7687  1.3240 -0.2885
 3853TIP3   OH233049   2.783   1.474   3.071  0.2868 -1.0734  0.3810
 3853TIP3    H133050   2.767   1.467   3.165 -1.7465  0.6029  0.2432
 3853TIP3    H233051   2.876   1.493   3.063  0.2522  0.0720  2.1613
 3854TIP3   OH233052   3.559   1.557  11.020  0.2345  0.1232 -0.4796
 3854TIP3    H133053   3.528   1.468  11.036  3.3626 -1.0368 -0.0341
 3854TIP3    H233054   3.553   1.601  11.105  2.0088 -0.8961  0.2273
 3855TIP3   OH233055   2.692   6.671   0.863  0.1820 -0.0400  0.4308
 3855TIP3    H133056   2.672   6.761   0.838  0.4172 -0.2457 -0.5401
 3855TIP3    H233057   2.625   6.619   0.818 -0.9134 -0.2567  2.2083
 3856TIP3   OH233058   5.489   0.211   1.629  0.4148 -0.1444  0.1029
 3856TIP3    H133059   5.394   0.209   1.640  0.3925  0.0709 -0.0344
 3856TIP3    H233060   5.506   0.162   1.549  0.2083  1.6995 -1.1345
 3857TIP3   OH233061   0.721   0.733   4.637 -0.6286  0.0347  0.1531
 3857TIP3    H133062   0.794   0.753   4.695  0.0051 -1.5871 -0.0104
 3857TIP3    H233063   0.674   0.662   4.681 -2.6132  1.5307  0.6251
 3858TIP3   OH233064   0.967   4.589  13.374 -0.1203 -0.0394 -0.5166
 3858TIP3    H133065   0.963   4.510  13.321 -0.9594  1.0060 -2.0942
 3858TIP3    H233066   0.928   4.565  13.457 -0.6868 -1.1874 -1.0984
 3859TIP3   OH233067   0.928   5.345  15.067 -0.0708  0.0533  0.0467
 3859TIP3    H133068   1.005   5.356  15.011 -0.4108  1.2671 -0.1991
 3859TIP3    H233069   0.919   5.250  15.076  0.6755 -0.1354 -1.0009
 3860TIP3   OH233070   1.876   3.772  13.098 -0.1782 -0.3328 -0.3907
 3860TIP3    H133071   1.933   3.809  13.030 -0.9762  0.2409 -0.7627
 3860TIP3    H233072   1.935   3.751  13.170  1.1345 -3.3855 -2.1746
 3861TIP3   OH233073   4.205   4.366  16.013 -0.2269 -0.1294 -0.8751
 3861TIP3    H133074   4.124   4.322  16.036  1.1914 -1.7379  1.4533
 3861TIP3    H233075   4.181   4.459  16.006 -2.1588 -0.4983  0.2124
 3862TIP3   OH233076   2.765   3.814  15.940  0.4271 -0.5256 -0.1176
 3862TIP3    H133077   2.723   3.899  15.947  1.9694  0.3067 -0.4450
 3862TIP3    H233078   2.713   3.766  15.876 -0.6377  0.0496  0.2910
 3863TIP3   OH233079   2.573   0.961   0.062  0.2335 -0.0390 -0.0771
 3863TIP3    H133080   2.633   0.887   0.053  0.4929  0.1187  0.3218
 3863TIP3    H233081   2.629   1.038   0.055 -0.0976  0.1308 -0.9327
 3864TIP3   OH233082   3.820   3.917   1.357  0.5094 -0.1450 -0.1386
 3864TIP3    H133083   3.823   3.928   1.452 -0.1380 -0.0290 -0.1222
 3864TIP3    H233084   3.740   3.963   1.331  0.5053 -0.4623 -0.6997
 3865TIP3   OH233085   5.114   1.297  13.266 -0.2376  0.1020 -0.3092
 3865TIP3    H133086   5.067   1.370  13.306 -1.7561 -1.2980  0.5977
 3865TIP3    H233087   5.121   1.320  13.174 -2.4871  0.5292 -0.4283
 3866TIP3   OH233088   2.128   4.184   5.342  0.7300 -0.3072  0.1729
 3866TIP3    H133089   2.147   4.180   5.436  0.9762 -1.5900  0.0922
 3866TIP3    H233090   2.047   4.234   5.336  1.8480  1.7279  0.8708
 3867TIP3   OH233091   6.644   0.682  12.854  0.2551 -0.0628 -0.1027
 3867TIP3    H133092   6.720   0.724  12.893  2.3377 -1.5136 -2.2763
 3867TIP3    H233093   6.633   0.727  12.770 -1.7621  0.5568  0.4403
 3868TIP3   OH233094   3.338   4.371   2.300 -0.3753  0.5032  0.4944
 3868TIP3    H133095   3.352   4.461   2.270 -0.8017  0.4220  0.0424
 3868TIP3    H233096   3.295   4.380   2.385  0.3954  0.7300  0.8756
 3869TIP3   OH233097   4.891   1.285   0.618 -0.2786 -0.6799  0.2629
 3869TIP3    H133098   4.841   1.357   0.657  0.1314  0.0847 -0.5866
 3869TIP3    H233099   4.829   1.240   0.561 -0.0584  0.1924 -0.6933
 3870TIP3   OH233100   5.828   6.550   2.128  0.3949  0.1787 -0.0249
 3870TIP3    H133101   5.837   6.556   2.033  2.0603  1.6913  0.1902
 3870TIP3    H233102   5.916   6.532   2.160 -0.5049 -2.9249  1.1430
 3871TIP3   OH233103   2.452   6.222   5.009 -0.2241  0.6255  0.3028
 3871TIP3    H133104   2.368   6.187   4.979 -1.0061  0.5047  2.4714
 3871TIP3    H233105   2.515   6.153   4.988 -0.3902  1.1653 -2.3645
 3872TIP3   OH233106   2.992   5.529   3.136 -0.5052 -0.4125 -0.7929
 3872TIP3    H133107   2.913   5.583   3.129  0.1777  0.8244  0.5109
 3872TIP3    H233108   2.959   5.441   3.151 -1.6505 -0.3837 -2.7854
 3873TIP3   OH233109   2.066   1.526   1.043  0.1553 -0.2286 -0.8368
 3873TIP3    H133110   2.154   1.496   1.066  0.0571 -0.2423 -0.4715
 3873TIP3    H233111   2.021   1.534   1.127 -0.0459  0.2416 -0.9890
 3874TIP3   OH233112   3.116   2.432  13.843 -0.5970  0.0898  0.1402
 3874TIP3    H133113   3.150   2.521  13.845 -0.1061 -0.0966  0.5401
 3874TIP3    H233114   3.174   2.383  13.901 -0.1066 -0.7555 -1.0085
 3875TIP3   OH233115   1.868   6.564   1.121 -0.4347  0.1104  0.7147
 3875TIP3    H133116   1.859   6.649   1.166  1.9844 -1.1479  3.9693
 3875TIP3    H233117   1.785   6.520   1.138 -0.8958  1.0047  0.8859
 3876TIP3   OH233118   4.304   1.425  12.960 -0.2674  0.5836  0.3330
 3876TIP3    H133119   4.385   1.469  12.986 -0.6550  0.5265  1.7471
 3876TIP3    H233120   4.249   1.428  13.038 -1.5677  0.4586 -0.5407
 3877TIP3   OH233121   1.115   4.002   3.106  0.4946  0.1617  0.4579
 3877TIP3    H133122   1.163   4.060   3.165 -0.9212 -0.1956  2.0416
 3877TIP3    H233123   1.051   3.959   3.162 -1.2226  0.1343 -1.4100
 3878TIP3   OH233124   4.194   0.149   5.086  0.0594 -0.2277  0.9013
 3878TIP3    H133125   4.170   0.089   5.016 -1.0783  0.5145  0.6313
 3878TIP3    H233126   4.241   0.220   5.042  0.7935 -0.5559  1.1294
 3879TIP3   OH233127   4.542   2.906   3.900  0.0136  0.3739 -0.4968
 3879TIP3    H133128   4.450   2.909   3.872 -0.0912  0.6462 -0.1274
 3879TIP3    H233129   4.538   2.910   3.995  0.3574 -0.8921 -0.4078
 3880TIP3   OH233130   6.665   6.761  14.526 -0.1703  0.4697 -0.7578
 3880TIP3    H133131   6.573   6.740  14.511  0.0658  0.0112 -1.6416
 3880TIP3    H233132   6.708   6.676  14.534  0.0698  0.6876  0.3644
 3881TIP3   OH233133   3.920   5.620  16.278  0.4149  0.5333  0.5412
 3881TIP3    H133134   3.859   5.557  16.240  0.8903  0.3876  0.0095
 3881TIP3    H233135   3.961   5.661  16.203 -1.7482  3.4046  0.7538
 3882TIP3   OH233136   4.685   1.925  13.778  0.2429 -0.7698 -0.3402
 3882TIP3    H133137   4.707   2.003  13.829  1.2219 -1.0521 -0.3040
 3882TIP3    H233138   4.597   1.901  13.808  0.0934  0.0871 -0.0709
 3883TIP3   OH233139   3.344   4.012   3.763  0.4319  0.8190 -0.3986
 3883TIP3    H133140   3.275   4.011   3.830  1.0529  1.5102  0.2744
 3883TIP3    H233141   3.421   4.046   3.809  0.5807  2.4318 -1.7414
 3884TIP3   OH233142   0.469   1.660  14.699 -0.3570 -0.1987 -0.6132
 3884TIP3    H133143   0.420   1.684  14.619 -1.1233 -0.9561 -0.3933
 3884TIP3    H233144   0.521   1.584  14.673  0.0167  0.0587 -0.6106
 3885TIP3   OH233145   2.607   5.974  11.508  0.4130 -0.2311  0.3861
 3885TIP3    H133146   2.644   6.056  11.542 -2.1304  1.0047  0.3890
 3885TIP3    H233147   2.597   5.918  11.586  0.1722  0.2759  0.7236
 3886TIP3   OH233148   3.880   0.432   5.090 -0.1336 -0.2087 -0.1008
 3886TIP3    H133149   3.938   0.435   5.014 -2.0255 -2.9899 -1.8534
 3886TIP3    H233150   3.897   0.514   5.136  2.9462  0.4565 -2.0963
 3887TIP3   OH233151   4.372   2.691  12.185  0.4354 -0.1943  0.6952
 3887TIP3    H133152   4.354   2.597  12.177  1.3483 -0.3756  0.7217
 3887TIP3    H233153   4.420   2.713  12.105  0.7679  0.1186  0.9804
 3888TIP3   OH233154   5.865   6.060   1.319  0.5533  0.2618  0.4077
 3888TIP3    H133155   5.956   6.090   1.326  0.6779 -0.2964  1.4945
 3888TIP3    H233156   5.813   6.140   1.321  0.9788  0.5355  0.9243
 3889TIP3   OH233157   4.167   4.051   2.234  0.1640  0.1427  0.4318
 3889TIP3    H133158   4.132   4.092   2.314  0.7437  1.1296  0.1981
 3889TIP3    H233159   4.246   4.006   2.263 -1.5113 -2.6497  1.0902
 3890TIP3   OH233160   3.366   1.543  16.764 -0.5414  0.2772 -0.2275
 3890TIP3    H133161   3.296   1.591  16.719 -1.4373 -1.3558 -0.6463
 3890TIP3    H233162   3.341   1.544  16.856 -1.1422 -0.3048 -0.3764
 3891TIP3   OH233163   2.279   6.574  16.797 -0.2213 -0.1354 -0.3276
 3891TIP3    H133164   2.316   6.493  16.763  0.2701  0.4256 -1.1954
 3891TIP3    H233165   2.189   6.575  16.766 -0.2205 -0.3379 -0.3338
 3892TIP3   OH233166   4.322   0.512   4.890 -0.3565  0.1940  0.6415
 3892TIP3    H133167   4.369   0.453   4.948 -0.5644 -0.2504  0.3633
 3892TIP3    H233168   4.332   0.599   4.929  3.8079  0.7915 -1.2267
 3893TIP3   OH233169   2.723   0.715  17.297  0.9875 -0.3430 -0.1904
 3893TIP3    H133170   2.676   0.687  17.219  0.7713  0.2247 -0.2726
 3893TIP3    H233171   2.816   0.708  17.273  0.9651 -1.8677  0.1165
 3894TIP3   OH233172   5.445   5.502   0.259  0.3395 -0.2248  0.0736
 3894TIP3    H133173   5.486   5.543   0.183 -1.2976  0.5111 -0.4625
 3894TIP3    H233174   5.499   5.529   0.333  1.2838  0.0325 -0.6861
 3895TIP3   OH233175   2.446   1.213  14.933 -0.4587  0.0760 -0.3509
 3895TIP3    H133176   2.441   1.163  14.852 -1.6077  0.5081 -0.5617
 3895TIP3    H233177   2.540   1.226  14.947 -0.2175 -0.6644 -1.1897
 3896TIP3   OH233178   4.695   5.042  13.136  0.0816  0.3648 -0.0749
 3896TIP3    H133179   4.679   4.969  13.076 -1.8796  0.4202  0.2922
 3896TIP3    H233180   4.747   5.004  13.207 -0.9812 -0.7316  0.1568
 3897TIP3   OH233181   0.608   3.367  10.971  0.0103 -0.1116 -0.6750
 3897TIP3    H133182   0.616   3.272  10.974 -1.9182 -0.3809 -2.0912
 3897TIP3    H233183   0.657   3.393  10.894 -0.9334 -0.1890 -1.3181
 3898TIP3   OH233184   4.595   4.669   0.792 -0.2948  0.0220 -0.4878
 3898TIP3    H133185   4.512   4.701   0.758  0.4091 -1.7221 -4.2880
 3898TIP3    H233186   4.660   4.734   0.764  0.2559 -1.3024 -2.5003
 3899TIP3   OH233187   4.848   5.182  15.325  0.2667  0.4876  0.4567
 3899TIP3    H133188   4.761   5.219  15.341  0.4334  0.9632  0.2802
 3899TIP3    H233189   4.889   5.243  15.263  0.8169  0.4024  0.7307
 3900TIP3   OH233190   2.833   2.790  11.888 -0.8102 -0.5604  0.3334
 3900TIP3    H133191   2.900   2.807  11.954 -1.8991  1.1366  1.0560
 3900TIP3    H233192   2.759   2.753  11.936 -1.6674  0.8205  0.1215
 3901TIP3   OH233193   3.521   5.938   0.674  0.0119 -0.5747 -0.3150
 3901TIP3    H133194   3.447   5.969   0.622 -1.6470 -0.6571  1.8328
 3901TIP3    H233195   3.555   6.017   0.717  1.0556 -0.5722 -1.1217
 3902TIP3   OH233196   5.327   3.947   4.238 -0.1331  0.3567  0.3253
 3902TIP3    H133197   5.277   3.881   4.191 -0.9962  1.5380 -0.4921
 3902TIP3    H233198   5.324   3.920   4.330 -1.1691 -0.2823  0.1165
 3903TIP3   OH233199   4.817   5.736  14.809  0.1425  0.5810  0.3049
 3903TIP3    H133200   4.724   5.714  14.806 -0.0226  1.3348 -0.7600
 3903TIP3    H233201   4.861   5.657  14.779 -0.1815  0.3699  0.3802
 3904TIP3   OH233202   4.023   2.627   1.575  0.3142 -0.9585  0.1829
 3904TIP3    H133203   4.020   2.669   1.489  0.5740 -2.7640 -0.7393
 3904TIP3    H233204   3.967   2.682   1.630 -0.5204 -0.2248 -1.3360
 3905TIP3   OH233205   5.870   4.959   0.072  0.0619  0.1140  0.6199
 3905TIP3    H133206   5.885   4.888   0.010 -0.9445 -0.4420  0.9944
 3905TIP3    H233207   5.779   4.986   0.056  0.6846  1.9235 -0.1174
 3906TIP3   OH233208   1.612   3.896   1.858 -0.8267 -0.6239  0.2800
 3906TIP3    H133209   1.706   3.877   1.854 -0.5381  0.6164  0.7989
 3906TIP3    H233210   1.574   3.820   1.902 -0.2474 -1.6691 -0.9384
 3907TIP3   OH233211   6.121   3.758   0.603  0.6110 -0.3876 -0.2330
 3907TIP3    H133212   6.118   3.810   0.683  1.2537  1.4010 -1.3120
 3907TIP3    H233213   6.071   3.679   0.623  0.5462  0.1275  1.8280
 3908TIP3   OH233214   5.615   5.120  12.429 -0.7501  0.0313 -0.4403
 3908TIP3    H133215   5.540   5.109  12.371 -0.1237 -2.0559 -0.9579
 3908TIP3    H233216   5.682   5.062  12.392 -0.2054 -1.1163  2.1671
 3909TIP3   OH233217   3.724   1.238  14.185 -0.1977  0.0345  0.0811
 3909TIP3    H133218   3.785   1.261  14.116 -0.8262  0.0281 -0.4880
 3909TIP3    H233219   3.735   1.144  14.197 -0.9806 -0.1963 -0.9050
 3910TIP3   OH233220   2.006   4.279  14.322  0.5473 -0.6051  0.6025
 3910TIP3    H133221   2.020   4.258  14.229  0.5910 -0.8654  0.6667
 3910TIP3    H233222   2.038   4.201  14.368 -1.4649 -1.4020  0.7494
 3911TIP3   OH233223   2.082   3.449  15.888 -0.2711 -0.8531  0.1159
 3911TIP3    H133224   2.032   3.431  15.968  1.1750 -0.6485  1.0988
 3911TIP3    H233225   2.076   3.544  15.876 -2.7323 -1.1342 -1.5921
 3912TIP3   OH233226   0.878   4.796   5.718  0.0638 -0.5261  0.3634
 3912TIP3    H133227   0.924   4.724   5.675 -1.0314  0.1104 -2.0402
 3912TIP3    H233228   0.855   4.856   5.647 -3.1508 -0.0841  1.6041
 3913TIP3   OH233229   0.727   3.989   2.949  0.5532  0.2032  0.3839
 3913TIP3    H133230   0.788   3.932   2.902  0.6320  0.8073 -0.2644
 3913TIP3    H233231   0.713   3.945   3.032  2.2886  0.3069  0.7725
 3914TIP3   OH233232   6.264   2.911   5.070 -0.3533  0.2528 -0.3516
 3914TIP3    H133233   6.196   2.884   5.008 -1.3771 -3.2184  1.9682
 3914TIP3    H233234   6.344   2.868   5.040 -0.7529 -1.0656  0.3694
 3915TIP3   OH233235   6.707   2.463  11.630 -0.1394 -0.1853  0.7279
 3915TIP3    H133236   6.635   2.407  11.660  0.7557 -1.4599  0.5510
 3915TIP3    H233237   6.763   2.473  11.707 -0.2827  0.4913  0.7572
 3916TIP3   OH233238   6.628   0.795   4.714 -0.3664  0.0255  0.7857
 3916TIP3    H133239   6.663   0.860   4.652 -0.9627 -0.9169 -0.5865
 3916TIP3    H233240   6.703   0.740   4.737 -0.5086 -0.8106 -0.6472
 3917TIP3   OH233241   6.424   1.463   4.608 -0.3343 -0.7560  0.2493
 3917TIP3    H133242   6.485   1.500   4.673 -2.3808 -0.5022  2.1568
 3917TIP3    H233243   6.434   1.369   4.618 -1.0061 -0.7277  1.3704
 3918TIP3   OH233244   5.888   4.614  12.296  0.3516 -0.0236 -0.0199
 3918TIP3    H133245   5.960   4.677  12.293 -1.8068  2.6176 -0.6776
 3918TIP3    H233246   5.868   4.596  12.204 -0.2019 -0.2815  0.1484
 3919TIP3   OH233247   2.083   1.769  13.931  0.0278  0.3150 -0.0544
 3919TIP3    H133248   2.108   1.859  13.911  2.4633 -0.0181  1.1238
 3919TIP3    H233249   2.165   1.720  13.930 -1.3328 -2.1301 -1.5490
 3920TIP3   OH233250   5.679   4.590   5.761 -0.2706 -0.2813 -0.2481
 3920TIP3    H133251   5.712   4.629   5.680  0.4363  0.1304  0.2321
 3920TIP3    H233252   5.709   4.499   5.758  1.1113  0.1388  0.2806
 3921TIP3   OH233253   2.918   2.729  15.117 -0.3689  0.2412  0.4389
 3921TIP3    H133254   2.897   2.690  15.201  0.0196 -0.8830  0.0365
 3921TIP3    H233255   2.962   2.659  15.068  0.3081  1.1748 -0.3324
 3922TIP3   OH233256   3.035   2.144  12.465  0.4651  0.2314  0.2570
 3922TIP3    H133257   3.041   2.052  12.441 -1.7876  0.0456  0.1385
 3922TIP3    H233258   3.126   2.173  12.474  1.2364 -1.7897 -0.4324
 3923TIP3   OH233259   5.617   5.787   1.404  0.4965  0.5861  0.1510
 3923TIP3    H133260   5.665   5.704   1.399 -1.7617 -0.8885  1.1281
 3923TIP3    H233261   5.637   5.831   1.322  1.8510 -0.8890 -0.3647
 3924TIP3   OH233262   1.191   3.869   2.048  0.1293 -0.3042  0.5339
 3924TIP3    H133263   1.115   3.891   1.994 -1.7106 -0.5138  2.9047
 3924TIP3    H233264   1.229   3.792   2.006 -1.7456 -0.9846 -0.0117
 3925TIP3   OH233265   3.034   5.448  10.733 -0.3781 -0.2768 -0.1386
 3925TIP3    H133266   3.051   5.423  10.824  0.0410 -0.6381 -0.3090
 3925TIP3    H233267   3.121   5.461  10.696 -0.5551  0.1059 -0.4250
 3926TIP3   OH233268   2.734   3.438  14.163 -0.4563 -0.0540 -0.7845
 3926TIP3    H133269   2.805   3.411  14.105  0.0734  1.3134 -0.8209
 3926TIP3    H233270   2.664   3.465  14.104 -1.0734 -1.5216 -0.7483
 3927TIP3   OH233271   2.262   5.944  16.248  0.1486  0.2768 -0.6657
 3927TIP3    H133272   2.259   5.989  16.332 -0.0293  0.5055 -0.7938
 3927TIP3    H233273   2.175   5.956  16.210  0.0656 -0.2586 -0.6605
 3928TIP3   OH233274   4.353   3.171   0.674 -0.0679  0.6960 -0.2333
 3928TIP3    H133275   4.342   3.230   0.748 -2.0130 -2.1733  1.9859
 3928TIP3    H233276   4.264   3.159   0.640  0.6565  1.1623 -2.5341
 3929TIP3   OH233277   2.064   3.575  12.276 -0.1359 -0.1115 -0.4778
 3929TIP3    H133278   2.112   3.610  12.201  0.2784  0.9064  0.2416
 3929TIP3    H233279   1.991   3.526  12.238  0.5367 -0.2989 -1.5487
 3930TIP3   OH233280   0.015   4.793  14.112 -0.5673  0.0461 -0.0466
 3930TIP3    H133281   0.023   4.709  14.157 -0.6198 -0.1636 -0.4236
 3930TIP3    H233282   0.097   4.838  14.132 -0.9840  0.3364  1.0188
 3931TIP3   OH233283   1.276   1.424   3.378  0.1361  0.0089 -0.0149
 3931TIP3    H133284   1.215   1.462   3.316  0.5069  0.8424  0.1119
 3931TIP3    H233285   1.360   1.467   3.360  0.2088  0.4264  1.1792
 3932TIP3   OH233286   4.214   5.428  13.687  0.0920 -0.3600 -0.5263
 3932TIP3    H133287   4.135   5.375  13.687  1.0883 -1.9594  0.7628
 3932TIP3    H233288   4.211   5.476  13.770  0.5726 -0.6117 -0.3573
 3933TIP3   OH233289   0.040   2.818  13.459  0.0056 -0.2814  0.9410
 3933TIP3    H133290   0.073   2.907  13.474 -0.5867 -0.1789  1.7510
 3933TIP3    H233291   0.118   2.764  13.453  0.6399  0.7275 -3.2567
 3934TIP3   OH233292   4.534   4.452   0.926  0.2390  0.2621 -0.2953
 3934TIP3    H133293   4.467   4.434   0.861  0.3645 -1.7505  0.0663
 3934TIP3    H233294   4.569   4.538   0.902 -1.3449  0.6304 -1.4223
 3935TIP3   OH233295   2.291   4.470  12.631 -0.3393  0.4058  0.3867
 3935TIP3    H133296   2.381   4.483  12.602 -0.3534  0.6261  0.4441
 3935TIP3    H233297   2.276   4.376  12.620  0.2562  0.1745  1.4074
 3936TIP3   OH233298   0.744   3.840   1.841 -0.5914  0.0707  0.3383
 3936TIP3    H133299   0.716   3.750   1.854 -0.6738 -0.2589 -1.7359
 3936TIP3    H233300   0.679   3.877   1.781  0.6302  0.8154 -0.5866
 3937TIP3   OH233301   4.948   0.035  14.591  0.1930 -0.1877  0.0384
 3937TIP3    H133302   5.043   0.041  14.578  0.0429  0.3203 -0.9082
 3937TIP3    H233303   4.921  -0.039  14.538 -0.1420  0.6055 -0.9245
 3938TIP3   OH233304   6.449   5.499  11.423  0.3297  0.1444 -0.4681
 3938TIP3    H133305   6.510   5.524  11.493  0.6767 -0.2833 -0.6180
 3938TIP3    H233306   6.484   5.542  11.345  1.2643 -1.2456 -0.8522
 3939TIP3   OH233307   3.198   5.244   2.811  0.5190  0.0221  0.0090
 3939TIP3    H133308   3.247   5.322   2.782  1.2894 -0.6127 -0.4267
 3939TIP3    H233309   3.259   5.198   2.869  0.1566 -0.3992  0.0553
 3940TIP3   OH233310   2.090   4.167  15.461  0.1173  0.1577  0.5368
 3940TIP3    H133311   2.103   4.097  15.397  2.0798  0.3986  0.6072
 3940TIP3    H233312   2.053   4.239  15.410  0.4154 -0.0981 -0.0502
 3941TIP3   OH233313   2.635   6.388  11.517  0.4657  0.5226  0.1802
 3941TIP3    H133314   2.570   6.327  11.484 -1.8250  2.1697  1.4075
 3941TIP3    H233315   2.706   6.332  11.549 -0.6528 -1.3755 -0.5006
 3942TIP3   OH233316   3.798   4.411   0.838  0.0430  0.5520 -0.5989
 3942TIP3    H133317   3.747   4.478   0.793 -0.8077 -0.2379 -0.8456
 3942TIP3    H233318   3.789   4.333   0.783  0.6516  0.1165 -0.0978
 3943TIP3   OH233319   4.874   4.576  12.146  0.4554 -0.4151  0.0993
 3943TIP3    H133320   4.798   4.563  12.202 -1.7570  1.7642 -2.1301
 3943TIP3    H233321   4.888   4.491  12.103 -1.0608 -0.7183  0.1813
 3944TIP3   OH233322   1.500   3.115  14.252 -0.0205  0.1603 -0.2577
 3944TIP3    H133323   1.529   3.194  14.205 -0.9525  1.5314  1.3734
 3944TIP3    H233324   1.550   3.116  14.333  0.0950 -1.0510 -0.3071
 3945TIP3   OH233325   4.038   1.148   1.754 -0.7631  0.1787 -0.6738
 3945TIP3    H133326   4.075   1.079   1.699 -2.4919 -0.0839 -1.5884
 3945TIP3    H233327   3.948   1.159   1.722 -1.2425  1.3215  0.9011
 3946TIP3   OH233328   5.861   6.653   5.292  0.0080  0.1800  0.4277
 3946TIP3    H133329   5.842   6.681   5.382 -0.7889 -0.2265  0.3933
 3946TIP3    H233330   5.922   6.580   5.302  1.4555  1.3428  0.5475
 3947TIP3   OH233331   3.130   5.711  14.038 -0.3989  0.0837 -0.1384
 3947TIP3    H133332   3.157   5.621  14.018  0.9161 -0.0061  1.7984
 3947TIP3    H233333   3.198   5.765  13.999 -1.4553  0.3207 -1.7469
 3948TIP3   OH233334   4.136   6.507   3.684  0.0188  0.1361  0.0972
 3948TIP3    H133335   4.117   6.472   3.771 -0.7194  0.0242 -0.1043
 3948TIP3    H233336   4.134   6.602   3.696  1.8546  0.1559  0.6063
 3949TIP3   OH233337   3.601   6.152  11.498  0.2112  0.4345  0.4929
 3949TIP3    H133338   3.600   6.206  11.577 -3.3876  0.8584  0.3130
 3949TIP3    H233339   3.590   6.063  11.529 -1.3472  0.6155  0.5060
 3950TIP3   OH233340   2.710   3.266   2.971  0.3974 -0.5929 -0.3012
 3950TIP3    H133341   2.767   3.229   3.038  0.4926  0.3360  0.1495
 3950TIP3    H233342   2.621   3.247   3.001  0.4564 -1.5144 -0.6968
 3951TIP3   OH233343   6.623   6.395  17.108 -0.5655  0.2617  0.0087
 3951TIP3    H133344   6.612   6.342  17.187  1.7415 -1.3115 -0.6309
 3951TIP3    H233345   6.542   6.384  17.060 -1.2393 -0.3600  1.2342
 3952TIP3   OH233346   1.527   4.994  13.268 -0.3391 -0.2428 -0.0720
 3952TIP3    H133347   1.502   4.902  13.264 -1.5823  0.1033 -1.7270
 3952TIP3    H233348   1.613   4.994  13.310 -0.8276 -2.0207  1.0372
 3953TIP3   OH233349   1.034   1.390   4.372  0.2086  0.2581  0.9253
 3953TIP3    H133350   1.051   1.323   4.438 -1.9178 -1.9787 -0.6285
 3953TIP3    H233351   0.947   1.424   4.394  0.2659  0.8181  0.3281
 3954TIP3   OH233352   5.655   4.095  12.052  0.8539 -0.4912  0.6313
 3954TIP3    H133353   5.616   4.151  12.119  3.0594  1.7158  0.2098
 3954TIP3    H233354   5.730   4.054  12.096  2.5125  1.2218 -0.4504
 3955TIP3   OH233355   6.247   1.183  10.491  0.3079 -0.3009  0.1889
 3955TIP3    H133356   6.235   1.103  10.439 -1.7821 -0.5532  0.9451
 3955TIP3    H233357   6.259   1.151  10.581  0.1274  0.2104  0.3955
 3956TIP3   OH233358   2.028   5.533  10.557 -0.0102  0.0221  0.4393
 3956TIP3    H133359   1.938   5.518  10.528 -0.1416 -0.7377  1.2051
 3956TIP3    H233360   2.061   5.602  10.498 -1.5526  1.3706  1.0747
 3957TIP3   OH233361   5.385   4.851   0.409  0.1804  0.2165 -0.5897
 3957TIP3    H133362   5.440   4.878   0.335  3.1699  0.8201  1.6518
 3957TIP3    H233363   5.415   4.763   0.430  0.5438  0.6518  0.8376
 3958TIP3   OH233364   0.152   5.229  13.720 -0.2951  0.0821 -0.1456
 3958TIP3    H133365   0.238   5.270  13.733 -0.3678  0.1809  0.0195
 3958TIP3    H233366   0.090   5.301  13.726 -0.5153 -0.1878  1.1945
 3959TIP3   OH233367   5.995   4.652  11.414 -0.1422  0.4240  0.2088
 3959TIP3    H133368   6.038   4.610  11.339 -2.1262  0.6954 -1.1682
 3959TIP3    H233369   5.933   4.586  11.446  0.7912  0.2558  1.7654
 3960TIP3   OH233370   4.636   2.820   6.319  0.5225 -0.0854 -0.3865
 3960TIP3    H133371   4.709   2.815   6.258 -0.0079 -0.0753 -1.0286
 3960TIP3    H233372   4.598   2.732   6.319 -0.8228  0.4505 -1.7646
 3961TIP3   OH233373   4.476   2.212   5.342  0.1272  0.2150 -0.1347
 3961TIP3    H133374   4.572   2.214   5.347  0.2990 -0.2872 -2.3125
 3961TIP3    H233375   4.452   2.129   5.384  0.5396  0.7725  1.2562
 3962TIP3   OH233376   1.724   5.518  14.611  0.5536  0.0203 -0.0904
 3962TIP3    H133377   1.745   5.466  14.533  1.0015 -0.3043  0.2376
 3962TIP3    H233378   1.649   5.474  14.651 -0.3086  0.7531 -0.8643
 3963TIP3   OH233379   4.010   1.406   5.025  0.1937 -0.0969 -0.0846
 3963TIP3    H133380   3.918   1.430   5.042 -0.2498 -1.9912  0.4369
 3963TIP3    H233381   4.053   1.415   5.110  0.0361 -1.0272  0.1028
 3964TIP3   OH233382   3.710   5.760  12.503 -0.7076  0.1526 -0.2178
 3964TIP3    H133383   3.776   5.762  12.573  0.1515 -1.1804 -0.9394
 3964TIP3    H233384   3.722   5.674  12.462 -0.9024  1.0479 -2.2563
 3965TIP3   OH233385   0.211   3.791  15.883 -0.2015 -0.0276  0.7081
 3965TIP3    H133386   0.263   3.727  15.931 -0.3737 -0.0981  0.8013
 3965TIP3    H233387   0.262   3.872  15.888 -0.6557  0.2087  1.8207
 3966TIP3   OH233388   4.193   0.475  11.963  0.4064 -0.4211  0.4861
 3966TIP3    H133389   4.116   0.531  11.967  0.0401 -0.8690 -0.1826
 3966TIP3    H233390   4.176   0.415  11.890  0.7113 -1.5274  1.2929
 3967TIP3   OH233391   0.283   2.528  15.963  0.1875 -0.0484 -0.2948
 3967TIP3    H133392   0.299   2.564  16.050 -0.9709  1.3392 -0.6168
 3967TIP3    H233393   0.313   2.597  15.903 -0.6745 -0.2417 -0.9677
 3968TIP3   OH233394   4.486   0.555  13.495  0.8273 -0.1591  0.3238
 3968TIP3    H133395   4.499   0.464  13.467 -0.2287 -0.1659 -0.1587
 3968TIP3    H233396   4.539   0.562  13.575  2.7525 -0.5357 -0.8408
 3969TIP3   OH233397   1.668   4.175  16.045  0.4326  0.3426  0.0339
 3969TIP3    H133398   1.701   4.136  16.126  0.6084  1.1304  0.3512
 3969TIP3    H233399   1.747   4.188  15.991  0.1934 -1.1736 -0.7138
 3970TIP3   OH233400   3.514   1.875  14.256 -0.5539 -0.6096  0.9340
 3970TIP3    H133401   3.587   1.926  14.289 -0.7452  1.5585 -1.6300
 3970TIP3    H233402   3.554   1.807  14.201 -0.4114 -0.8142  1.2900
 3971TIP3   OH233403   3.019   5.078   2.665 -0.8710  0.2643  0.0843
 3971TIP3    H133404   2.953   5.034   2.718  1.0017 -1.3505  1.2241
 3971TIP3    H233405   3.071   5.128   2.727  0.2317 -0.1636 -0.4612
 3972TIP3   OH233406   5.481   4.761   4.492  0.5413  0.0667 -0.6498
 3972TIP3    H133407   5.388   4.757   4.516  0.8096  0.3135  0.4707
 3972TIP3    H233408   5.495   4.852   4.466  0.3891 -0.0543 -1.1534
 3973TIP3   OH233409   1.995   4.719  14.248 -0.2293 -0.0434 -1.0880
 3973TIP3    H133410   2.074   4.671  14.273 -0.1538 -0.0679 -1.3680
 3973TIP3    H233411   1.932   4.701  14.318  0.5154  1.2340 -0.0315
 3974TIP3   OH233412   0.933   5.500  12.011  0.2827  0.1086 -0.1099
 3974TIP3    H133413   0.947   5.470  11.921  0.0648  0.3198 -0.2167
 3974TIP3    H233414   1.002   5.564  12.026  0.1503  0.2822 -0.2282
 3975TIP3   OH233415   5.016   0.349  16.185 -0.2580  0.7861  0.4182
 3975TIP3    H133416   5.021   0.265  16.230  1.4847  1.5760  1.8174
 3975TIP3    H233417   5.098   0.355  16.136 -0.1533  1.8451  0.6970
 3976TIP3   OH233418   5.079   0.764   1.994 -0.1461  0.8623 -0.0040
 3976TIP3    H133419   5.158   0.754   2.047 -0.2420  0.3686  0.0508
 3976TIP3    H233420   5.010   0.780   2.058 -0.7891 -2.5986  0.3174
 3977TIP3   OH233421   2.860   5.657  14.407  0.5333  0.4358  0.4069
 3977TIP3    H133422   2.914   5.580  14.390 -1.8227 -0.8094 -2.1718
 3977TIP3    H233423   2.797   5.628  14.473  0.2380  0.4379  0.1302
 3978TIP3   OH233424   2.138   4.351  14.901 -0.6440 -0.5779 -0.1871
 3978TIP3    H133425   2.083   4.428  14.915  0.7586  0.3138  0.6608
 3978TIP3    H233426   2.103   4.286  14.963 -0.2798  0.2459  0.9170
 3979TIP3   OH233427   2.166   3.208  13.601 -0.5583 -0.2969 -0.3773
 3979TIP3    H133428   2.229   3.268  13.560  0.0999 -0.4519  0.3967
 3979TIP3    H233429   2.212   3.171  13.675 -1.5521 -0.4630  0.1787
 3980TIP3   OH233430   4.280   4.627   4.955 -0.7155  0.3462 -1.2982
 3980TIP3    H133431   4.275   4.720   4.979  1.4896  0.2578 -0.2749
 3980TIP3    H233432   4.261   4.625   4.861 -0.3781  1.8732 -1.4230
 3981TIP3   OH233433   2.431   5.116  11.951 -0.4177 -0.6797  0.2798
 3981TIP3    H133434   2.399   5.193  12.000  0.0104 -0.2782 -0.0619
 3981TIP3    H233435   2.520   5.139  11.926 -0.5440 -0.9878 -0.4702
 3982TIP3   OH233436   2.710   2.348  16.437  0.4118 -0.2589  0.5506
 3982TIP3    H133437   2.632   2.377  16.484 -0.1976 -0.5885 -0.2146
 3982TIP3    H233438   2.766   2.308  16.503 -0.5519 -0.9795  0.9459
 3983TIP3   OH233439   4.902   3.092  15.611 -0.1544  0.4531 -0.8421
 3983TIP3    H133440   4.819   3.118  15.649 -0.8892 -2.9952  0.2783
 3983TIP3    H233441   4.968   3.145  15.657 -1.5408  1.3276  0.1954
 3984TIP3   OH233442   1.380   2.812   0.849  0.4587  0.0692 -0.2487
 3984TIP3    H133443   1.310   2.755   0.818  0.5563  0.1091 -0.5501
 3984TIP3    H233444   1.356   2.899   0.820 -0.2589  0.3807  1.1858
 3985TIP3   OH233445   1.611   0.124  12.827  0.3575 -0.3776 -0.0540
 3985TIP3    H133446   1.582   0.172  12.750 -0.5282  0.8043  0.9670
 3985TIP3    H233447   1.607   0.189  12.898 -1.3268 -2.0659  1.4830
 3986TIP3   OH233448   4.350   6.057  16.838  0.1890  0.4616  0.5684
 3986TIP3    H133449   4.314   5.992  16.899  2.1530  0.7052  2.1017
 3986TIP3    H233450   4.274   6.105  16.806 -1.0748 -0.8889  1.4211
 3987TIP3   OH233451   4.983   0.660   0.280  0.8072  0.2093 -0.3830
 3987TIP3    H133452   4.935   0.647   0.199  2.5938  1.5462 -1.7385
 3987TIP3    H233453   4.993   0.755   0.287  2.7841  0.0130  0.0769
 3988TIP3   OH233454   5.090   0.513   5.289  0.1404 -0.4093 -0.0090
 3988TIP3    H133455   5.062   0.602   5.266 -0.2794 -0.7314 -0.7968
 3988TIP3    H233456   5.156   0.525   5.357  0.9661  0.5604 -0.9536
 3989TIP3   OH233457   0.474   0.708   4.541 -0.1601  0.0845  0.3514
 3989TIP3    H133458   0.498   0.616   4.551  0.9543  0.4567  1.3110
 3989TIP3    H233459   0.558   0.753   4.532 -0.6848  1.0361  0.1280
 3990TIP3   OH233460   2.883   4.194  10.717 -0.8873 -0.2149  0.3771
 3990TIP3    H133461   2.822   4.174  10.788 -1.0470  0.3583  0.4007
 3990TIP3    H233462   2.970   4.190  10.757 -1.0311  1.1963  0.8693
 3991TIP3   OH233463   4.789   0.462  13.452 -0.5733 -0.1896  0.1584
 3991TIP3    H133464   4.798   0.557  13.455  1.6972 -0.3275 -0.5205
 3991TIP3    H233465   4.743   0.440  13.533 -0.0207  1.3998  0.9512
 3992TIP3   OH233466   5.014   3.741   5.351 -0.4734  0.7709  0.0388
 3992TIP3    H133467   5.023   3.815   5.291 -0.2664 -0.3002 -1.2967
 3992TIP3    H233468   5.102   3.729   5.388 -0.7977  2.0031  1.3099
 3993TIP3   OH233469   3.273   3.303   0.357 -0.4049 -0.2741 -0.6926
 3993TIP3    H133470   3.270   3.319   0.262  0.8169 -0.8498 -0.8380
 3993TIP3    H233471   3.328   3.226   0.367 -0.0344  0.1339  0.5361
 3994TIP3   OH233472   3.045   5.969  14.686  0.2064 -0.1666 -0.2497
 3994TIP3    H133473   3.074   5.927  14.605  0.4077 -0.4095 -0.0526
 3994TIP3    H233474   2.982   5.908  14.723  0.5078 -0.3024  0.0423
 3995TIP3   OH233475   4.162   3.958  13.383 -0.2086 -0.5463  0.1232
 3995TIP3    H133476   4.178   3.964  13.478 -0.6882 -0.7612  0.2198
 3995TIP3    H233477   4.111   3.878  13.372  0.9505 -1.2424 -0.4721
 3996TIP3   OH233478   4.940   0.740  11.587  0.1413  0.5183 -0.3425
 3996TIP3    H133479   4.847   0.753  11.608  0.1864 -0.9669  1.0101
 3996TIP3    H233480   4.983   0.817  11.623 -0.5398  1.1562 -0.8566
 3997TIP3   OH233481   2.367   1.580  15.293  0.4704 -0.8421  0.1152
 3997TIP3    H133482   2.459   1.558  15.280  0.3780 -0.6331 -1.0142
 3997TIP3    H233483   2.369   1.664  15.339  0.8581 -0.6027 -0.3246
 3998TIP3   OH233484   6.200   5.837  13.466  0.4764  0.1439  0.2047
 3998TIP3    H133485   6.200   5.929  13.495  2.5883  0.2238  0.1573
 3998TIP3    H233486   6.172   5.841  13.375  1.0205  0.8262  0.0563
 3999TIP3   OH233487   5.259   4.369  15.526 -0.2573  0.0488 -0.0154
 3999TIP3    H133488   5.179   4.420  15.518 -0.6830 -0.7197 -0.8451
 3999TIP3    H233489   5.326   4.422  15.484 -1.1287 -0.9533 -2.9579
 4000TIP3   OH233490   3.098   6.091  15.954 -0.3080 -0.0368  0.1325
 4000TIP3    H133491   3.062   6.157  15.895  0.3202  0.3786  0.2019
 4000TIP3    H233492   3.032   6.021  15.955  0.2961 -0.7529 -2.2413
 4001TIP3   OH233493   1.056   1.131   1.697  0.4579  0.3475  0.4286
 4001TIP3    H133494   1.095   1.202   1.646  1.9387 -0.5810  0.1738
 4001TIP3    H233495   1.120   1.059   1.690 -0.6156 -0.7447  1.3045
 4002TIP3   OH233496   5.860   4.112   6.277  0.3224  0.4639 -0.6983
 4002TIP3    H133497   5.819   4.194   6.305  0.3710  0.0726  0.5861
 4002TIP3    H233498   5.933   4.100   6.338  0.7298 -0.1907 -1.3033
 4003TIP3   OH233499   3.216   6.179  14.730 -0.6131 -0.1343  0.5788
 4003TIP3    H133500   3.275   6.183  14.654 -0.0224 -1.6148  0.9123
 4003TIP3    H233501   3.150   6.113  14.705 -0.8488 -0.0825  1.0604
 4004TIP3   OH233502   4.043   2.355  11.368 -0.8017  0.3210 -0.2850
 4004TIP3    H133503   4.123   2.401  11.342 -1.5961  1.5693 -0.6351
 4004TIP3    H233504   3.973   2.419  11.352 -1.5835  0.4764  2.9953
 4005TIP3   OH233505   2.999   4.176   3.939 -0.7707  0.5615 -0.0213
 4005TIP3    H133506   3.052   4.098   3.925 -1.4686  0.1469 -0.3578
 4005TIP3    H233507   3.061   4.249   3.926  0.5269  0.1010  2.7988
 4006TIP3   OH233508   4.777   3.306  16.105  0.3572 -0.0877 -1.0580
 4006TIP3    H133509   4.843   3.333  16.169  0.9402 -2.3106 -0.6322
 4006TIP3    H233510   4.780   3.374  16.038 -0.7605  2.7231  1.5056
 4007TIP3   OH233511   2.311   5.230  14.039 -0.3536 -0.1625  0.1782
 4007TIP3    H133512   2.297   5.187  13.954  1.7017 -0.7580  0.0863
 4007TIP3    H233513   2.385   5.184  14.078  1.2713  2.5290  0.5793
 4008TIP3   OH233514   0.379   6.321   5.936  0.5008 -0.3303 -0.7063
 4008TIP3    H133515   0.344   6.314   6.025  0.3127 -0.6037 -0.8035
 4008TIP3    H233516   0.322   6.267   5.883 -0.9646  1.8371 -1.4807
 4009TIP3   OH233517   0.398   0.549   5.221  0.2708  0.3720  0.7349
 4009TIP3    H133518   0.433   0.625   5.268  0.9092 -0.7873  2.2272
 4009TIP3    H233519   0.376   0.487   5.290  2.1309 -1.8103 -0.5125
 4010TIP3   OH233520   6.683   4.780   4.524 -0.3718 -0.4362 -0.9760
 4010TIP3    H133521   6.751   4.801   4.459  0.0478  0.3046 -0.3231
 4010TIP3    H233522   6.682   4.856   4.582 -2.2219 -0.1424 -1.3404
 4011TIP3   OH233523   4.929   0.593  11.821  0.3157  0.0076 -0.2651
 4011TIP3    H133524   4.942   0.650  11.745  1.1247 -0.1126 -0.2178
 4011TIP3    H233525   5.005   0.609  11.877 -0.8132  0.9733  1.0999
 4012TIP3   OH233526   2.781   3.320   1.704  0.0135 -0.0906 -0.7481
 4012TIP3    H133527   2.762   3.315   1.797 -1.5100 -0.9488 -1.0787
 4012TIP3    H233528   2.718   3.261   1.663  2.9936 -2.6676 -2.0428
 4013TIP3   OH233529   0.176   1.179  12.893 -0.0960 -0.4333  0.5751
 4013TIP3    H133530   0.170   1.224  12.809 -1.0363 -0.4450  0.6327
 4013TIP3    H233531   0.086   1.171  12.923  0.2609  0.2510  1.9497
 4014TIP3   OH233532   3.903   6.056  11.000 -0.0666 -0.8197  0.3538
 4014TIP3    H133533   3.908   6.049  11.095 -0.4561 -0.4525  0.4074
 4014TIP3    H233534   3.868   5.972  10.971  1.9898 -1.7209  0.3423
 4015TIP3   OH233535   6.711   0.372  13.929 -0.2477  0.1867  0.0209
 4015TIP3    H133536   6.670   0.415  13.854  0.8070  1.4947  0.1733
 4015TIP3    H233537   6.644   0.376  13.998 -0.8784 -0.1974 -0.5521
 4016TIP3   OH233538   1.590   3.290   5.856  0.6493 -0.3529 -0.3708
 4016TIP3    H133539   1.602   3.270   5.763  0.3211  0.4692 -0.5983
 4016TIP3    H233540   1.522   3.357   5.858  0.9121 -0.0948  0.4429
 4017TIP3   OH233541   5.677   0.809   6.472 -0.3499  0.0369 -0.8012
 4017TIP3    H133542   5.728   0.801   6.553 -0.4370  0.0398 -0.7463
 4017TIP3    H233543   5.642   0.898   6.474 -1.7157 -0.4793 -0.0294
 4018TIP3   OH233544   5.286   2.988   5.465  0.2676  0.7356  0.2969
 4018TIP3    H133545   5.259   3.079   5.448  0.5345  0.3253 -2.8841
 4018TIP3    H233546   5.225   2.935   5.413 -0.0207 -0.9736  2.2693
 4019TIP3   OH233547   0.923   3.325   4.467  0.2559  0.0521  0.4666
 4019TIP3    H133548   1.009   3.313   4.505 -0.2902  0.4287  1.8636
 4019TIP3    H233549   0.926   3.412   4.427  0.8357 -0.3529 -0.3933
 4020TIP3   OH233550   0.195   2.689   1.006  0.0346 -0.1853  0.4048
 4020TIP3    H133551   0.140   2.651   0.938  0.9669  0.3650 -0.6863
 4020TIP3    H233552   0.153   2.664   1.088 -0.5109 -1.7831 -0.3367
 4021TIP3   OH233553   1.207   1.444   3.832 -0.4040 -0.1196  0.3274
 4021TIP3    H133554   1.157   1.504   3.776  0.6017  0.4532  0.0225
 4021TIP3    H233555   1.178   1.357   3.805 -1.1130  0.1929  0.0457
 4022TIP3   OH233556   1.054   1.911  10.247  0.0390  0.1636 -0.3441
 4022TIP3    H133557   1.091   1.848  10.309  0.9283 -0.4357 -1.4609
 4022TIP3    H233558   1.058   1.867  10.162  0.3686  1.5978 -1.1040
 4023TIP3   OH233559   4.920   3.172   4.466  0.2082  0.3146 -0.4135
 4023TIP3    H133560   4.946   3.165   4.558 -2.7447 -0.5712  0.4655
 4023TIP3    H233561   4.866   3.250   4.462 -0.8486 -0.4255 -1.0677
 4024TIP3   OH233562   6.696   5.044  13.456  0.0339 -0.2070  0.4467
 4024TIP3    H133563   6.630   5.009  13.516 -2.2684  1.6498 -0.8248
 4024TIP3    H233564   6.680   4.999  13.373 -0.0184  0.6151 -0.0106
 4025TIP3   OH233565   3.210   6.473  11.285 -0.0721 -0.5410  0.3949
 4025TIP3    H133566   3.157   6.397  11.309 -0.7675 -0.0354  0.4854
 4025TIP3    H233567   3.156   6.549  11.308 -1.1217  0.0287 -3.2739
 4026TIP3   OH233568   1.998   2.587   4.832 -0.0090 -0.6702  0.2580
 4026TIP3    H133569   1.974   2.537   4.755 -1.0712 -0.1295  0.2139
 4026TIP3    H233570   2.044   2.664   4.798  0.0479 -0.7280  0.2052
 4027TIP3   OH233571   0.212   5.218  14.278  0.5412  0.0493  0.3520
 4027TIP3    H133572   0.185   5.257  14.195  0.8983  0.2526  0.3286
 4027TIP3    H233573   0.223   5.125  14.258  0.7356  0.1147  0.1420
 4028TIP3   OH233574   5.867   2.282   4.189  0.1742  0.1120  0.3038
 4028TIP3    H133575   5.817   2.214   4.143  0.1493  0.6977 -0.5387
 4028TIP3    H233576   5.857   2.361   4.136 -0.6255  1.0517  1.7993
 4029TIP3   OH233577   4.861   2.657   0.413  0.2990  0.2808  0.1544
 4029TIP3    H133578   4.780   2.706   0.399  0.3068  0.8275  1.7640
 4029TIP3    H233579   4.836   2.565   0.401  0.0905  0.5768 -2.0442
 4030TIP3   OH233580   2.433   4.557   2.109  0.3320  0.4365 -0.2166
 4030TIP3    H133581   2.494   4.624   2.140  0.5102  0.9866 -1.6775
 4030TIP3    H233582   2.349   4.602   2.103 -0.0300 -0.0552  0.8079
 4031TIP3   OH233583   6.678   4.403  11.550  0.0531 -0.5243  0.0605
 4031TIP3    H133584   6.745   4.347  11.589  0.0196 -0.1266  0.6953
 4031TIP3    H233585   6.621   4.426  11.623 -1.9482 -2.4560 -0.7680
 4032TIP3   OH233586   3.486   1.444  17.080 -0.2885  0.2101  0.0658
 4032TIP3    H133587   3.444   1.362  17.053  1.2532  0.0365 -2.0939
 4032TIP3    H233588   3.578   1.420  17.094  0.3045  1.6138 -1.1043
 4033TIP3   OH233589   3.672   2.036   6.275 -0.6400  0.0771  0.0798
 4033TIP3    H133590   3.600   2.010   6.217  0.3500 -1.3275 -0.5700
 4033TIP3    H233591   3.630   2.047   6.360 -1.8469  0.5917 -0.5487
 4034TIP3   OH233592   2.031   6.547  16.647  0.0635  0.5511 -0.1685
 4034TIP3    H133593   1.964   6.589  16.593  0.0153  0.2359 -0.3583
 4034TIP3    H233594   2.024   6.454  16.625  1.2832  0.6293 -1.0057
 4035TIP3   OH233595   0.181   1.901   6.041  0.4524  0.0587  0.3085
 4035TIP3    H133596   0.253   1.879   5.982  1.0555  0.3182  0.9341
 4035TIP3    H233597   0.140   1.817   6.062 -0.0776  0.0101 -0.8514
 4036TIP3   OH233598   0.969   4.593  11.001 -0.4076  0.0698  0.2678
 4036TIP3    H133599   0.997   4.586  10.910 -1.6807 -1.9360 -0.0227
 4036TIP3    H233600   0.874   4.609  10.996 -0.9602 -2.4670  1.1772
 4037TIP3   OH233601   0.431   0.292  11.114 -0.4539 -0.1519 -0.1829
 4037TIP3    H133602   0.449   0.379  11.151 -2.1303 -0.2402  0.9352
 4037TIP3    H233603   0.341   0.298  11.083 -0.5346 -1.4589 -0.2269
 4038TIP3   OH233604   5.706   1.716   5.432  0.9493 -0.3807 -0.3536
 4038TIP3    H133605   5.725   1.758   5.515  2.9881  0.5574 -1.2301
 4038TIP3    H233606   5.643   1.647   5.454 -0.0256  1.0378  1.6274
 4039TIP3   OH233607   2.540   6.469   0.724 -0.0158  0.0238 -0.6065
 4039TIP3    H133608   2.509   6.380   0.740 -0.8724  0.5228  0.6752
 4039TIP3    H233609   2.576   6.466   0.635 -0.9108 -1.3555 -0.9605
 4040TIP3   OH233610   6.601   0.672   0.865  0.1769  0.5566 -0.3516
 4040TIP3    H133611   6.592   0.720   0.948  0.8337 -0.3730  0.2842
 4040TIP3    H233612   6.539   0.600   0.872  1.1458 -0.2815 -0.0833
 4041TIP3   OH233613   0.212   3.801  13.942  0.8694  0.4090 -0.3781
 4041TIP3    H133614   0.222   3.827  14.034 -1.9967 -0.5830  0.3274
 4041TIP3    H233615   0.184   3.881  13.898 -1.4849  0.1427  0.4705
 4042TIP3   OH233616   0.918   6.621   3.381  0.0912 -0.1709  0.5561
 4042TIP3    H133617   0.928   6.688   3.449 -2.4116  0.5960  0.2883
 4042TIP3    H233618   1.005   6.610   3.344  0.3748  4.6908 -0.9482
 4043TIP3   OH233619   6.624   4.172  14.464  0.3139  0.3448  0.2345
 4043TIP3    H133620   6.548   4.199  14.411  1.3571  2.2341 -0.3890
 4043TIP3    H233621   6.589   4.105  14.522 -2.2148  2.1290  0.9668
 4044TIP3   OH233622   1.714   5.293  16.991  0.1040  0.7482 -0.2250
 4044TIP3    H133623   1.711   5.389  16.984 -0.4506  1.1119  3.3282
 4044TIP3    H233624   1.806   5.271  16.979  0.2639  1.7341 -0.9080
 4045TIP3   OH233625   4.334   2.805   5.889 -0.1586  0.9456  0.1412
 4045TIP3    H133626   4.318   2.740   5.821  1.0095  0.8039 -0.0162
 4045TIP3    H233627   4.386   2.759   5.955 -0.7347  1.2625  0.8274
 4046TIP3   OH233628   5.951   0.478  11.408  0.0822 -0.3827  0.2524
 4046TIP3    H133629   5.881   0.468  11.344  0.2658  1.0052 -0.2201
 4046TIP3    H233630   6.031   0.460  11.358  0.1818  0.0084  0.2686
 4047TIP3   OH233631   5.413   1.040   3.698  0.3032 -0.7474  0.0112
 4047TIP3    H133632   5.330   1.071   3.734 -0.8176 -1.9036 -1.4663
 4047TIP3    H233633   5.395   0.951   3.667  2.0292 -0.9367 -0.5807
 4048TIP3   OH233634   6.560   4.640  13.618  0.1913 -0.4224  0.0903
 4048TIP3    H133635   6.500   4.566  13.622  0.1431 -0.4794 -1.3041
 4048TIP3    H233636   6.504   4.716  13.602  0.3699 -0.2923  0.0769
 4049TIP3   OH233637   0.849   5.923  12.988  0.5256 -0.1525 -0.0409
 4049TIP3    H133638   0.757   5.906  12.965  0.6344 -0.3605 -0.3306
 4049TIP3    H233639   0.847   6.010  13.029 -0.2169 -1.3722  2.6844
 4050TIP3   OH233640   0.433   5.532  10.861  0.6447 -0.2280  0.0523
 4050TIP3    H133641   0.487   5.455  10.878  1.1169 -0.2727 -1.4926
 4050TIP3    H233642   0.466   5.599  10.921  1.6472 -0.5996 -0.0733
 4051TIP3   OH233643   4.903   1.224  15.747  0.1386 -0.3214  0.4387
 4051TIP3    H133644   4.889   1.158  15.679  0.5757  0.9213 -0.9049
 4051TIP3    H233645   4.814   1.245  15.778 -0.1917  0.0557 -0.7114
 4052TIP3   OH233646   3.127   5.746  17.165  0.0443  0.0869  0.4090
 4052TIP3    H133647   3.143   5.729  17.258  1.8168  0.9378  0.3090
 4052TIP3    H233648   3.173   5.676  17.120 -0.7552 -0.2840  0.1560
 4053TIP3   OH233649   6.514   1.413   2.065  0.9254  0.0386  0.0743
 4053TIP3    H133650   6.459   1.340   2.091  0.6923  0.4462  0.7537
 4053TIP3    H233651   6.470   1.452   1.989 -0.3851  1.0830  1.3158
 4054TIP3   OH233652   2.649   5.930  14.378 -0.5792 -0.3776  0.2571
 4054TIP3    H133653   2.721   5.867  14.378  1.1245  1.3844  2.5621
 4054TIP3    H233654   2.579   5.886  14.427 -0.3627 -1.3935 -0.3244
 4055TIP3   OH233655   1.424   0.886   4.434 -1.1359  0.0763 -0.0680
 4055TIP3    H133656   1.412   0.793   4.455 -1.5429 -0.3450 -1.9751
 4055TIP3    H233657   1.519   0.899   4.437 -1.0704 -0.4162  0.1571
 4056TIP3   OH233658   4.687   0.919  16.415  0.0434  0.4256 -0.7906
 4056TIP3    H133659   4.675   0.835  16.370 -0.4487  2.3996 -4.7831
 4056TIP3    H233660   4.613   0.923  16.476  0.2562 -2.0973 -0.2254
 4057TIP3   OH233661   4.620   2.295   3.551  1.0809 -0.0120 -0.1780
 4057TIP3    H133662   4.537   2.287   3.597  2.5848 -1.1097  2.6550
 4057TIP3    H233663   4.601   2.270   3.461 -1.7783  0.6302  0.1729
 4058TIP3   OH233664   2.267   4.919  12.039 -0.6164  0.0742 -0.0599
 4058TIP3    H133665   2.198   4.966  12.085  0.6539  1.2910  0.6506
 4058TIP3    H233666   2.341   4.979  12.036  0.5682 -1.3220 -0.4814
 4059TIP3   OH233667   3.376   1.817   5.345  0.3246 -0.7224 -0.0274
 4059TIP3    H133668   3.303   1.877   5.332  0.0401 -0.9173  0.6541
 4059TIP3    H233669   3.364   1.782   5.433  0.4552 -1.8410 -0.4426
 4060TIP3   OH233670   0.534   4.435  11.674  0.8730  0.1172 -0.1876
 4060TIP3    H133671   0.533   4.456  11.768  2.1624  0.7523 -0.2825
 4060TIP3    H233672   0.454   4.386  11.659 -1.1634  2.9506  0.5641
 4061TIP3   OH233673   0.490   0.348   1.651  0.0402 -0.1587  0.4015
 4061TIP3    H133674   0.572   0.391   1.675  0.2542  1.0668 -2.2553
 4061TIP3    H233675   0.427   0.380   1.717  0.8196  2.1038  0.1553
 4062TIP3   OH233676   4.516   3.120   6.135 -0.1364  0.1541 -0.2418
 4062TIP3    H133677   4.490   3.132   6.226  1.1438 -1.9783  0.4747
 4062TIP3    H233678   4.581   3.189   6.119 -1.8594  1.8470 -0.2500
 4063TIP3   OH233679   3.246   0.101   3.388  0.2964 -0.0561 -0.0003
 4063TIP3    H133680   3.264   0.194   3.374  0.1512  0.0366  0.4259
 4063TIP3    H233681   3.333   0.059   3.388  0.5995  0.4222  2.3193
 4064TIP3   OH233682   1.922   4.998   5.290 -0.2599  0.1891 -0.3424
 4064TIP3    H133683   1.909   5.056   5.365 -2.1923  0.3386 -0.7420
 4064TIP3    H233684   1.945   4.914   5.328  0.9147  0.7849  0.3139
 4065TIP3   OH233685   3.152   5.681   3.509  0.3125 -0.2183 -0.1263
 4065TIP3    H133686   3.156   5.624   3.586 -0.0666 -0.3943 -0.2337
 4065TIP3    H233687   3.097   5.754   3.536 -0.7083 -0.8032 -0.5547
 4066TIP3   OH233688   6.601   1.549   4.809  0.2020  0.5832  0.4573
 4066TIP3    H133689   6.656   1.470   4.812  0.8516  1.0535  2.0218
 4066TIP3    H233690   6.566   1.557   4.898  0.0528  1.9954  0.2873
 4067TIP3   OH233691   2.395   5.588   1.760 -0.1211  0.1445  0.0225
 4067TIP3    H133692   2.352   5.512   1.722  1.5300 -0.2238 -1.2038
 4067TIP3    H233693   2.359   5.595   1.848  0.2026 -2.4949  0.4296
 4068TIP3   OH233694   3.236   4.190   5.410 -0.5304  0.2739 -0.1816
 4068TIP3    H133695   3.207   4.101   5.431  2.7661 -1.0019 -0.3128
 4068TIP3    H233696   3.245   4.190   5.315  0.6407  0.2680 -0.0911
 4069TIP3   OH233697   6.507   0.679  13.230 -0.2343  0.1247 -0.0208
 4069TIP3    H133698   6.522   0.692  13.136  2.0140  0.1685  0.3010
 4069TIP3    H233699   6.453   0.600  13.235  0.6393 -0.5759 -1.3084
 4070TIP3   OH233700   3.289   4.442  13.983 -0.1496  0.3931 -0.0091
 4070TIP3    H133701   3.381   4.454  13.958 -0.0351 -2.7156 -1.5017
 4070TIP3    H233702   3.243   4.509  13.933  1.1475  1.0311 -0.4092
 4071TIP3   OH233703   4.893   2.371  14.081  0.0034 -0.7059 -0.5011
 4071TIP3    H133704   4.813   2.393  14.129  0.8659 -0.9830  1.1380
 4071TIP3    H233705   4.872   2.290  14.034 -0.7106 -0.6951 -0.2077
 4072TIP3   OH233706   1.245   1.413  15.853 -0.1726  0.0055  0.3097
 4072TIP3    H133707   1.278   1.501  15.834  1.8463 -0.9296 -0.8280
 4072TIP3    H233708   1.317   1.355  15.830 -0.4503 -1.8279  3.5289
 4073TIP3   OH233709   6.181   6.113  14.703 -0.1317  0.2144 -0.3572
 4073TIP3    H133710   6.163   6.131  14.795 -0.7905 -1.5760 -0.0922
 4073TIP3    H233711   6.276   6.124  14.695  0.0223 -0.1751  0.6965
 4074TIP3   OH233712   2.716   1.923  16.828  0.0526 -0.3980  0.1607
 4074TIP3    H133713   2.712   1.842  16.776 -1.7637  0.1011 -0.5725
 4074TIP3    H233714   2.788   1.909  16.889  1.1255 -1.7272 -1.3308
 4075TIP3   OH233715   4.909   0.381   4.916  0.0323 -0.2388 -0.1791
 4075TIP3    H133716   4.884   0.298   4.876 -1.1819  0.2561 -0.4850
 4075TIP3    H233717   5.001   0.370   4.939 -0.2085 -1.7838  0.1078
 4076TIP3   OH233718   4.129   4.818   0.740  0.0596  0.6504  0.3535
 4076TIP3    H133719   4.072   4.760   0.792 -0.5628  1.9397  1.1753
 4076TIP3    H233720   4.069   4.864   0.681  0.3890  1.1922  0.4319
 4077TIP3   OH233721   3.542   1.433  12.289 -0.0136  0.3669  0.1771
 4077TIP3    H133722   3.512   1.352  12.330  1.5200 -0.5101 -0.3685
 4077TIP3    H233723   3.479   1.449  12.219 -1.1860  0.4962  1.2051
 4078TIP3   OH233724   4.694   1.770   2.373 -0.4004 -0.1301 -0.5523
 4078TIP3    H133725   4.664   1.849   2.328 -0.2826  0.0821 -0.2557
 4078TIP3    H233726   4.717   1.799   2.461  1.2613 -0.1666 -0.9455
 4079TIP3   OH233727   4.967   5.829  11.720 -0.1876  0.7295  0.1876
 4079TIP3    H133728   4.932   5.780  11.795 -0.1900 -0.6942 -0.6980
 4079TIP3    H233729   5.045   5.780  11.694 -0.4841  0.9020 -1.0562
 4080TIP3   OH233730   3.877   0.444  15.079 -0.0562  0.3228 -0.2515
 4080TIP3    H133731   3.869   0.463  15.173 -0.8688 -2.4838  0.3241
 4080TIP3    H233732   3.854   0.526  15.036  0.3569  1.6918  1.9796
 4081TIP3   OH233733   5.582   4.952  11.247  0.0586 -0.1465  0.9587
 4081TIP3    H133734   5.574   4.943  11.152  2.0094 -0.3175  0.7710
 4081TIP3    H233735   5.664   5.000  11.260  1.2874 -2.4818  2.5945
 4082TIP3   OH233736   0.910   5.690   4.028 -0.2493  0.3263  0.5108
 4082TIP3    H133737   0.950   5.662   3.946 -1.8312  0.4334 -0.3442
 4082TIP3    H233738   0.910   5.612   4.082  1.7499  0.5036  0.8488
 4083TIP3   OH233739   4.844   2.544  14.444  0.3205  0.3908  0.2169
 4083TIP3    H133740   4.769   2.564  14.500  0.5806 -0.5108  0.9015
 4083TIP3    H233741   4.826   2.457  14.410 -1.3737  2.0447 -3.6816
 4084TIP3   OH233742   6.621   4.781   2.092 -0.4875 -0.8107  0.1182
 4084TIP3    H133743   6.568   4.773   2.171 -0.2155 -2.4245  0.1667
 4084TIP3    H233744   6.633   4.691   2.062  0.1812 -0.2879 -1.2522
 4085TIP3   OH233745   3.558   6.239  16.760 -0.2292  0.2891 -0.0609
 4085TIP3    H133746   3.572   6.148  16.732  2.7734  0.4736  0.5603
 4085TIP3    H233747   3.539   6.232  16.853 -2.3751  0.2121 -0.4514
 4086TIP3   OH233748   2.389   4.536   2.499  0.2964 -0.0381  0.4697
 4086TIP3    H133749   2.450   4.470   2.466 -0.6452  0.5681 -2.7948
 4086TIP3    H233750   2.350   4.495   2.576  0.1385 -3.1498 -1.0870
 4087TIP3   OH233751   5.390   6.760   4.507  0.3704  0.3103  0.6147
 4087TIP3    H133752   5.485   6.768   4.506  0.4603 -0.0989  2.4936
 4087TIP3    H233753   5.361   6.818   4.578 -0.9007  1.2095 -0.5697
 4088TIP3   OH233754   6.117   0.129  16.093  0.2490 -0.0474  0.3185
 4088TIP3    H133755   6.177   0.055  16.083  0.5711  0.2228  0.2245
 4088TIP3    H233756   6.168   0.196  16.139  0.0385  0.2036  0.1950
 4089TIP3   OH233757   3.075   4.811   1.874  0.5356  0.1705  0.7439
 4089TIP3    H133758   3.052   4.786   1.785  1.2419  1.6610  0.1076
 4089TIP3    H233759   2.992   4.819   1.920  0.1609 -0.5147  0.1917
 4090TIP3   OH233760   1.713   4.613   5.606 -0.4177 -0.5053 -0.4699
 4090TIP3    H133761   1.668   4.534   5.578 -1.9396  0.5414 -1.1278
 4090TIP3    H233762   1.669   4.638   5.687 -1.8998  1.1413 -1.6914
 4091TIP3   OH233763   3.646   3.134   4.800 -0.4393 -0.4586  0.5833
 4091TIP3    H133764   3.731   3.165   4.833  0.2478 -0.2970 -1.2166
 4091TIP3    H233765   3.607   3.211   4.759 -0.9447 -0.8003  0.4163
 4092TIP3   OH233766   3.794   5.509  13.241  0.0506 -0.5696  0.3456
 4092TIP3    H133767   3.756   5.464  13.317  0.6078  0.0499  1.0101
 4092TIP3    H233768   3.884   5.478  13.237  0.2536 -0.0002  0.4268
 4093TIP3   OH233769   5.898   6.260  14.827 -0.6816  0.0290 -0.2552
 4093TIP3    H133770   5.928   6.290  14.741  1.1067  1.7907  0.8743
 4093TIP3    H233771   5.976   6.221  14.867 -1.6603 -1.4023  0.3459
 4094TIP3   OH233772   0.188   5.112   0.700 -0.0869  0.0271  0.0026
 4094TIP3    H133773   0.171   5.124   0.793  1.4209  2.2452  0.0816
 4094TIP3    H233774   0.208   5.200   0.668  1.7096 -0.9928 -1.9185
 4095TIP3   OH233775   5.976   2.648  12.786 -0.5223 -0.2403  0.1456
 4095TIP3    H133776   5.961   2.731  12.831  1.1308  0.4519 -0.5079
 4095TIP3    H233777   5.940   2.661  12.698  0.4463  0.0785 -0.2101
 4096TIP3   OH233778   5.403   2.965   0.240 -0.7381 -0.2824 -0.7083
 4096TIP3    H133779   5.483   2.911   0.246 -0.8393 -0.4533 -0.8931
 4096TIP3    H233780   5.374   2.974   0.330 -0.1824  0.2698 -0.5808
 4097TIP3   OH233781   5.940   6.266  15.453 -0.5908  0.0192 -0.7390
 4097TIP3    H133782   5.984   6.181  15.458 -0.6880 -0.0536 -1.1216
 4097TIP3    H233783   6.001   6.326  15.496 -0.0287 -0.0452 -1.4223
 4098TIP3   OH233784   1.948   3.376  13.813 -0.0431 -0.3631  0.5532
 4098TIP3    H133785   1.870   3.330  13.843 -1.1947  1.9113  1.3127
 4098TIP3    H233786   1.914   3.454  13.768  1.7153  1.5707  2.3268
 4099TIP3   OH233787   6.239   0.676   6.823  0.6257  0.2623 -0.2756
 4099TIP3    H133788   6.174   0.742   6.800 -1.0349 -0.2972  2.3431
 4099TIP3    H233789   6.283   0.711   6.900  0.0136 -1.4276  0.8944
 4100TIP3   OH233790   2.218   0.625   2.697 -0.1434  0.1614  0.0158
 4100TIP3    H133791   2.289   0.637   2.759 -0.7096  0.8101  0.5570
 4100TIP3    H233792   2.212   0.530   2.686 -0.5134 -0.0250  1.5381
 4101TIP3   OH233793   0.695   1.370   0.821 -0.7111 -0.1610 -0.1626
 4101TIP3    H133794   0.718   1.285   0.858 -2.1428 -0.5481 -0.0957
 4101TIP3    H233795   0.753   1.432   0.864 -0.1242 -1.0193  0.3009
 4102TIP3   OH233796   3.424   5.093  11.941 -0.1790  0.4576  0.1950
 4102TIP3    H133797   3.449   5.086  12.034 -0.1100 -2.2188  0.0474
 4102TIP3    H233798   3.507   5.103  11.895  0.1762 -1.8064  0.2176
 4103TIP3   OH233799   2.280   2.759  16.733 -0.7150 -0.1736 -0.2434
 4103TIP3    H133800   2.280   2.844  16.689  0.1236  0.5646  1.1014
 4103TIP3    H233801   2.251   2.697  16.666  0.4318  0.8927 -1.8155
 4104TIP3   OH233802   3.771   2.248  11.181  0.3592 -0.2416  0.0361
 4104TIP3    H133803   3.835   2.283  11.119  0.7674  1.0664  1.1516
 4104TIP3    H233804   3.717   2.189  11.128  0.0463  1.5905 -1.8262
 4105TIP3   OH233805   1.070   4.585  12.431  0.3688 -0.1892 -0.5249
 4105TIP3    H133806   0.998   4.540  12.475  0.0402  2.5237  2.0556
 4105TIP3    H233807   1.135   4.516  12.414 -1.4517 -2.1435  0.0462
 4106TIP3   OH233808   4.579   0.139  15.038 -0.0239 -0.5452  0.3221
 4106TIP3    H133809   4.507   0.183  14.992  2.3131  1.4302 -1.7175
 4106TIP3    H233810   4.570   0.169  15.129 -1.3315  0.2553 -0.0368
 4107TIP3   OH233811   2.973   1.825  16.553 -0.1943 -0.1452  0.2516
 4107TIP3    H133812   2.931   1.907  16.525 -3.2352 -0.9710  1.9029
 4107TIP3    H233813   3.001   1.842  16.643  0.6156 -0.4674  0.0674
 4108TIP3   OH233814   2.575   0.803  13.870  0.2433  0.5597 -0.1773
 4108TIP3    H133815   2.647   0.817  13.808  0.4815  0.8796  0.1671
 4108TIP3    H233816   2.509   0.869  13.845 -0.8218 -1.0084 -1.7752
 4109TIP3   OH233817   6.258   2.952  13.990  0.4106  0.6441 -0.2763
 4109TIP3    H133818   6.233   3.044  13.979 -0.4887  0.2388 -1.9107
 4109TIP3    H233819   6.334   2.941  13.932 -0.1785  0.0980 -0.9544
 4110TIP3   OH233820   1.323   4.014   4.338 -0.2361 -0.3842  0.5064
 4110TIP3    H133821   1.414   4.038   4.320  0.3276 -2.0754  0.9168
 4110TIP3    H233822   1.291   4.082   4.397  0.1983  1.1854 -1.0075
 4111TIP3   OH233823   3.684   3.424   4.168 -0.2496  0.1580  0.0423
 4111TIP3    H133824   3.611   3.400   4.112  0.0293  1.3292 -0.8612
 4111TIP3    H233825   3.646   3.430   4.256 -0.8498 -0.9626 -0.1236
 4112TIP3   OH233826   1.343   1.991  15.368 -0.7620 -0.4803  0.5748
 4112TIP3    H133827   1.437   2.007  15.363 -0.5195 -0.4731  3.3597
 4112TIP3    H233828   1.330   1.910  15.319  0.9768 -1.2920  1.3662
 4113TIP3   OH233829   1.061   2.354  17.067  0.3188  0.2766  0.7258
 4113TIP3    H133830   1.064   2.288  16.997 -1.7547  1.8928 -1.0487
 4113TIP3    H233831   1.060   2.304  17.148 -1.6812 -1.9527 -0.5565
 4114TIP3   OH233832   2.651   4.608   0.177  0.2637  0.3043  0.1393
 4114TIP3    H133833   2.664   4.513   0.185 -2.3678 -0.3425 -2.0433
 4114TIP3    H233834   2.573   4.626   0.230  1.3093  1.5122  1.3631
 4115TIP3   OH233835   6.411   2.176  14.743 -0.1061  0.1220  0.0639
 4115TIP3    H133836   6.440   2.266  14.730 -0.9193  0.4347  0.3028
 4115TIP3    H233837   6.453   2.148  14.825  0.0557  0.3265  0.0499
 4116TIP3   OH233838   3.412   5.793  12.401  0.0825 -0.8090  0.2369
 4116TIP3    H133839   3.368   5.738  12.467 -1.6470 -0.4135 -0.5398
 4116TIP3    H233840   3.440   5.871  12.449 -2.1729 -0.0053  0.3496
 4117TIP3   OH233841   3.479   4.295   3.897  0.3723 -0.2202 -0.2196
 4117TIP3    H133842   3.529   4.300   3.815  1.3359 -2.4112  0.1618
 4117TIP3    H233843   3.537   4.333   3.963  0.4240 -0.2792 -0.2305
 4118TIP3   OH233844   1.904   5.755   0.946 -0.9042  0.1933  0.5975
 4118TIP3    H133845   1.994   5.728   0.932 -1.4739 -0.9927 -1.0397
 4118TIP3    H233846   1.852   5.678   0.925 -2.3502  1.1017  0.6865
 4119TIP3   OH233847   2.720   0.348   4.981 -0.1656  0.6982  0.0126
 4119TIP3    H133848   2.634   0.312   5.003 -0.3809  0.4793 -1.1290
 4119TIP3    H233849   2.705   0.443   4.972 -0.9031  0.4154 -2.7034
 4120TIP3   OH233850   3.085   6.824  14.399 -0.0927 -0.4715  0.2415
 4120TIP3    H133851   3.082   6.796  14.308  1.9560 -2.4842  0.6797
 4120TIP3    H233852   3.021   6.769  14.444 -2.8119  2.0872 -0.2060
 4121TIP3   OH233853   4.600   4.212   3.775  0.1538 -0.5947 -0.3702
 4121TIP3    H133854   4.674   4.151   3.765 -0.2296 -0.9561 -1.0814
 4121TIP3    H233855   4.577   4.236   3.686  1.8232  2.5168 -0.1175
 4122TIP3   OH233856   2.795   3.118  17.244 -0.5017 -0.5192  0.1723
 4122TIP3    H133857   2.836   3.041  17.204  0.2008  0.0439 -0.2275
 4122TIP3    H233858   2.772   3.091  17.332  0.1623 -1.0563  0.1854
 4123TIP3   OH233859   0.987   1.320   2.720  0.0671  0.1276 -0.2328
 4123TIP3    H133860   1.081   1.337   2.732  0.1085 -0.1812 -0.1279
 4123TIP3    H233861   0.945   1.368   2.791  0.3449 -2.2245  1.6540
 4124TIP3   OH233862   1.825   2.540   4.325 -0.5072 -0.3346  0.1914
 4124TIP3    H133863   1.872   2.593   4.260  0.9137 -0.3484  1.1594
 4124TIP3    H233864   1.769   2.603   4.371 -0.8999 -0.1815 -0.4842
 4125TIP3   OH233865   4.788   0.405   6.106 -0.6420 -0.1902 -0.6361
 4125TIP3    H133866   4.862   0.450   6.147  0.1106 -0.7159 -1.3770
 4125TIP3    H233867   4.739   0.367   6.180  0.4077 -0.6955 -0.1765
 4126TIP3   OH233868   6.750   3.486  11.474 -0.2620 -0.4365 -0.4626
 4126TIP3    H133869   6.706   3.460  11.393 -0.1109  1.1175 -1.0810
 4126TIP3    H233870   6.843   3.483  11.453 -0.1154 -1.8717  0.2639
 4127TIP3   OH233871   3.890   1.214   3.612 -0.1733  0.1402  0.5670
 4127TIP3    H133872   3.931   1.262   3.540 -1.0954  1.1848  0.7128
 4127TIP3    H233873   3.860   1.282   3.672 -1.4050 -0.6184  0.8457
 4128TIP3   OH233874   0.957   2.122   1.527  1.0784  0.4743 -0.3704
 4128TIP3    H133875   0.990   2.034   1.543  0.7294  0.2014 -1.1281
 4128TIP3    H233876   1.034   2.174   1.505  1.2977  0.3880  0.1923
 4129TIP3   OH233877   0.357   0.374   1.321  0.0236  0.3760 -0.1416
 4129TIP3    H133878   0.395   0.440   1.263 -2.0747  1.1919 -0.6468
 4129TIP3    H233879   0.373   0.408   1.409  0.6038  0.6152 -0.3352
 4130TIP3   OH233880   4.446   3.970  12.034 -0.4916  0.0137  0.3460
 4130TIP3    H133881   4.447   4.004  12.124 -1.8796  1.8675 -0.2693
 4130TIP3    H233882   4.386   3.896  12.036 -0.9090  0.3651  0.8481
 4131TIP3   OH233883   4.871   6.296  12.597 -0.2992  0.1265  0.0158
 4131TIP3    H133884   4.795   6.238  12.609 -0.8531  0.7375 -0.4154
 4131TIP3    H233885   4.946   6.243  12.621 -0.7791 -0.8362 -0.5246
 4132TIP3   OH233886   0.867   3.821   1.359  0.5913 -0.3089 -0.3375
 4132TIP3    H133887   0.892   3.891   1.420 -0.7612 -0.1607  0.0842
 4132TIP3    H233888   0.869   3.742   1.412  0.3615 -0.3212 -0.3458
 4133TIP3   OH233889   0.018   5.940   2.384 -0.1119 -0.4246 -0.2058
 4133TIP3    H133890   0.056   5.915   2.299  1.5097 -1.0216  0.6614
 4133TIP3    H233891   0.093   5.954   2.441 -1.1818 -0.9003  1.3828
 4134TIP3   OH233892   4.970   3.910  16.673  0.1817 -0.2418  0.3056
 4134TIP3    H133893   4.906   3.972  16.638 -0.2251  0.5806  2.3670
 4134TIP3    H233894   5.005   3.865  16.596 -1.3093  0.8070 -1.0374
 4135TIP3   OH233895   3.806   1.445   2.303 -0.1774  0.1523  0.1671
 4135TIP3    H133896   3.796   1.536   2.274 -2.9102 -0.0294  0.2898
 4135TIP3    H233897   3.890   1.417   2.265 -0.0083  2.2461 -1.1672
 4136TIP3   OH233898   4.793   4.435   1.024 -0.5014 -0.1856  0.1555
 4136TIP3    H133899   4.831   4.448   0.937 -0.0824  1.6552  0.5807
 4136TIP3    H233900   4.699   4.430   1.009 -0.4148 -0.0752 -0.4218
 4137TIP3   OH233901   1.200   3.502   6.043 -0.1815  0.2501  0.5400
 4137TIP3    H133902   1.273   3.501   5.981 -0.2967 -0.6322  0.4089
 4137TIP3    H233903   1.139   3.437   6.008 -0.3566 -0.0758  1.4492
 4138TIP3   OH233904   2.627   6.614   5.796  0.3285 -0.2441  0.0857
 4138TIP3    H133905   2.586   6.664   5.726  1.8230 -0.8067 -1.2483
 4138TIP3    H233906   2.565   6.619   5.869 -2.1853 -1.2171 -1.8606
 4139TIP3   OH233907   4.417   6.434  13.501  0.5760  0.2634 -0.1430
 4139TIP3    H133908   4.401   6.528  13.504  0.1101  0.1777  1.6588
 4139TIP3    H233909   4.488   6.420  13.563 -1.5953 -0.8859  2.2877
 4140TIP3   OH233910   5.342   5.231  13.220 -0.2714  0.0395 -0.5326
 4140TIP3    H133911   5.327   5.223  13.314  1.8318  0.3425 -0.1051
 4140TIP3    H233912   5.430   5.269  13.213 -0.6022  0.5918 -2.6236
 4141TIP3   OH233913   6.477   4.761  16.344  0.0003  0.4392 -0.3701
 4141TIP3    H133914   6.417   4.830  16.317  1.0159  1.0904 -1.0431
 4141TIP3    H233915   6.503   4.786  16.433 -0.4761  0.3266 -0.1966
 4142TIP3   OH233916   0.275   5.178   3.067  0.0976 -0.0267 -0.5366
 4142TIP3    H133917   0.266   5.273   3.059  2.0211  0.6207  2.9166
 4142TIP3    H233918   0.334   5.166   3.141 -1.0723 -3.9762 -0.0217
 4143TIP3   OH233919   6.544   4.445  11.785 -0.3887  0.1153 -0.0645
 4143TIP3    H133920   6.595   4.470  11.862 -0.1324  1.5910 -0.6887
 4143TIP3    H233921   6.467   4.402  11.821 -1.0730  2.2067  1.1428
 4144TIP3   OH233922   5.872   4.459   5.217 -0.3757 -0.2404  0.0867
 4144TIP3    H133923   5.831   4.489   5.135  1.5854 -0.0805 -0.8747
 4144TIP3    H233924   5.915   4.537   5.251 -0.5253 -0.5048  0.8893
 4145TIP3   OH233925   3.226   2.182  14.626  0.0644  0.2104 -0.5049
 4145TIP3    H133926   3.175   2.252  14.667 -0.0520 -1.1771  1.8671
 4145TIP3    H233927   3.160   2.123  14.588 -0.1983 -1.3077  2.1070
 4146TIP3   OH233928   5.859   5.897   2.887 -0.2531  0.2571 -0.0636
 4146TIP3    H133929   5.861   5.931   2.977  0.9047 -2.4833  1.0722
 4146TIP3    H233930   5.946   5.915   2.852 -0.2920  0.2171 -0.1814
 4147TIP3   OH233931   3.079   3.022   5.218 -0.3479 -0.2513 -0.8876
 4147TIP3    H133932   3.038   2.963   5.155  0.3214  0.6512 -2.2249
 4147TIP3    H233933   3.006   3.059   5.267 -0.9197 -0.7104 -1.3735
 4148TIP3   OH233934   2.403   3.444   0.733  0.1593  0.5414 -0.1457
 4148TIP3    H133935   2.332   3.504   0.711  0.4694  1.1220  0.3935
 4148TIP3    H233936   2.392   3.370   0.674  0.0143  1.3240 -1.1192
 4149TIP3   OH233937   1.915   0.053  16.756  0.2987 -0.7927 -0.6203
 4149TIP3    H133938   2.001   0.092  16.775  0.6743  0.1745 -3.7009
 4149TIP3    H233939   1.853   0.123  16.777  0.2906 -1.2214  0.8793
 4150TIP3   OH233940   4.622   1.172   4.496  0.3058  0.5541  0.1375
 4150TIP3    H133941   4.643   1.245   4.554  1.0233  0.4286  0.0467
 4150TIP3    H233942   4.702   1.159   4.445  1.3923 -2.3483  2.3386
 4151TIP3   OH233943   5.753   4.568  12.711 -0.4563  0.7830  0.0718
 4151TIP3    H133944   5.724   4.645  12.662  0.3853  0.3066 -1.2163
 4151TIP3    H233945   5.808   4.604  12.781 -2.6576  1.5633  1.5239
 4152TIP3   OH233946   3.088   2.526  16.573  0.3563  0.3849 -0.0460
 4152TIP3    H133947   3.098   2.431  16.581 -1.2181  0.2324  0.4472
 4152TIP3    H233948   3.013   2.547  16.629 -0.3890  1.6967 -1.4681
 4153TIP3   OH233949   4.683   4.839  11.084  0.3213  0.6858 -0.2363
 4153TIP3    H133950   4.594   4.808  11.069  1.7596 -3.6672 -1.3328
 4153TIP3    H233951   4.721   4.846  10.997  1.7995 -0.4239  0.2681
 4154TIP3   OH233952   4.672   5.292  13.626 -0.1905  0.0265  0.5475
 4154TIP3    H133953   4.744   5.322  13.682 -0.7149  3.5532 -0.4147
 4154TIP3    H233954   4.596   5.287  13.685  0.0963 -0.1484  0.9001
 4155TIP3   OH233955   5.502   4.614  13.033 -0.0485 -0.8455  0.2954
 4155TIP3    H133956   5.439   4.549  13.063 -0.3047 -0.0609  1.5344
 4155TIP3    H233957   5.455   4.697  13.035  1.1805 -0.1074  2.0305
 4156TIP3   OH233958   5.790   5.788  15.948 -0.1671 -0.2403  0.2218
 4156TIP3    H133959   5.880   5.757  15.943  0.5996  1.4215  2.2386
 4156TIP3    H233960   5.759   5.758  16.034 -0.5304  1.5923  0.7765
 4157TIP3   OH233961   2.733   0.983   5.659  0.0037  0.5230 -0.3364
 4157TIP3    H133962   2.793   0.929   5.608  1.3213  2.8625 -1.4764
 4157TIP3    H233963   2.780   1.066   5.669 -2.1672  1.7001  0.6796
 4158TIP3   OH233964   4.254   1.576   1.690 -0.4364  0.2169  0.0440
 4158TIP3    H133965   4.237   1.664   1.725  0.4508  0.1598  0.6499
 4158TIP3    H233966   4.328   1.588   1.631 -1.3407  0.1458 -1.1338
 4159TIP3   OH233967   4.942   4.528  11.123  0.3200 -0.6839 -0.2752
 4159TIP3    H133968   4.899   4.504  11.205  0.2320 -0.5523 -0.2826
 4159TIP3    H233969   4.946   4.624  11.125  0.1447 -0.6715 -0.5130
 4160TIP3   OH233970   2.147   2.370   2.938  0.4584 -0.2225 -0.3037
 4160TIP3    H133971   2.207   2.428   2.891  2.8442 -2.7480 -0.7030
 4160TIP3    H233972   2.152   2.287   2.889 -0.9119 -1.4617  1.5264
 4161TIP3   OH233973   5.367   1.147  11.032  0.4594 -0.5656  0.3491
 4161TIP3    H133974   5.393   1.234  11.062  2.4307  0.3156 -3.2980
 4161TIP3    H233975   5.447   1.095  11.037  0.0449 -1.2828 -0.2500
 4162TIP3   OH233976   6.183   4.674  12.310 -0.3465  0.6847  0.3292
 4162TIP3    H133977   6.191   4.617  12.386 -0.8892 -0.1145 -0.1928
 4162TIP3    H233978   6.233   4.628  12.241  0.6725  1.7018  0.3605
 4163TIP3   OH233979   0.928   0.980  15.313 -0.0868 -0.1713  0.0681
 4163TIP3    H133980   0.846   0.985  15.362  0.5557 -0.9473  1.2426
 4163TIP3    H233981   0.962   1.069  15.313 -0.2760 -0.0966  0.7214
 4164TIP3   OH233982   4.598   2.488   3.021  0.6892  0.3870  0.5814
 4164TIP3    H133983   4.689   2.469   3.044  0.9891  0.8763 -0.1789
 4164TIP3    H233984   4.577   2.424   2.952  0.1511 -0.3297  1.3784
 4165TIP3   OH233985   1.217   5.318   3.872 -0.0905 -0.5907 -0.1078
 4165TIP3    H133986   1.128   5.298   3.900 -0.8333  0.2462 -1.7486
 4165TIP3    H233987   1.268   5.318   3.953 -1.7980  0.0514  1.0291
 4166TIP3   OH233988   5.843   2.547   0.622  0.3649 -0.2241  0.2753
 4166TIP3    H133989   5.902   2.493   0.675 -1.0046 -1.6959  0.3766
 4166TIP3    H233990   5.800   2.605   0.686  0.3928 -0.4002  0.4540
 4167TIP3   OH233991   6.599   3.388  11.280 -0.2703  0.5443 -0.4179
 4167TIP3    H133992   6.540   3.462  11.263  1.6033  1.8667 -1.6776
 4167TIP3    H233993   6.609   3.346  11.195 -1.7801 -1.6248  0.4001
 4168TIP3   OH233994   5.216   2.388   2.005 -0.4632  0.3759 -0.5072
 4168TIP3    H133995   5.125   2.358   2.004 -1.0376  2.0097 -1.1256
 4168TIP3    H233996   5.267   2.308   2.018 -1.9485 -0.6649 -0.7296
 4169TIP3   OH233997   2.131   4.474   4.457 -0.6850  0.5115  0.1001
 4169TIP3    H133998   2.090   4.391   4.434  0.2178  0.8392 -3.0718
 4169TIP3    H233999   2.222   4.465   4.429 -0.3648  2.2955  0.4398
 4170TIP3   OH234000   4.263   6.710  12.219 -0.3438  0.1530 -1.1353
 4170TIP3    H134001   4.170   6.689  12.214 -0.2713 -0.0543 -1.6481
 4170TIP3    H234002   4.265   6.803  12.240 -0.6631 -0.1517  0.3275
 4171TIP3   OH234003   5.124   1.243   5.090 -0.5855  0.0738  0.3697
 4171TIP3    H134004   5.176   1.322   5.104 -0.5840  0.5011 -1.7863
 4171TIP3    H234005   5.179   1.187   5.034 -1.1936 -0.8144  0.6306
 4172TIP3   OH234006   6.098   5.142   0.424  0.1952 -0.0452  0.0958
 4172TIP3    H134007   6.173   5.193   0.453  0.2142 -1.0074  1.9479
 4172TIP3    H234008   6.035   5.207   0.393  0.4384  1.1023  1.8343
 4173TIP3   OH234009   1.209   5.813   5.864 -0.6977  0.4121  0.2976
 4173TIP3    H134010   1.262   5.763   5.926  1.6562  1.6247 -0.6131
 4173TIP3    H234011   1.145   5.858   5.919  0.0527 -0.0877  1.6307
 4174TIP3   OH234012   0.989   4.212   0.891  0.4790  0.4835 -0.2889
 4174TIP3    H134013   0.995   4.306   0.873  3.0060  0.3198 -0.5553
 4174TIP3    H234014   1.073   4.189   0.929  0.1842 -1.8175 -0.8881
 4175TIP3   OH234015   0.414   6.054   2.731  0.2908  0.1137  0.4148
 4175TIP3    H134016   0.375   5.967   2.724  1.5425 -0.6017  1.9850
 4175TIP3    H234017   0.506   6.041   2.711  0.1137  1.5314 -1.6642
 4176TIP3   OH234018   2.149   4.895  12.573 -0.4217 -0.1513  0.0737
 4176TIP3    H134019   2.212   4.844  12.624 -0.9441 -0.3359  0.5292
 4176TIP3    H234020   2.203   4.941  12.508  0.0673 -1.1683 -0.2485
 4177TIP3   OH234021   0.126   4.120  11.735  0.6752  0.3816  0.2335
 4177TIP3    H134022   0.139   4.137  11.641  1.0944 -2.0783 -0.2223
 4177TIP3    H234023   0.151   4.201  11.778  0.4868  1.5690 -1.7800
 4178TIP3   OH234024   0.326   6.430   4.954 -0.7181 -0.7522  0.0697
 4178TIP3    H134025   0.273   6.498   4.912 -0.1299 -0.2334  0.1446
 4178TIP3    H234026   0.265   6.384   5.012 -0.6094  1.3698  1.9909
 4179TIP3   OH234027   3.601   2.304   0.330  0.2901 -0.2344 -0.4312
 4179TIP3    H134028   3.645   2.344   0.255  0.3921 -0.8265 -0.6948
 4179TIP3    H234029   3.508   2.304   0.306  0.4200 -1.2922 -0.9834
 4180TIP3   OH234030   6.170   2.461   3.386  0.3374  0.3457  0.1867
 4180TIP3    H134031   6.184   2.506   3.303  0.5896  0.1705  0.1321
 4180TIP3    H234032   6.151   2.530   3.449  0.3533  0.4950  0.0272
 4181TIP3   OH234033   4.414   0.710  13.280 -0.3293 -0.1428 -0.0729
 4181TIP3    H134034   4.457   0.655  13.345 -1.2098 -0.1658  0.5193
 4181TIP3    H234035   4.454   0.796  13.291  0.8339 -0.5710 -0.7930
 4182TIP3   OH234036   3.427   4.998   0.935  0.1101  0.4670  0.4223
 4182TIP3    H134037   3.433   5.002   1.030  1.5801 -0.9739  0.4351
 4182TIP3    H234038   3.403   4.907   0.916 -1.2000  0.9899 -0.5666
 4183TIP3   OH234039   1.414   5.684   1.902 -0.0073 -0.4740  0.2878
 4183TIP3    H134040   1.373   5.636   1.830  2.1643 -3.0455  0.6055
 4183TIP3    H234041   1.359   5.666   1.978  0.6111 -2.3673  0.3394
 4184TIP3   OH234042   5.546   6.571   5.785 -0.1509 -0.1747 -0.3627
 4184TIP3    H134043   5.477   6.510   5.757 -0.4948  0.6219 -1.3225
 4184TIP3    H234044   5.585   6.601   5.703  0.1919  0.6942  0.1114
 4185TIP3   OH234045   1.874   5.967   2.384  0.0034  0.6623  0.6527
 4185TIP3    H134046   1.899   5.891   2.331  1.6514  2.1455 -0.8286
 4185TIP3    H234047   1.843   5.929   2.466  2.1830 -1.5894  0.5617
 4186TIP3   OH234048   3.834   1.930   0.641  0.1234  0.3901  0.3529
 4186TIP3    H134049   3.920   1.925   0.599  0.2117  0.4095  0.5276
 4186TIP3    H234050   3.810   2.022   0.638 -0.0455  0.3378  0.0030
 4187TIP3   OH234051   6.563   1.050   4.041 -0.1024 -0.2987  0.3033
 4187TIP3    H134052   6.645   1.050   3.992 -0.2096 -0.7330  0.1149
 4187TIP3    H234053   6.542   0.957   4.052  0.0516 -0.2185  1.3969
 4188TIP3   OH234054   3.774   6.002  15.202  0.1379 -0.1667 -0.4397
 4188TIP3    H134055   3.792   6.087  15.161 -0.7870 -0.2784 -1.0844
 4188TIP3    H234056   3.728   6.024  15.283 -2.1641 -0.0921 -1.6816
 4189TIP3   OH234057   5.135   3.546   3.458  0.2483  0.4080  0.0631
 4189TIP3    H134058   5.173   3.570   3.374  0.4863  0.7432  0.2638
 4189TIP3    H234059   5.047   3.516   3.437  0.7705 -0.8257 -0.4611
 4190TIP3   OH234060   4.826   6.367   2.098 -0.1845  0.1699 -0.3210
 4190TIP3    H134061   4.904   6.410   2.134  0.0094 -0.0680 -0.4569
 4190TIP3    H234062   4.822   6.397   2.007 -1.3103  1.6673  0.1855
 4191TIP3   OH234063   6.266   3.754  14.700 -0.7770 -0.4201 -0.2171
 4191TIP3    H134064   6.308   3.715  14.623 -0.0903 -0.0475 -0.0406
 4191TIP3    H234065   6.194   3.806  14.664  1.4129  2.3761 -0.9883
 4192TIP3   OH234066   3.825   6.551  15.052 -0.4351 -0.2096  0.1849
 4192TIP3    H134067   3.755   6.501  15.011 -1.4214  1.0319  0.2872
 4192TIP3    H234068   3.810   6.541  15.146 -1.0037  0.7229  0.2112
 4193TIP3   OH234069   1.308   4.215  12.958  0.7004 -0.5155  0.3633
 4193TIP3    H134070   1.325   4.303  12.990 -0.6834  0.4885 -1.4611
 4193TIP3    H234071   1.256   4.174  13.027 -1.5224  1.2921 -0.1168
 4194TIP3   OH234072   6.184   3.175  14.514  0.0748  0.3245 -0.0155
 4194TIP3    H134073   6.091   3.154  14.501  0.6275 -2.4871 -0.0614
 4194TIP3    H234074   6.185   3.241  14.583 -1.9389  0.3779  0.0077
 4195TIP3   OH234075   2.747   5.564   5.605 -0.0149 -0.2239 -0.3933
 4195TIP3    H134076   2.824   5.589   5.655 -0.4972 -1.3367  0.9604
 4195TIP3    H234077   2.678   5.625   5.633 -0.6433 -1.6757  1.3687
 4196TIP3   OH234078   0.958   0.540   6.383 -0.1603  0.5399  0.5837
 4196TIP3    H134079   0.989   0.603   6.447  2.8503  1.5195 -1.6171
 4196TIP3    H234080   1.024   0.541   6.314 -1.5248 -2.8512 -1.0066
 4197TIP3   OH234081   5.573   5.236   1.005 -0.1398  0.0327  0.1234
 4197TIP3    H134082   5.587   5.318   1.053  0.9314  0.3708 -0.7408
 4197TIP3    H234083   5.660   5.199   0.995 -0.3582 -0.0929 -1.4633
 4198TIP3   OH234084   5.913   1.044   1.362 -0.0243 -0.2465 -0.0990
 4198TIP3    H134085   5.827   1.003   1.375 -0.3708  0.6586  0.5694
 4198TIP3    H234086   5.976   0.974   1.381 -0.5831 -0.1864  2.2834
 4199TIP3   OH234087   1.599   0.032   1.418 -0.4038 -0.4751  0.0547
 4199TIP3    H134088   1.652   0.003   1.344 -2.6971 -0.6068 -1.6175
 4199TIP3    H234089   1.631  -0.019   1.492  0.6847 -1.7379 -1.2359
 4200TIP3   OH234090   3.179   5.960  16.502  0.4672  0.5032  0.7905
 4200TIP3    H134091   3.217   5.872  16.492  1.9063  1.0743  0.9512
 4200TIP3    H234092   3.198   5.983  16.593 -1.6524  0.2234  1.3549
 4201TIP3   OH234093   3.604   0.111  16.374  0.1094 -0.1354  0.2841
 4201TIP3    H134094   3.641   0.136  16.290  0.2095  0.3423  0.4681
 4201TIP3    H234095   3.621   0.186  16.431  2.5089 -1.4903  1.5039
 4202TIP3   OH234096   1.958   0.689   0.863  0.0371  0.5299 -0.2037
 4202TIP3    H134097   2.004   0.732   0.792  0.2984  0.4151 -0.1051
 4202TIP3    H234098   2.002   0.604   0.872  0.9010  1.0734  0.9918
 4203TIP3   OH234099   0.863   2.398  16.334  0.4280 -0.2763 -0.0897
 4203TIP3    H134100   0.892   2.308  16.322 -0.0826 -0.4104 -0.3451
 4203TIP3    H234101   0.941   2.445  16.363  0.8460 -0.6658 -0.5722
 4204TIP3   OH234102   5.281   6.313   0.969 -0.5389 -0.4010  0.0804
 4204TIP3    H134103   5.245   6.253   1.035  0.0694 -0.3987  0.4179
 4204TIP3    H234104   5.232   6.293   0.890  0.1613 -1.8725 -0.0043
 4205TIP3   OH234105   2.718   2.117   5.931 -0.2525  0.2810 -0.0973
 4205TIP3    H134106   2.725   2.175   6.007  0.0550  1.0156 -0.6783
 4205TIP3    H234107   2.802   2.070   5.930 -0.0962  0.5576 -0.2072
 4206TIP3   OH234108   1.394   3.487   5.112 -0.5114  0.1969 -0.3716
 4206TIP3    H134109   1.360   3.574   5.091 -3.2308 -0.8313 -0.5955
 4206TIP3    H234110   1.366   3.472   5.202  1.7173  0.2876  0.4017
 4207TIP3   OH234111   5.864   1.875  14.353 -0.1027 -0.1275 -0.1414
 4207TIP3    H134112   5.787   1.833  14.314 -0.8720  0.0934  1.0661
 4207TIP3    H234113   5.830   1.916  14.433  1.0782  0.8578 -0.1264
 4208TIP3   OH234114   2.690   3.581  14.967  0.4291 -0.1938 -0.0910
 4208TIP3    H134115   2.631   3.585  15.042  1.7168  1.4131  0.9200
 4208TIP3    H234116   2.778   3.593  15.005  1.1668  0.0562 -1.7816
 4209TIP3   OH234117   4.685   4.397  16.036 -0.7034 -0.3004  0.7318
 4209TIP3    H134118   4.774   4.400  16.072 -0.7702 -0.3109  0.8990
 4209TIP3    H234119   4.630   4.430  16.107 -0.7396  0.5644  0.3085
 4210TIP3   OH234120   0.223   5.990   1.921 -0.1514 -0.2915  0.0130
 4210TIP3    H134121   0.254   6.070   1.964 -1.7855 -0.1091  0.9555
 4210TIP3    H234122   0.225   6.010   1.827 -1.1500  1.1241  0.2616
 4211TIP3   OH234123   3.648   0.009  14.606  0.0043 -0.1602  0.7841
 4211TIP3    H134124   3.605  -0.011  14.689  2.3719 -1.1458  1.8671
 4211TIP3    H234125   3.690  -0.074  14.580  2.2565  0.9863  0.5030
 4212TIP3   OH234126   4.278   3.745  12.427 -0.6271 -0.9600 -0.5181
 4212TIP3    H134127   4.317   3.693  12.497 -0.1488 -1.4304 -1.1262
 4212TIP3    H234128   4.323   3.717  12.347  0.6745  1.3550 -0.7041
 4213TIP3   OH234129   3.309   2.887  16.462 -0.0749 -0.2605  0.2350
 4213TIP3    H134130   3.226   2.934  16.467 -0.7836 -1.3864 -0.4505
 4213TIP3    H234131   3.368   2.946  16.416 -0.6809  0.2945  0.1562
 4214TIP3   OH234132   3.271   1.575  15.266  0.4971  0.8380 -0.1863
 4214TIP3    H134133   3.305   1.486  15.274 -0.9914  0.3282  0.8668
 4214TIP3    H234134   3.272   1.609  15.356 -0.3997  1.3156 -0.3448
 4215TIP3   OH234135   3.728   3.492   3.153  0.0194 -0.7791  0.0147
 4215TIP3    H134136   3.692   3.405   3.168 -0.8183 -0.0867  2.4900
 4215TIP3    H234137   3.669   3.531   3.088 -0.8100 -1.3652  0.3955
 4216TIP3   OH234138   4.089   0.965  13.572  0.0736  0.2835 -0.3327
 4216TIP3    H134139   4.009   0.915  13.590  0.5218 -0.2068  0.3574
 4216TIP3    H234140   4.115   0.937  13.484  1.3493 -2.2195  0.7194
 4217TIP3   OH234141   4.473   0.687  11.438 -0.2386 -0.2550 -0.2454
 4217TIP3    H134142   4.411   0.757  11.457 -0.1584  0.1818 -1.4778
 4217TIP3    H234143   4.434   0.640  11.364 -0.9156 -2.3330  1.3526
 4218TIP3   OH234144   6.032   4.239  17.140  0.2530 -0.0217 -0.6623
 4218TIP3    H134145   6.015   4.198  17.225  0.0726 -1.0138 -1.1689
 4218TIP3    H234146   6.054   4.166  17.082  1.4716  0.7480 -1.2058
 4219TIP3   OH234147   2.899   3.738   4.899 -0.5829  0.2228 -0.5757
 4219TIP3    H134148   2.915   3.726   4.805 -0.3606 -1.2503 -0.3660
 4219TIP3    H234149   2.874   3.651   4.931  0.8180  0.3484  1.0039
 4220TIP3   OH234150   3.502   4.544  10.617 -0.4546  0.3981 -0.1199
 4220TIP3    H134151   3.585   4.564  10.573 -0.3899  0.1111 -0.1269
 4220TIP3    H234152   3.525   4.483  10.686 -0.9102 -1.0847 -1.2340
 4221TIP3   OH234153   0.564   4.926   2.460  0.7740  0.0166 -0.2472
 4221TIP3    H134154   0.585   4.844   2.415  0.4107 -0.0480 -0.3035
 4221TIP3    H234155   0.478   4.909   2.500 -0.1047  0.9570 -1.6883
 4222TIP3   OH234156   3.104   2.656   3.880 -0.5431  0.1847  0.0463
 4222TIP3    H134157   3.192   2.675   3.913 -0.8178  1.8808 -0.0825
 4222TIP3    H234158   3.046   2.713   3.931 -1.5002 -0.4559 -0.2921
 4223TIP3   OH234159   2.235   5.323   3.403 -0.3568  0.1508 -0.2216
 4223TIP3    H134160   2.302   5.287   3.345 -1.1385 -0.6232 -0.6519
 4223TIP3    H234161   2.285   5.366   3.473  0.5859  0.2262 -0.9260
 4224TIP3   OH234162   1.811   0.750   1.252 -0.2577 -0.1141  0.0299
 4224TIP3    H134163   1.754   0.678   1.278  0.0905 -0.2339  0.4835
 4224TIP3    H234164   1.795   0.818   1.319 -3.6011  1.9272 -2.5121
 4225TIP3   OH234165   2.907   5.495   3.456 -0.2745 -0.3735  0.4804
 4225TIP3    H134166   2.965   5.557   3.412 -1.4199  1.0551  0.9199
 4225TIP3    H234167   2.903   5.420   3.396  2.1372 -0.6363  0.5212
 4226TIP3   OH234168   5.201   5.834   0.018  0.4516  0.6072 -0.4897
 4226TIP3    H134169   5.171   5.896   0.085  1.1593  1.0373 -0.5641
 4226TIP3    H234170   5.294   5.821   0.037  0.5835  0.4880 -1.1946
 4227TIP3   OH234171   6.791   2.710  14.840 -0.3767 -0.2369 -0.1745
 4227TIP3    H134172   6.834   2.712  14.754 -2.2362  0.8440 -1.1652
 4227TIP3    H234173   6.840   2.774  14.892 -1.5475  2.0806 -1.7362
 4228TIP3   OH234174   4.652   6.302  15.547  0.1113  0.0205 -0.1509
 4228TIP3    H134175   4.606   6.260  15.620  0.8085  0.8788  0.8091
 4228TIP3    H234176   4.668   6.231  15.484  1.0644 -1.1212  1.3154
 4229TIP3   OH234177   3.940   0.944   5.134 -0.1999 -0.1099 -0.1781
 4229TIP3    H134178   3.892   0.919   5.055  0.4359 -1.7613 -0.0850
 4229TIP3    H234179   3.872   0.978   5.193 -0.9846 -0.7206 -0.7033
 4230TIP3   OH234180   4.129   5.211  15.425 -0.3325  0.8536  0.6143
 4230TIP3    H134181   4.141   5.240  15.334 -0.4806 -0.0790  0.2782
 4230TIP3    H234182   4.183   5.132  15.431  1.8747  2.3712  2.1391
 4231TIP3   OH234183   4.955   5.676  12.935 -0.0021  0.0577  0.3258
 4231TIP3    H134184   4.976   5.769  12.948 -1.5929  0.3751  0.9187
 4231TIP3    H234185   5.034   5.629  12.961  0.5967  1.2226  0.6584
 4232TIP3   OH234186   3.295   1.643  12.293  0.6533  0.1446  0.7001
 4232TIP3    H134187   3.206   1.639  12.258  1.3223  2.0413 -1.5258
 4232TIP3    H234188   3.340   1.569  12.252  0.6463  0.5598 -0.0933
 4233TIP3   OH234189   1.128   0.340  10.182  0.5290 -0.1533 -0.4731
 4233TIP3    H134190   1.071   0.417  10.184  1.5339  0.6249 -0.6335
 4233TIP3    H234191   1.196   0.360  10.247  1.2853 -0.5073 -1.1398
 4234TIP3   OH234192   2.666   4.061  13.805 -0.2105  0.4424  0.1646
 4234TIP3    H134193   2.642   4.116  13.731  0.1034  0.0285 -0.2545
 4234TIP3    H234194   2.600   3.992  13.806  0.1099  0.1258 -0.0886
 4235TIP3   OH234195   4.223   5.497  17.260  0.1397  0.4074  0.2636
 4235TIP3    H134196   4.217   5.535  17.171 -1.3676  0.9446  0.5536
 4235TIP3    H234197   4.278   5.559  17.308  0.2390  0.5847 -0.0702
 4236TIP3   OH234198   5.604   5.754  11.204 -0.6392 -0.6220  0.4075
 4236TIP3    H134199   5.519   5.784  11.236 -1.7679 -0.1290 -2.6972
 4236TIP3    H234200   5.585   5.711  11.121  2.1686 -0.3359 -0.5058
 4237TIP3   OH234201   0.227   4.096   0.804 -0.4217 -0.6703 -0.3129
 4237TIP3    H134202   0.318   4.067   0.800 -0.1256  0.0595  0.6572
 4237TIP3    H234203   0.176   4.016   0.813  0.3339 -0.9618  1.7390
 4238TIP3   OH234204   6.799   1.100   1.130 -0.2655  0.6871 -0.0683
 4238TIP3    H134205   6.765   1.108   1.219 -2.0143 -0.7869 -0.5337
 4238TIP3    H234206   6.881   1.150   1.130  0.4637 -0.3688  2.7141
 4239TIP3   OH234207   2.542   0.542  12.644  0.7571  0.0696 -0.0400
 4239TIP3    H134208   2.495   0.471  12.600  1.4445 -1.4754  1.6071
 4239TIP3    H234209   2.498   0.551  12.729  1.9632  0.1914  0.5950
 4240TIP3   OH234210   2.616   4.355  10.166 -0.3874 -0.2667  0.0955
 4240TIP3    H134211   2.704   4.321  10.181  0.1700 -0.2096 -2.6851
 4240TIP3    H234212   2.566   4.326  10.243  1.9547 -0.4783  1.6359
 4241TIP3   OH234213   1.738   3.946  10.217 -0.6015  0.2980 -0.0713
 4241TIP3    H134214   1.743   4.024  10.273 -0.0320  0.4185 -0.2836
 4241TIP3    H234215   1.768   3.874  10.274  0.2626  0.4681 -0.3067
 4242TIP3   OH234216   0.553   5.238   1.145 -0.5289 -0.2495 -0.4588
 4242TIP3    H134217   0.618   5.205   1.082  1.3727  1.6107  0.4043
 4242TIP3    H234218   0.526   5.322   1.109  0.5167  0.8032  1.0543
 4243TIP3   OH234219   5.669   4.915  10.974  0.7153 -0.8760 -0.0741
 4243TIP3    H134220   5.645   4.884  10.887  1.0311 -0.8079 -0.1861
 4243TIP3    H234221   5.727   4.847  11.008 -0.7304 -1.7511  0.7604
 4244TIP3   OH234222   1.452   1.959   0.711  0.3193  0.4042 -0.9898
 4244TIP3    H134223   1.523   2.023   0.714  1.7028 -1.1078  0.0652
 4244TIP3    H234224   1.494   1.878   0.680 -0.4398 -1.0575  1.5456
 4245TIP3   OH234225   5.614   1.848  13.857  0.2725  0.0340 -0.0556
 4245TIP3    H134226   5.568   1.803  13.786 -0.4263 -1.2329  1.1428
 4245TIP3    H234227   5.703   1.812  13.854  1.4468  2.7213 -2.5814
 4246TIP3   OH234228   5.469   1.676  15.481  0.0696 -0.3705  0.1236
 4246TIP3    H134229   5.550   1.636  15.512  0.6783 -0.3699 -1.4176
 4246TIP3    H234230   5.417   1.602  15.449  0.6479 -0.1114 -1.4937
 4247TIP3   OH234231   4.062   0.014  13.897  0.5388 -0.3310  0.2575
 4247TIP3    H134232   3.987   0.025  13.839  0.2993  0.3001  0.6777
 4247TIP3    H234233   4.025   0.020  13.985  1.3668  2.2661  0.5041
 4248TIP3   OH234234   1.203   6.155  14.081 -0.6067 -0.1856 -0.1429
 4248TIP3    H134235   1.219   6.121  13.993  1.7697 -1.1788  0.5992
 4248TIP3    H234236   1.287   6.149  14.126 -1.5763  0.9270  2.0142
 4249TIP3   OH234237   0.686   3.809  13.750  0.0543 -0.4524  0.2267
 4249TIP3    H134238   0.591   3.820  13.748  0.2295  1.1496 -0.7882
 4249TIP3    H234239   0.699   3.723  13.791 -1.8612 -1.2593 -0.7049
 4250TIP3   OH234240   1.700   5.329   3.828 -0.0567  0.0115  0.7163
 4250TIP3    H134241   1.680   5.399   3.889  1.8182  1.4422 -0.2157
 4250TIP3    H234242   1.623   5.323   3.772 -1.2858 -0.4821  2.3721
 4251TIP3   OH234243   0.543   5.201   5.164 -0.0273 -0.2321 -0.0937
 4251TIP3    H134244   0.559   5.143   5.088 -0.9295 -0.6272  0.0055
 4251TIP3    H234245   0.540   5.289   5.126  0.3439 -0.3453 -0.3984
 4252TIP3   OH234246   0.590   2.033  16.475 -0.2492  0.0945  0.1479
 4252TIP3    H134247   0.637   2.116  16.475 -2.2495  1.3667 -2.2350
 4252TIP3    H234248   0.561   2.021  16.565 -0.6174  2.4355  0.3954
 4253TIP3   OH234249   5.279   5.666  13.168 -0.2753  0.3588 -0.2386
 4253TIP3    H134250   5.248   5.584  13.207  0.0447  0.6205  0.5783
 4253TIP3    H234251   5.305   5.641  13.079  1.0492 -0.7390  0.4046
 4254TIP3   OH234252   6.260   0.820   1.929  0.2233  0.2192 -0.5276
 4254TIP3    H134253   6.346   0.819   1.969 -0.9897 -1.6553  2.3623
 4254TIP3    H234254   6.216   0.896   1.968 -0.0110  0.1543 -0.6623
 4255TIP3   OH234255   1.918   2.841  10.473  0.0431 -0.4037 -0.3943
 4255TIP3    H134256   1.849   2.790  10.430 -1.2431  0.5676  0.4417
 4255TIP3    H234257   1.974   2.775  10.515 -1.8009 -1.1733  1.0072
 4256TIP3   OH234258   4.553   5.290   4.952  0.4660 -0.9632 -0.2398
 4256TIP3    H134259   4.498   5.247   5.016 -1.2068  0.5251 -0.5997
 4256TIP3    H234260   4.604   5.354   5.002  0.1277 -0.7144 -0.2111
 4257TIP3   OH234261   1.427   4.819   1.201  0.2028  0.1566 -0.7264
 4257TIP3    H134262   1.378   4.841   1.280  0.0928 -0.5009 -0.6064
 4257TIP3    H234263   1.477   4.741   1.225 -0.3626 -0.4604 -1.5128
 4258TIP3   OH234264   6.358   5.333   5.847  0.0869  0.1846  0.3187
 4258TIP3    H134265   6.431   5.279   5.879 -0.2774 -0.0308  0.7859
 4258TIP3    H234266   6.318   5.368   5.926 -1.4063 -1.1023  0.1627
 4259TIP3   OH234267   0.218   1.305  14.867 -0.0826 -0.4917  0.1895
 4259TIP3    H134268   0.163   1.227  14.859 -0.9260  0.0554  0.5011
 4259TIP3    H234269   0.292   1.278  14.921 -0.2665 -1.1215  0.1243
 4260TIP3   OH234270   2.203   6.401   4.272 -0.6100  0.0816 -0.5046
 4260TIP3    H134271   2.130   6.389   4.333  0.6481 -0.6547  0.9280
 4260TIP3    H234272   2.203   6.495   4.254 -1.4361  0.2155  0.0784
 4261TIP3   OH234273   4.739   3.713  14.675  0.1263  0.3282  0.8019
 4261TIP3    H134274   4.662   3.661  14.700 -0.2767  0.4446 -0.1286
 4261TIP3    H234275   4.710   3.804  14.680  0.6521  0.4457  1.8550
 4262TIP3   OH234276   4.090   3.461  14.609  0.1647 -0.1160 -0.1262
 4262TIP3    H134277   4.120   3.508  14.687  0.6695  1.0346 -0.9789
 4262TIP3    H234278   4.156   3.394  14.594 -0.4577 -1.0190  0.9914
 4263TIP3   OH234279   2.073   2.002   0.390  0.0663 -0.1914  0.1885
 4263TIP3    H134280   2.023   2.036   0.465  0.7781  0.4835  0.3734
 4263TIP3    H234281   2.042   1.912   0.380 -1.1347  0.1809  0.3307
 4264TIP3   OH234282   4.929   2.930   5.721  0.0875  0.4884 -0.1200
 4264TIP3    H134283   4.975   3.014   5.720  0.5396  0.2449 -1.1825
 4264TIP3    H234284   4.845   2.950   5.764 -0.4158  1.8377 -1.6142
 4265TIP3   OH234285   3.534   2.828   4.480 -0.1711  0.1987  0.3720
 4265TIP3    H134286   3.586   2.750   4.462  2.0500  1.6194  0.1906
 4265TIP3    H234287   3.543   2.841   4.575 -0.2658  0.4198  0.3516
 4266TIP3   OH234288   2.855   0.429  12.424  0.0064 -0.0965 -0.0633
 4266TIP3    H134289   2.911   0.404  12.498  1.8610 -0.7575 -1.6066
 4266TIP3    H234290   2.912   0.483  12.368 -0.5777 -1.5460 -2.1530
 4267TIP3   OH234291   0.315   6.698   3.259  0.2047  0.0750  0.1600
 4267TIP3    H134292   0.382   6.630   3.261  0.2404  0.0811  2.8505
 4267TIP3    H234293   0.331   6.750   3.338 -0.7227  2.3560 -1.0455
 4268TIP3   OH234294   5.932   1.584  12.745 -0.2739  0.1317  0.3936
 4268TIP3    H134295   5.886   1.613  12.666  1.3087  0.0590 -0.6151
 4268TIP3    H234296   5.882   1.510  12.777 -0.6766 -0.1549 -0.8547
 4269TIP3   OH234297   2.786   1.557  14.116  0.4116 -0.1556 -0.2170
 4269TIP3    H134298   2.871   1.574  14.157 -1.1723  3.5820  1.9712
 4269TIP3    H234299   2.722   1.587  14.180 -2.5105 -0.4240 -2.7891
 4270TIP3   OH234300   1.395   4.163   4.571 -0.3968  0.4541 -0.0752
 4270TIP3    H134301   1.403   4.151   4.665 -0.6949  1.1624  0.0493
 4270TIP3    H234302   1.478   4.132   4.535 -0.3635 -0.0128  0.3981
 4271TIP3   OH234303   0.404   5.116   0.940  0.2504  0.0002 -0.6054
 4271TIP3    H134304   0.347   5.161   1.003 -0.0858 -1.5449  0.2563
 4271TIP3    H234305   0.455   5.055   0.993  0.4411 -0.8722 -1.7507
 4272TIP3   OH234306   3.835   4.345  15.301 -0.4361 -0.5599  0.7136
 4272TIP3    H134307   3.911   4.359  15.245 -1.6051 -0.7016 -0.9678
 4272TIP3    H234308   3.847   4.406  15.373  0.5591  0.4339 -0.2611
 4273TIP3   OH234309   1.243   1.025   3.944  0.3433 -0.1408  0.0684
 4273TIP3    H134310   1.260   0.939   3.982 -0.5785  0.3939  1.7727
 4273TIP3    H234311   1.258   1.087   4.015  0.8653  1.1197 -1.0916
 4274TIP3   OH234312   2.308   2.560   2.798  0.4559 -0.1909  0.1420
 4274TIP3    H134313   2.321   2.634   2.739 -1.0640  0.3213  0.4079
 4274TIP3    H234314   2.338   2.484   2.748 -0.6823  0.2488 -1.2607
 4275TIP3   OH234315   0.167   2.171  12.264  0.3224  0.2541  0.6334
 4275TIP3    H134316   0.138   2.235  12.330  0.2005  0.2618  0.5735
 4275TIP3    H234317   0.160   2.086  12.308  2.2912  0.4124  1.3615
 4276TIP3   OH234318   4.752   0.552  14.224 -0.3306  1.1476  0.1720
 4276TIP3    H134319   4.778   0.632  14.271  2.5123 -0.4251  1.5144
 4276TIP3    H234320   4.688   0.511  14.283  0.3519  1.0556  0.8670
 4277TIP3   OH234321   1.094   6.593  15.296 -0.2828  0.2591 -0.3061
 4277TIP3    H134322   1.109   6.557  15.383  1.0551  0.6682 -0.3469
 4277TIP3    H234323   1.040   6.671  15.311 -0.7553 -0.1347  0.0604
 4278TIP3   OH234324   2.289   1.562  13.287 -0.0010  0.6763  0.0682
 4278TIP3    H134325   2.367   1.539  13.237  0.3405  1.8591  0.0366
 4278TIP3    H234326   2.251   1.477  13.311  0.7283  0.0826 -0.7721
 4279TIP3   OH234327   1.994   4.108  17.063 -0.3180  0.1684 -0.3970
 4279TIP3    H134328   1.965   4.108  16.972  0.9794  1.1092 -0.8361
 4279TIP3    H234329   2.044   4.189  17.072  2.1995 -1.3548  0.2890
 4280TIP3   OH234330   4.869   4.161  15.957  0.3024 -0.1780 -0.2047
 4280TIP3    H134331   4.786   4.117  15.974 -0.0689  0.3378 -0.6205
 4280TIP3    H234332   4.877   4.225  16.028  0.5636 -0.5301  0.0833
 4281TIP3   OH234333   6.349   3.125  13.276  0.2904 -0.3842  0.0201
 4281TIP3    H134334   6.440   3.100  13.258 -0.0072 -0.2129 -1.9950
 4281TIP3    H234335   6.299   3.088  13.204 -1.1528  0.1325  0.7145
 4282TIP3   OH234336   1.048   5.002   2.591  0.3456  0.7257 -0.3658
 4282TIP3    H134337   0.990   5.011   2.667  0.1799  0.0666 -0.4109
 4282TIP3    H234338   1.135   5.017   2.627  0.4744 -1.4736  0.3660
 4283TIP3   OH234339   1.144   6.463  15.930  0.0576  0.1239  0.2889
 4283TIP3    H134340   1.051   6.442  15.934  0.2108 -0.7494 -0.5041
 4283TIP3    H234341   1.157   6.499  15.842  0.6106 -0.5093  0.1035
 4284TIP3   OH234342   4.807   6.704  16.328 -0.6636 -0.0303  0.1071
 4284TIP3    H134343   4.853   6.678  16.408 -0.4161  0.3856  0.0998
 4284TIP3    H234344   4.806   6.624  16.275 -2.4107 -0.8360  1.2367
 4285TIP3   OH234345   6.131   5.560  16.380 -0.6339  0.2613  0.1436
 4285TIP3    H134346   6.115   5.468  16.402  1.1303  0.2762  1.8507
 4285TIP3    H234347   6.226   5.565  16.367 -0.8176  1.6729 -0.8392
 4286TIP3   OH234348   5.235   1.098   0.751  0.3662  0.0167 -0.5246
 4286TIP3    H134349   5.321   1.062   0.730 -0.4593 -2.1267 -0.4907
 4286TIP3    H234350   5.247   1.193   0.749  2.5932 -0.2307 -1.0103
 4287TIP3   OH234351   1.880   2.719  13.623 -0.3216 -0.0074 -0.1192
 4287TIP3    H134352   1.835   2.791  13.579 -0.1396 -0.6377 -1.3898
 4287TIP3    H234353   1.822   2.694  13.695  0.3289  2.4007  1.3549
 4288TIP3   OH234354   6.638   2.091   1.113  0.0208  0.2832 -0.3670
 4288TIP3    H134355   6.578   2.033   1.066 -0.9718  1.5959 -0.7841
 4288TIP3    H234356   6.654   2.046   1.197 -2.0491  0.1712  0.0134
 4289TIP3   OH234357   2.527   1.689   2.622  0.0282 -0.3232 -0.4177
 4289TIP3    H134358   2.487   1.653   2.701 -1.1457  1.4964 -0.1275
 4289TIP3    H234359   2.557   1.776   2.648  0.6995 -0.1589 -1.6733
 4290TIP3   OH234360   1.307   5.507   2.398  0.1812 -0.6431  0.3168
 4290TIP3    H134361   1.395   5.505   2.360 -0.7297 -3.3549 -2.0927
 4290TIP3    H234362   1.248   5.493   2.323 -2.1717 -0.8263  2.0670
 4291TIP3   OH234363   6.502   4.669  12.268 -0.3001  0.2617 -0.5021
 4291TIP3    H134364   6.551   4.689  12.348 -0.4587  0.1041 -0.3617
 4291TIP3    H234365   6.472   4.754  12.236 -1.1209  0.2527  0.1870
 4292TIP3   OH234366   0.194   1.322   3.933 -0.1964 -0.4326  0.0032
 4292TIP3    H134367   0.113   1.358   3.968 -0.3584 -1.8360  1.1749
 4292TIP3    H234368   0.232   1.393   3.881 -2.0115  0.3425 -0.3280
 4293TIP3   OH234369   5.818   1.303   4.773 -0.2478 -0.4161  0.0577
 4293TIP3    H134370   5.789   1.341   4.856 -0.6170 -0.2990 -0.1203
 4293TIP3    H234371   5.876   1.232   4.798  0.0044 -0.0917  0.4084
 4294TIP3   OH234372   4.361   6.533  16.656  0.1940 -0.2189  0.1608
 4294TIP3    H134373   4.418   6.609  16.640  0.5358 -0.3392  0.7516
 4294TIP3    H234374   4.407   6.483  16.724 -0.1827 -0.7921 -0.0003
 4295TIP3   OH234375   6.396   6.618  16.922  0.3197  0.5594 -0.4408
 4295TIP3    H134376   6.398   6.522  16.931  0.6911  0.6389  0.3460
 4295TIP3    H234377   6.367   6.632  16.832  2.3231 -0.3237 -1.2779
 4296TIP3   OH234378   2.516   5.878  13.145 -0.2419  0.3430 -0.2253
 4296TIP3    H134379   2.424   5.896  13.123  0.1941  0.1422 -2.3814
 4296TIP3    H234380   2.565   5.905  13.068  1.1471 -3.1047 -0.7587
 4297TIP3   OH234381   5.362   2.960  14.886 -0.4057  0.6114 -0.0283
 4297TIP3    H134382   5.313   2.902  14.828 -0.7818 -0.5547  1.3834
 4297TIP3    H234383   5.427   2.903  14.928  0.0441  1.4772  0.4773
 4298TIP3   OH234384   0.698   4.225  12.605 -0.1658 -0.0129 -0.2871
 4298TIP3    H134385   0.749   4.146  12.619 -0.4512  0.0823  1.4936
 4298TIP3    H234386   0.615   4.195  12.567 -0.1656 -0.5318  0.1209
 4299TIP3   OH234387   1.970   0.057  11.316 -0.0996 -0.0750 -0.1532
 4299TIP3    H134388   2.061   0.065  11.344 -0.1365  1.1904 -0.3601
 4299TIP3    H234389   1.959  -0.036  11.297  0.9030 -0.3831  0.6962
 4300TIP3   OH234390   6.777   0.923  16.836 -0.7905  0.1371  0.0424
 4300TIP3    H134391   6.758   0.829  16.826  0.5988 -0.3674  1.6583
 4300TIP3    H234392   6.719   0.952  16.907  0.4228 -0.0979  1.1678
 4301TIP3   OH234393   5.610   2.298   3.943 -0.2843  0.8171  0.1749
 4301TIP3    H134394   5.680   2.361   3.959  0.1665  1.0977 -2.5136
 4301TIP3    H234395   5.655   2.213   3.940 -0.2313  0.8615 -0.3638
 4302TIP3   OH234396   6.019   3.496   5.263 -0.3710 -0.3381 -0.0178
 4302TIP3    H134397   5.962   3.495   5.339  0.1798 -0.3806  0.4038
 4302TIP3    H234398   6.051   3.586   5.258  0.9324 -0.7328  0.8298
 4303TIP3   OH234399   5.021   3.131  11.474  0.0262 -0.2511 -0.7081
 4303TIP3    H134400   5.042   3.203  11.533 -1.4736 -0.5363  0.2361
 4303TIP3    H234401   5.050   3.052  11.521 -1.4376 -0.5024 -0.1664
 4304TIP3   OH234402   2.809   1.761   0.363  0.1278  0.7498 -0.3775
 4304TIP3    H134403   2.803   1.791   0.272 -0.1559  0.2430 -0.5322
 4304TIP3    H234404   2.724   1.719   0.379  0.9024 -0.9174 -0.5096
 4305TIP3   OH234405   3.389   4.573  13.474  0.4281  0.3457 -0.1261
 4305TIP3    H134406   3.305   4.566  13.428 -1.1516  2.0049  2.2336
 4305TIP3    H234407   3.389   4.499  13.534  0.2746  0.7527  0.3851
 4306TIP3   OH234408   3.841   2.791  13.835 -0.5776 -0.2599 -0.2180
 4306TIP3    H134409   3.792   2.809  13.755 -2.9488 -2.3274  0.6531
 4306TIP3    H234410   3.829   2.869  13.889 -0.5287  0.3809 -1.1055
 4307TIP3   OH234411   4.195   2.697  12.593  0.8313 -0.3619  0.4126
 4307TIP3    H134412   4.169   2.690  12.685  1.2558  0.8109  0.6398
 4307TIP3    H234413   4.289   2.715  12.596  0.4924  1.9049 -0.1178
 4308TIP3   OH234414   5.438   3.750  12.013 -0.7024 -0.2157  0.7439
 4308TIP3    H134415   5.363   3.782  12.064  0.1788 -0.9900  2.6287
 4308TIP3    H234416   5.492   3.703  12.077  0.6800 -0.9041 -0.8585
 4309TIP3   OH234417   1.140   6.326   0.638 -0.1220  0.5845  0.2267
 4309TIP3    H134418   1.208   6.393   0.628  0.9343 -0.3850  0.7056
 4309TIP3    H234419   1.171   6.253   0.585 -1.6010  0.6849 -0.8490
 4310TIP3   OH234420   3.158   0.681   4.685  0.3318 -0.0655  0.1249
 4310TIP3    H134421   3.087   0.646   4.631  0.1386 -0.2348  0.4909
 4310TIP3    H234422   3.233   0.626   4.663  0.2275 -0.2001  0.1059
 4311TIP3   OH234423   5.781   5.079   1.752  0.2333  0.0146  0.3927
 4311TIP3    H134424   5.705   5.027   1.726 -0.7938  1.2042  0.8608
 4311TIP3    H234425   5.749   5.134   1.823  1.5051  0.6585  0.5025
 4312TIP3   OH234426   3.822   6.804   3.582 -0.4330 -0.7042  0.1282
 4312TIP3    H134427   3.911   6.772   3.567 -0.3744 -0.1873 -0.7058
 4312TIP3    H234428   3.766   6.738   3.541 -0.5060 -1.5778  1.5754
 4313TIP3   OH234429   0.148   6.155   5.839 -0.2745  0.4148 -0.1167
 4313TIP3    H134430   0.083   6.130   5.774 -0.8005 -0.4541  0.7034
 4313TIP3    H234431   0.230   6.116   5.809 -0.5431 -0.0913 -0.1907
 4314TIP3   OH234432   2.670   0.522  16.491 -0.4194  0.0896 -0.1465
 4314TIP3    H134433   2.650   0.584  16.561 -1.4629 -1.5948  1.1070
 4314TIP3    H234434   2.689   0.440  16.535  3.2354 -0.0710 -1.6134
 4315TIP3   OH234435   0.429   3.598  11.977 -0.4954 -0.5556  0.4058
 4315TIP3    H134436   0.414   3.685  11.939 -0.3300 -0.6850  0.0366
 4315TIP3    H234437   0.405   3.537  11.907  0.0850 -0.7946  0.4092
 4316TIP3   OH234438   5.151   5.741   2.177 -0.6160  0.1921 -0.7489
 4316TIP3    H134439   5.194   5.743   2.091 -0.0400  0.7931 -0.4594
 4316TIP3    H234440   5.199   5.674   2.226 -0.2260  0.6210 -0.5390
 4317TIP3   OH234441   0.447   2.660   3.708  0.2674 -0.3580  0.5769
 4317TIP3    H134442   0.486   2.680   3.623  0.1630  0.0358  0.6228
 4317TIP3    H234443   0.448   2.564   3.712 -1.5936 -0.4914 -0.7581
 4318TIP3   OH234444   3.663   0.915   4.645 -0.0874  0.1131  0.2042
 4318TIP3    H134445   3.567   0.922   4.641  0.0485  3.2910  0.3046
 4318TIP3    H234446   3.682   0.900   4.737 -0.4704 -2.3035 -0.0363
 4319TIP3   OH234447   2.996   5.387   4.629  0.1475 -0.0345  0.2203
 4319TIP3    H134448   2.959   5.324   4.567 -1.2344  1.6460 -0.7428
 4319TIP3    H234449   3.076   5.417   4.586  0.8033 -1.0553  0.6742
 4320TIP3   OH234450   4.773   4.544  10.888  0.3314  0.1590  0.4638
 4320TIP3    H134451   4.781   4.639  10.897 -1.3036  0.3916 -0.1651
 4320TIP3    H234452   4.832   4.509  10.955  2.5205  1.5596 -0.5980
 4321TIP3   OH234453   0.186   6.203  12.804  0.1177 -0.3696 -0.4985
 4321TIP3    H134454   0.112   6.188  12.745 -0.7404  0.2940  0.3613
 4321TIP3    H234455   0.221   6.116  12.822 -0.3259 -0.6776 -1.0871
 4322TIP3   OH234456   6.552   1.611   2.343  0.4042 -0.7400 -0.0990
 4322TIP3    H134457   6.628   1.621   2.400  0.6760 -0.1621 -0.5448
 4322TIP3    H234458   6.519   1.523   2.361 -0.2859 -0.1103  1.8680
 4323TIP3   OH234459   2.028   3.717  13.572  0.6590 -0.8980  0.5787
 4323TIP3    H134460   2.009   3.809  13.557  1.9874 -0.7378 -0.2354
 4323TIP3    H234461   1.941   3.675  13.574  0.0970  0.1448 -0.5950
 4324TIP3   OH234462   2.442   0.924  16.025  0.1742 -0.4136  0.4887
 4324TIP3    H134463   2.438   0.986  15.953 -2.6725 -1.4670 -0.4091
 4324TIP3    H234464   2.474   0.843  15.985 -0.9738 -0.8755  0.4731
 4325TIP3   OH234465   3.418   2.700  11.931 -0.4406  0.2615 -0.8359
 4325TIP3    H134466   3.484   2.770  11.926 -0.4858  0.4731  0.9695
 4325TIP3    H234467   3.465   2.622  11.902  0.9531  0.2215  1.2637
 4326TIP3   OH234468   3.225   0.102   3.034  0.3701 -0.5870  0.0222
 4326TIP3    H134469   3.223   0.094   3.129 -1.3162 -0.3341  0.0403
 4326TIP3    H234470   3.164   0.173   3.014  1.1259 -0.2506 -1.2269
 4327TIP3   OH234471   0.603   3.377  17.286  0.1000  0.2624  0.5086
 4327TIP3    H134472   0.624   3.307  17.348 -1.2088 -0.2917  0.3752
 4327TIP3    H234473   0.643   3.455  17.323  0.0117 -0.2122  1.6408
 4328TIP3   OH234474   0.243   5.469  14.666 -0.0836 -0.8225 -0.4919
 4328TIP3    H134475   0.247   5.554  14.621 -1.3825 -1.4243 -1.8259
 4328TIP3    H234476   0.299   5.480  14.743 -0.6689  1.4293 -0.3179
 4329TIP3   OH234477   0.279   4.001   5.366 -0.0528 -0.5649  0.1863
 4329TIP3    H134478   0.197   3.954   5.349  0.0420 -0.6874  0.0685
 4329TIP3    H234479   0.321   3.952   5.437 -0.8830  0.4712  1.4429
 4330TIP3   OH234480   0.964   2.916  12.232 -0.3827  0.9365  0.7532
 4330TIP3    H134481   0.974   2.940  12.140 -0.7366  1.3151  0.8147
 4330TIP3    H234482   1.019   2.838  12.242  1.0075  1.8570  0.6226
 4331TIP3   OH234483   4.473   2.401  11.016 -0.1138  0.2569  0.3087
 4331TIP3    H134484   4.489   2.353  10.935  2.8693  0.9844  0.3716
 4331TIP3    H234485   4.507   2.345  11.085 -1.3039  0.2882  0.9585
 4332TIP3   OH234486   6.410   4.149  11.706  0.1937  0.3941  0.6353
 4332TIP3    H134487   6.384   4.162  11.797  3.2702  2.9445  1.3394
 4332TIP3    H234488   6.504   4.136  11.710  0.2493 -0.6928 -2.1456
 4333TIP3   OH234489   1.342   1.936   3.673 -0.1373  0.0004  0.0817
 4333TIP3    H134490   1.250   1.911   3.687 -0.3312 -0.9755 -2.3424
 4333TIP3    H234491   1.337   2.017   3.622  0.3099 -0.2450 -0.3650
 4334TIP3   OH234492   5.187   0.699  12.255 -0.2746 -0.5949 -0.3617
 4334TIP3    H134493   5.216   0.741  12.175 -0.0204 -1.9676 -1.0177
 4334TIP3    H234494   5.198   0.766  12.323  2.9439 -0.5188 -0.8125
 4335TIP3   OH234495   2.369   4.439  14.760 -0.0341 -0.4429  0.1387
 4335TIP3    H134496   2.449   4.402  14.796  0.0337  1.0335  1.6525
 4335TIP3    H234497   2.307   4.436  14.834 -1.0507 -0.6024 -0.6993
 4336TIP3   OH234498   6.468   0.766  12.486 -0.2259  0.7836  0.2954
 4336TIP3    H134499   6.390   0.777  12.432 -1.2860  0.2285  1.6440
 4336TIP3    H234500   6.503   0.854  12.498  0.5743  0.8401 -1.9938
 4337TIP3   OH234501   4.729   0.473   3.414  0.6635 -0.2215  0.1951
 4337TIP3    H134502   4.781   0.495   3.491  1.6851 -0.3185 -0.4401
 4337TIP3    H234503   4.686   0.390   3.437  1.0433 -0.3026  0.6235
 4338TIP3   OH234504   0.737   2.714  12.777  0.3813 -0.5009 -0.1826
 4338TIP3    H134505   0.673   2.672  12.834  0.9545  0.4997  1.2769
 4338TIP3    H234506   0.696   2.797  12.752  0.6631 -0.3366 -0.1120
 4339TIP3   OH234507   2.062   0.604  14.559  0.0794  0.2112 -0.0195
 4339TIP3    H134508   2.092   0.559  14.480 -0.8036  0.3170 -0.4324
 4339TIP3    H234509   2.064   0.697  14.536  1.3280  0.3580  0.6291
 4340TIP3   OH234510   3.014   4.794  13.515 -0.3428  0.4639 -0.3117
 4340TIP3    H134511   2.947   4.820  13.453 -0.1080 -1.6959 -1.5343
 4340TIP3    H234512   3.097   4.808  13.469 -0.0740  0.4856  0.1652
 4341TIP3   OH234513   0.860   4.817  13.548 -0.1115 -0.7780  0.3315
 4341TIP3    H134514   0.921   4.785  13.482  1.6169  2.5527  0.0697
 4341TIP3    H234515   0.786   4.851  13.498  1.1750  1.6991 -0.0361
 4342TIP3   OH234516   6.349   4.807   4.839 -0.0525  0.2241  0.2118
 4342TIP3    H134517   6.430   4.782   4.883  0.6970  0.3605 -1.0241
 4342TIP3    H234518   6.351   4.758   4.756 -1.1242  0.4129  0.0576
 4343TIP3   OH234519   0.904   3.570   4.364 -0.8700 -0.4432 -0.1247
 4343TIP3    H134520   0.942   3.559   4.277  1.1352 -1.5416  0.8342
 4343TIP3    H234521   0.839   3.640   4.353 -0.3462 -0.2453 -2.3813
 4344TIP3   OH234522   4.349   1.346   3.579 -0.6888 -0.2534  0.1848
 4344TIP3    H134523   4.345   1.328   3.485 -1.6549  0.8844 -0.0115
 4344TIP3    H234524   4.314   1.435   3.589  1.4850  0.5629  1.3747
 4345TIP3   OH234525   4.542   4.765   4.741  0.3429 -0.3584 -0.2223
 4345TIP3    H134526   4.475   4.697   4.745  1.6078 -1.7202 -0.9964
 4345TIP3    H234527   4.615   4.729   4.792  1.0095  0.4468 -0.5955
 4346TIP3   OH234528   0.522   6.253   5.633  0.3781 -0.0693 -0.2600
 4346TIP3    H134529   0.440   6.205   5.644  0.3074 -0.1044 -0.8681
 4346TIP3    H234530   0.585   6.186   5.606 -0.3102  0.4680 -3.7076
 4347TIP3   OH234531   5.586   5.988  11.048  0.1841 -0.7708  0.0322
 4347TIP3    H134532   5.579   5.899  11.083  0.4453 -0.8680 -0.1634
 4347TIP3    H234533   5.645   6.033  11.109  0.1849 -0.7776  0.0368
 4348TIP3   OH234534   0.162   4.967  12.562 -0.1418  0.1026 -0.1970
 4348TIP3    H134535   0.160   4.995  12.654  1.9825 -0.5255  0.0902
 4348TIP3    H234536   0.252   4.984  12.534 -0.1913 -1.6600 -1.5363
 4349TIP3   OH234537   0.568   6.425  16.395 -0.0829  0.0464  0.5138
 4349TIP3    H134538   0.528   6.440  16.481  1.6294  0.9676  1.2065
 4349TIP3    H234539   0.518   6.481  16.335  0.2655  1.3452  1.3910
 4350TIP3   OH234540   2.022   3.225   4.387  0.2398 -1.0717  0.3754
 4350TIP3    H134541   2.113   3.222   4.359 -0.0465 -1.5695 -0.5433
 4350TIP3    H234542   1.973   3.238   4.305 -0.5043 -0.7488  0.8663
 4351TIP3   OH234543   5.314   5.520  17.250  0.4084 -0.0058 -0.0793
 4351TIP3    H134544   5.260   5.522  17.330 -0.1053 -1.4424 -0.3604
 4351TIP3    H234545   5.293   5.602  17.206  0.7261  0.8299  1.2678
 4352TIP3   OH234546   4.172   3.690   3.888  0.4695  0.1390  0.0520
 4352TIP3    H134547   4.098   3.634   3.912  1.0476 -0.5281  0.3149
 4352TIP3    H234548   4.179   3.754   3.959  0.9020 -0.5568  0.6458
 4353TIP3   OH234549   4.294   1.153   5.431 -0.5469 -0.1663  0.5466
 4353TIP3    H134550   4.384   1.123   5.417 -0.4430  0.7901 -1.0704
 4353TIP3    H234551   4.303   1.248   5.446 -1.3059 -0.0244  0.1203
 4354TIP3   OH234552   5.189   3.442  16.411 -0.3336  0.2677 -0.6763
 4354TIP3    H134553   5.217   3.531  16.430 -0.8886  0.1685  0.7245
 4354TIP3    H234554   5.267   3.388  16.425 -0.2689  0.4164 -0.4645
 4355TIP3   OH234555   5.823   0.821  15.829 -0.1642  0.3311 -0.1707
 4355TIP3    H134556   5.885   0.883  15.869  0.6610 -1.1501  0.9195
 4355TIP3    H234557   5.785   0.774  15.902  0.6906 -1.8048 -1.0253
 4356TIP3   OH234558   4.253   5.847   0.255 -0.8943  0.5607 -0.0856
 4356TIP3    H134559   4.206   5.773   0.293 -0.4680  0.6663  0.6664
 4356TIP3    H234560   4.215   5.858   0.168 -0.5501 -0.9098 -0.4376
 4357TIP3   OH234561   1.939   0.046   4.351  0.3897  0.1773 -0.9706
 4357TIP3    H134562   1.934   0.137   4.323  0.7230  1.0683  1.6579
 4357TIP3    H234563   2.013   0.044   4.411 -0.2346 -1.6254 -0.2142
 4358TIP3   OH234564   3.666   5.356   1.689 -0.1596 -0.2986 -0.1043
 4358TIP3    H134565   3.714   5.305   1.754  1.4253  1.5653  0.2768
 4358TIP3    H234566   3.732   5.382   1.625 -0.9757  0.8988 -0.5015
 4359TIP3   OH234567   6.625   6.349  12.509 -0.2364 -0.0730 -0.5069
 4359TIP3    H134568   6.577   6.334  12.590  1.2481 -1.4591  0.1782
 4359TIP3    H234569   6.638   6.444  12.506 -1.2445  0.1029  0.3134
 4360TIP3   OH234570   3.212   4.463   5.563  0.5149 -0.3401  0.3343
 4360TIP3    H134571   3.149   4.438   5.630  1.3311 -1.1338  0.8284
 4360TIP3    H234572   3.210   4.390   5.501  0.8232 -0.2764  0.2511
 4361TIP3   OH234573   1.336   1.670  16.545  0.0256 -0.0499 -0.9402
 4361TIP3    H134574   1.323   1.762  16.521 -0.5400  0.1380  0.0386
 4361TIP3    H234575   1.248   1.633  16.544  0.3928 -0.9876 -2.8113
 4362TIP3   OH234576   4.988   5.590  15.959  0.3245 -0.5378  0.4944
 4362TIP3    H134577   5.040   5.510  15.967 -0.6305 -1.2414 -0.1968
 4362TIP3    H234578   4.936   5.577  15.880  0.1744  0.7891  0.3444
 4363TIP3   OH234579   1.345   4.100  15.563 -0.5925 -0.2430  0.8598
 4363TIP3    H134580   1.312   4.163  15.626  1.1791  0.9492  0.6796
 4363TIP3    H234581   1.402   4.042  15.614  0.3952  0.3760  0.4973
 4364TIP3   OH234582   4.932   3.007   1.261 -0.1037 -0.0506 -0.5798
 4364TIP3    H134583   4.884   2.962   1.191  1.4239 -1.8558 -0.5392
 4364TIP3    H234584   4.967   3.086   1.220 -1.0524  0.0470 -1.2384
 4365TIP3   OH234585   5.628   5.940  16.514  0.0732 -0.5198  0.5088
 4365TIP3    H134586   5.660   6.015  16.564 -1.8740  0.1506  0.8069
 4365TIP3    H234587   5.540   5.963  16.488 -0.7118 -2.8066  0.8564
 4366TIP3   OH234588   4.553   1.543   1.560  0.3031 -0.2755 -0.2370
 4366TIP3    H134589   4.530   1.457   1.523 -1.5687 -0.1037  0.3727
 4366TIP3    H234590   4.582   1.523   1.649 -2.6267 -0.1764  0.8476
 4367TIP3   OH234591   5.985   4.730  11.824 -0.4640  0.2273  0.1581
 4367TIP3    H134592   5.938   4.738  11.907  0.8927 -1.8279  1.2088
 4367TIP3    H234593   5.962   4.643  11.792 -0.0282  0.5379 -1.0498
 4368TIP3   OH234594   6.794   0.642  10.411  0.5011 -0.1857  0.6214
 4368TIP3    H134595   6.732   0.712  10.390  1.4944  0.1037 -1.5533
 4368TIP3    H234596   6.815   0.656  10.503 -1.4837  0.6177  1.0111
 4369TIP3   OH234597   5.994   3.945   1.858 -0.0165 -0.2445 -0.2897
 4369TIP3    H134598   5.958   3.932   1.770  3.1674 -0.8926 -1.6461
 4369TIP3    H234599   6.031   4.033   1.857 -0.0023 -0.2310  0.4645
 4370TIP3   OH234600   2.121   1.196  14.573 -0.2477  0.2983 -0.3020
 4370TIP3    H134601   2.049   1.179  14.633 -0.9300 -0.5407 -1.3289
 4370TIP3    H234602   2.091   1.161  14.489  1.0700  0.5777 -0.9091
 4371TIP3   OH234603   5.004   0.102   5.931  0.0590  0.2747  0.1725
 4371TIP3    H134604   5.083   0.051   5.914 -0.7467 -1.5126  1.4130
 4371TIP3    H234605   4.967   0.120   5.845 -1.3380 -4.1896 -0.4652
 4372TIP3   OH234606   2.556   3.706   1.027  0.5416 -0.7420 -0.4096
 4372TIP3    H134607   2.645   3.725   1.057 -0.5453  0.2828  2.5654
 4372TIP3    H234608   2.521   3.792   1.003 -1.0191 -0.2280  3.0060
 4373TIP3   OH234609   4.444   3.086   2.950  0.0477 -0.2107  0.2834
 4373TIP3    H134610   4.528   3.039   2.944 -0.5621 -1.2495 -0.3484
 4373TIP3    H234611   4.448   3.150   2.878  0.1347 -0.5210  0.0096
 4374TIP3   OH234612   3.576   4.398   2.879  0.3387 -1.3529  0.3504
 4374TIP3    H134613   3.605   4.326   2.934  1.0048 -1.9958 -0.8022
 4374TIP3    H234614   3.534   4.356   2.803  0.9904 -0.5608 -0.4757
 4375TIP3   OH234615   4.496   0.285   2.175 -0.1179  0.0363  0.0429
 4375TIP3    H134616   4.553   0.350   2.216 -1.8910  1.2043  0.7343
 4375TIP3    H234617   4.490   0.313   2.083  1.1027 -0.6193 -0.2621
 4376TIP3   OH234618   0.638   1.637   4.787  0.3829  0.6434  0.4433
 4376TIP3    H134619   0.670   1.661   4.700  0.3794  0.3985  0.3726
 4376TIP3    H234620   0.639   1.718   4.837 -1.3057  1.1702 -0.2960
 4377TIP3   OH234621   5.799   1.147  15.970  0.3000 -0.4294  0.3547
 4377TIP3    H134622   5.847   1.228  15.953  0.8248 -0.7945  0.0571
 4377TIP3    H234623   5.867   1.084  15.994  0.0083 -1.0571 -0.4400
 4378TIP3   OH234624   5.989   1.915   3.967  0.5837 -0.1821  0.0978
 4378TIP3    H134625   6.018   1.960   4.047 -0.7782  0.2711  0.3616
 4378TIP3    H234626   5.950   1.833   3.998 -2.2210  1.0818  0.2068
 4379TIP3   OH234627   0.713   4.235   3.053 -0.0277  0.3470 -0.3910
 4379TIP3    H134628   0.705   4.146   3.085  0.3327 -0.2762 -1.9388
 4379TIP3    H234629   0.805   4.243   3.025 -0.4584  0.5959 -1.8530
 4380TIP3   OH234630   3.226   1.322   6.146 -0.1962 -0.7051 -0.2510
 4380TIP3    H134631   3.194   1.326   6.056 -0.9390 -1.2329 -0.0225
 4380TIP3    H234632   3.197   1.236   6.178  0.8279 -0.8896  0.2068
 4381TIP3   OH234633   0.446   6.461   4.278 -0.9142 -0.3721 -0.1081
 4381TIP3    H134634   0.384   6.455   4.205 -0.0482 -0.3672 -0.8666
 4381TIP3    H234635   0.528   6.490   4.238 -0.1263 -1.4001  0.6899
 4382TIP3   OH234636   2.149   5.277   3.936 -0.0462 -0.6494 -0.0985
 4382TIP3    H134637   2.188   5.302   3.852  1.8259 -0.8365  0.6485
 4382TIP3    H234638   2.176   5.347   3.996 -1.0852 -0.6826  0.4260
 4383TIP3   OH234639   6.059   5.243   2.146 -0.2525  0.2932 -0.8514
 4383TIP3    H134640   6.002   5.270   2.218  0.3241  0.7427 -0.5586
 4383TIP3    H234641   6.102   5.164   2.178  1.4454  1.5249  0.0923
 4384TIP3   OH234642   4.972   2.013   0.827 -0.5423 -0.0241 -0.3622
 4384TIP3    H134643   4.958   1.950   0.757 -1.8382 -1.2102  0.8746
 4384TIP3    H234644   4.912   2.085   0.807  1.8858  1.5637 -2.4928
 4385TIP3   OH234645   0.751   3.282   5.207  0.1650  0.6606 -0.1480
 4385TIP3    H134646   0.773   3.190   5.191 -1.0911  0.4229 -0.5523
 4385TIP3    H234647   0.753   3.291   5.302 -0.0382  0.1313 -0.0912
 4386TIP3   OH234648   6.454   4.650   4.161  0.3157 -0.2965 -0.0791
 4386TIP3    H134649   6.545   4.644   4.132  0.2682 -2.3729  0.0527
 4386TIP3    H234650   6.449   4.733   4.208  1.8065  0.4548 -1.1529
 4387TIP3   OH234651   3.935   6.756   2.186  0.0077 -0.2649  0.0791
 4387TIP3    H134652   3.970   6.668   2.169 -2.3211 -1.2551  0.0712
 4387TIP3    H234653   3.948   6.803   2.104  1.8366 -0.3494  0.2725
 4388TIP3   OH234654   1.994   3.288  17.257  0.1705 -0.1656  0.1497
 4388TIP3    H134655   2.085   3.300  17.282  0.3336  0.8148 -0.8333
 4388TIP3    H234656   1.952   3.372  17.276 -0.2251 -0.1861 -0.5800
 4389TIP3   OH234657   4.045   4.839   2.648  0.5895  0.2402 -0.5047
 4389TIP3    H134658   4.082   4.854   2.561 -1.2990 -0.3447 -1.4746
 4389TIP3    H234659   4.032   4.927   2.684  0.9334  0.5086 -1.0276
 4390TIP3   OH234660   2.125   4.392  11.630  0.7751  0.1366 -0.3703
 4390TIP3    H134661   2.147   4.450  11.703 -1.3810  0.7784 -0.1601
 4390TIP3    H234662   2.029   4.398  11.622  0.7500 -1.4408 -1.9904
 4391TIP3   OH234663   5.984   6.451  11.436  0.2298 -0.0510  0.2103
 4391TIP3    H134664   5.970   6.401  11.356 -1.5693  0.4895  0.1370
 4391TIP3    H234665   6.070   6.490  11.425  1.4256 -2.5448 -0.0092
 4392TIP3   OH234666   2.742   4.109  13.107  0.0396  0.6789 -0.2662
 4392TIP3    H134667   2.710   4.032  13.060  0.1587  1.0344 -0.9529
 4392TIP3    H234668   2.738   4.085  13.199 -0.0598 -0.0964 -0.4662
 4393TIP3   OH234669   1.214   2.236   0.319 -0.2263 -0.0841  0.5901
 4393TIP3    H134670   1.271   2.224   0.395  0.2844 -0.6235  0.1283
 4393TIP3    H234671   1.238   2.166   0.258 -0.0216  0.8461 -0.4400
 4394TIP3   OH234672   3.102   3.101   4.801 -0.0299 -0.2244 -0.7414
 4394TIP3    H134673   3.122   3.190   4.830 -1.8454  0.1097 -0.3534
 4394TIP3    H234674   3.161   3.085   4.728  0.8622  1.0037 -0.3074
 4395TIP3   OH234675   4.179   6.793  14.612 -0.0901  0.2067  0.1980
 4395TIP3    H134676   4.254   6.818  14.558 -1.6796  0.7087 -1.8902
 4395TIP3    H234677   4.148   6.875  14.650  0.0657  0.0892  0.5772
 4396TIP3   OH234678   1.549   1.670  16.952 -0.1528 -0.7129  0.2423
 4396TIP3    H134679   1.572   1.756  16.918 -0.8792 -0.3783  0.5705
 4396TIP3    H234680   1.536   1.615  16.875 -0.1278 -0.4053  0.0199
 4397TIP3   OH234681   4.406   3.735   1.506 -0.4743  0.8006 -0.4011
 4397TIP3    H134682   4.317   3.761   1.527  0.0898  2.7623 -0.2246
 4397TIP3    H234683   4.457   3.761   1.583  0.2410 -0.4062 -0.4452
 4398TIP3   OH234684   2.409   2.959   4.580  0.2825 -0.4729 -0.5356
 4398TIP3    H134685   2.494   2.972   4.538 -0.1329  0.0372 -1.2289
 4398TIP3    H234686   2.416   2.872   4.621  1.9843  0.5374  1.5103
 4399TIP3   OH234687   5.813   1.783   1.091  0.0890  0.2786 -0.9029
 4399TIP3    H134688   5.879   1.847   1.118  1.0178 -0.8541 -0.4417
 4399TIP3    H234689   5.843   1.751   1.006  0.0545 -0.1358 -0.7611
 4400TIP3   OH234690   5.911   3.658   5.002 -0.0443 -0.3603  0.2893
 4400TIP3    H134691   5.958   3.679   5.083  1.7693 -2.5469 -0.0987
 4400TIP3    H234692   5.866   3.576   5.021  0.3377 -0.8582 -0.8788
 4401TIP3   OH234693   1.322   6.479   3.407 -0.2450 -0.2605 -0.4044
 4401TIP3    H134694   1.282   6.393   3.399 -0.8850 -0.2463  1.9219
 4401TIP3    H234695   1.276   6.533   3.343  0.1265 -1.5826 -1.8583
 4402TIP3   OH234696   2.412   1.122  15.827  0.3449  0.8015 -0.2079
 4402TIP3    H134697   2.352   1.157  15.761  0.0691  2.3441  0.8112
 4402TIP3    H234698   2.418   1.191  15.892  4.3544  1.3627 -0.9354
 4403TIP3   OH234699   5.429   4.104   3.552  0.1167 -0.3163 -0.4398
 4403TIP3    H134700   5.465   4.135   3.469  0.9657 -1.3538 -0.4785
 4403TIP3    H234701   5.505   4.071   3.601 -0.2493  0.8999  1.0583
 4404TIP3   OH234702   4.466   1.277   2.230  0.8984  0.4497 -0.0979
 4404TIP3    H134703   4.504   1.365   2.232  0.9867  0.4199  2.7288
 4404TIP3    H234704   4.408   1.274   2.306 -1.0329 -1.1629 -1.5173
 4405TIP3   OH234705   0.339   2.214  15.201  0.4455  0.4047  0.3624
 4405TIP3    H134706   0.254   2.170  15.199  1.2711 -1.3843  1.6846
 4405TIP3    H234707   0.389   2.174  15.130  0.4584  0.9143  0.0744
 4406TIP3   OH234708   5.552   1.469  12.666  0.2889 -0.2475 -0.2821
 4406TIP3    H134709   5.471   1.436  12.707  0.0288 -0.1094 -0.6748
 4406TIP3    H234710   5.622   1.441  12.725 -0.0242 -0.5962 -0.0698
 4407TIP3   OH234711   5.362   6.108   4.699  0.2678 -0.4413  0.3762
 4407TIP3    H134712   5.369   6.154   4.783 -0.8960 -0.1325  0.3125
 4407TIP3    H234713   5.450   6.072   4.685  1.0251  1.1144  0.7947
 4408TIP3   OH234714   3.315   5.529  13.273  0.1918 -0.6502  0.3543
 4408TIP3    H134715   3.256   5.576  13.214 -0.3570 -1.1090  0.5327
 4408TIP3    H234716   3.399   5.573  13.262 -0.6850  1.6306  1.9015
 4409TIP3   OH234717   1.457   2.066   4.349  0.5647 -0.2880 -0.6068
 4409TIP3    H134718   1.401   2.071   4.271 -0.4176  0.6376  0.1195
 4409TIP3    H234719   1.430   1.984   4.392  0.5904 -0.4330 -0.8649
 4410TIP3   OH234720   5.670   5.191   4.152  0.2755 -0.3274 -0.6422
 4410TIP3    H134721   5.607   5.128   4.116 -0.2302  0.1201 -0.5482
 4410TIP3    H234722   5.755   5.163   4.116 -0.1363 -0.2285 -1.7220
 4411TIP3   OH234723   1.093   1.199   3.795  0.1935  0.1087 -0.1703
 4411TIP3    H134724   1.138   1.199   3.711 -1.5846 -0.9877 -1.1715
 4411TIP3    H234725   1.145   1.141   3.850  0.7138 -0.1241 -0.8961
 4412TIP3   OH234726   5.901   3.414  12.352  0.3839 -0.6715 -0.0627
 4412TIP3    H134727   5.872   3.448  12.268 -1.1850  0.7100  0.9642
 4412TIP3    H234728   5.996   3.413  12.346  0.3008 -0.8214 -1.9141
 4413TIP3   OH234729   2.373   4.519   0.671  0.0369 -0.1341 -0.1485
 4413TIP3    H134730   2.360   4.582   0.741  0.2763 -2.0291  1.6922
 4413TIP3    H234731   2.459   4.480   0.688  0.7937  0.3523 -2.3881
 4414TIP3   OH234732   5.762   5.394   5.204  0.0572 -0.3523 -0.2327
 4414TIP3    H134733   5.825   5.357   5.265 -1.6212 -0.3007  1.6359
 4414TIP3    H234734   5.709   5.453   5.257 -0.1605  1.3507 -2.2111
 4415TIP3   OH234735   6.051   4.591   4.829 -0.5286  0.3230 -0.6498
 4415TIP3    H134736   5.965   4.597   4.788 -0.6012 -0.8541 -0.7023
 4415TIP3    H234737   6.094   4.519   4.783  0.2750  0.5285 -0.2354
 4416TIP3   OH234738   1.689   0.670   5.353 -0.6285  0.0541  0.4954
 4416TIP3    H134739   1.633   0.627   5.419  1.3334 -1.1723  1.4670
 4416TIP3    H234740   1.732   0.741   5.401 -0.1473 -0.0345  0.2013
 4417TIP3   OH234741   2.178   2.281  16.303  0.1516  0.3037  0.0726
 4417TIP3    H134742   2.211   2.200  16.263  0.6253  0.2094  0.6486
 4417TIP3    H234743   2.129   2.323  16.233  0.5634 -0.1003 -0.4711
 4418TIP3   OH234744   0.741   3.611  11.397  0.3400 -0.1456  0.2039
 4418TIP3    H134745   0.774   3.559  11.324 -0.2869 -0.8395  0.4056
 4418TIP3    H234746   0.746   3.702  11.367  0.7122 -0.3804 -0.4426
 4419TIP3   OH234747   0.545   1.884  14.295 -0.3093  0.3772 -0.2165
 4419TIP3    H134748   0.576   1.925  14.376  0.5818 -0.0954 -0.3107
 4419TIP3    H234749   0.569   1.946  14.226 -0.8217  0.6502 -0.1577
 4420TIP3   OH234750   3.411   4.664   1.274 -0.7091 -0.2300  0.3042
 4420TIP3    H134751   3.460   4.661   1.357 -0.8535  1.3509  0.4817
 4420TIP3    H234752   3.365   4.580   1.270 -0.0614 -0.6647  1.4238
 4421TIP3   OH234753   0.053   0.816  14.778 -0.0581  0.1831  0.2498
 4421TIP3    H134754   0.146   0.808  14.755  0.5221  0.1779  2.4050
 4421TIP3    H234755   0.011   0.744  14.731  1.1780 -0.3346 -0.1066
 4422TIP3   OH234756   2.959   4.536   0.251 -0.0759 -0.0015 -0.3889
 4422TIP3    H134757   3.010   4.469   0.205 -0.5413 -0.4087 -0.3242
 4422TIP3    H234758   2.891   4.561   0.188  0.1194  0.4370 -0.4251
 4423TIP3   OH234759   4.027   6.223  10.676 -0.1772 -0.3805  0.3780
 4423TIP3    H134760   4.093   6.158  10.653 -1.3074 -1.4465  0.0226
 4423TIP3    H234761   3.987   6.248  10.592 -0.5971 -0.1531  0.6405
 4424TIP3   OH234762   3.821   0.619  11.052  0.3676  0.5039  0.0264
 4424TIP3    H134763   3.873   0.563  10.995  0.0915 -0.4419  0.6851
 4424TIP3    H234764   3.816   0.703  11.005 -0.2854 -0.3885 -1.5703
 4425TIP3   OH234765   0.798   4.861   1.811  0.2411  0.2873 -0.2056
 4425TIP3    H134766   0.825   4.947   1.780  0.4619  0.5262  0.6255
 4425TIP3    H234767   0.876   4.826   1.855 -0.8055  1.1057  2.5065
 4426TIP3   OH234768   5.743   3.886  12.816 -0.1955  0.3385  0.0161
 4426TIP3    H134769   5.656   3.865  12.851 -0.3122 -0.1603 -0.5478
 4426TIP3    H234770   5.774   3.958  12.871 -0.7620  0.2005  0.5356
 4427TIP3   OH234771   0.705   4.453  13.955 -0.3176  0.0755 -0.3959
 4427TIP3    H134772   0.730   4.381  13.897 -0.3544 -0.5627  0.3662
 4427TIP3    H234773   0.696   4.413  14.041 -0.1059  1.0395  0.0920
 4428TIP3   OH234774   0.306   0.526   2.955 -0.2449  1.0553  0.4015
 4428TIP3    H134775   0.236   0.585   2.927  0.3715  1.3923 -0.4565
 4428TIP3    H234776   0.364   0.519   2.879  1.5333  2.0765  1.5872
 4429TIP3   OH234777   2.924   0.548  16.177  0.0091  0.2018  0.4221
 4429TIP3    H134778   2.851   0.520  16.123  0.2888 -1.1413  0.6986
 4429TIP3    H234779   2.930   0.643  16.163 -0.5992  0.0505 -1.0448
 4430TIP3   OH234780   1.390   1.672   3.821  0.6490  0.5930 -0.0690
 4430TIP3    H134781   1.357   1.750   3.776 -0.8125  1.4922  2.3810
 4430TIP3    H234782   1.329   1.603   3.797  0.7300  0.7053 -0.6081
 4431TIP3   OH234783   1.093   4.084  13.121 -0.3256  0.3843 -0.0530
 4431TIP3    H134784   1.061   4.122  13.202  1.1304 -0.1151  0.7904
 4431TIP3    H234785   1.104   3.991  13.140 -1.4178 -0.0244 -1.3065
 4432TIP3   OH234786   2.326   1.154   2.291  0.0188 -0.4069  0.0733
 4432TIP3    H134787   2.256   1.125   2.351 -0.5033 -0.6733 -0.6488
 4432TIP3    H234788   2.294   1.238   2.257 -0.9416 -1.4479 -1.7875
 4433TIP3   OH234789   5.656   0.255  13.995 -0.1454  0.4743 -0.6250
 4433TIP3    H134790   5.638   0.328  14.054  0.2125  0.8059 -0.9266
 4433TIP3    H234791   5.740   0.276  13.955 -0.4501  0.3171 -1.3545
 4434TIP3   OH234792   0.039   3.777   5.384  0.0205 -0.0906  0.4104
 4434TIP3    H134793   0.028   3.855   5.330  1.8061  0.6271  1.0110
 4434TIP3    H234794   0.108   3.727   5.340  0.1238 -0.4596  0.9845
 4435TIP3   OH234795   3.035   4.293   3.596 -0.1320  0.5342 -0.1145
 4435TIP3    H134796   2.996   4.277   3.510 -0.4865 -1.3152  0.3296
 4435TIP3    H234797   2.961   4.284   3.657  0.1448  1.6750  0.4071
 4436TIP3   OH234798   2.044   5.394  16.488  0.2160  0.6000  0.2642
 4436TIP3    H134799   2.036   5.489  16.487 -1.2865  0.5068  0.9500
 4436TIP3    H234800   1.979   5.364  16.425  0.3817  0.0056  0.3704
 4437TIP3   OH234801   2.596   1.824   5.932 -0.0319  0.0448 -1.0973
 4437TIP3    H134802   2.678   1.821   5.981 -0.5732  2.4882  0.1278
 4437TIP3    H234803   2.532   1.783   5.989 -0.0583 -0.0122 -1.1672
 4438TIP3   OH234804   1.864   3.276   3.203  0.4058 -0.2586  0.1789
 4438TIP3    H134805   1.915   3.301   3.280  0.8144  0.0237 -0.1777
 4438TIP3    H234806   1.927   3.232   3.146  0.3244  0.3732 -0.4070
 4439TIP3   OH234807   1.982   4.941   1.449 -0.2838 -0.0897  0.3160
 4439TIP3    H134808   1.948   4.863   1.491 -0.1383 -0.5888 -0.4709
 4439TIP3    H234809   2.006   4.999   1.521  0.8083 -1.2821  0.9319
 4440TIP3   OH234810   0.073   3.985   2.478  0.3261 -0.6257 -1.0299
 4440TIP3    H134811  -0.020   3.971   2.497  0.3219 -0.1232 -0.6545
 4440TIP3    H234812   0.096   4.063   2.529  0.8837 -0.5835 -1.3413
 4441TIP3   OH234813   5.773   0.618   6.116  1.1910 -0.0108  0.9397
 4441TIP3    H134814   5.865   0.609   6.094  1.4955  0.9020  1.7421
 4441TIP3    H234815   5.732   0.538   6.084  1.8519  0.5286 -1.4395
 4442TIP3   OH234816   5.752   6.114  13.289 -0.3323  0.4616  1.0093
 4442TIP3    H134817   5.796   6.095  13.206 -2.5481 -1.5508  0.2099
 4442TIP3    H234818   5.823   6.114  13.354  0.8724 -4.3381  0.0692
 4443TIP3   OH234819   6.266   5.051   1.157 -0.2601 -0.3644  0.2711
 4443TIP3    H134820   6.236   5.058   1.066 -1.0251 -1.6510  0.3976
 4443TIP3    H234821   6.360   5.033   1.150 -0.6104 -2.2193 -0.3707
 4444TIP3   OH234822   3.902   6.619  13.191 -0.1664 -0.0100  0.4286
 4444TIP3    H134823   3.842   6.610  13.117  0.0318  0.8247  0.1432
 4444TIP3    H234824   3.989   6.617  13.151 -0.0328 -0.3559  0.7365
 4445TIP3   OH234825   2.629   3.026  13.757  0.3771 -0.2320  0.2420
 4445TIP3    H134826   2.678   2.949  13.787  2.3182 -0.3958 -2.9547
 4445TIP3    H234827   2.545   2.991  13.727  1.4310 -1.2575 -1.6471
 4446TIP3   OH234828   3.032   4.693   2.618 -0.3643  0.0338 -0.1638
 4446TIP3    H134829   3.048   4.619   2.676 -0.8729 -0.2034 -0.3160
 4446TIP3    H234830   2.939   4.712   2.628  0.1451  1.9354  1.3499
 4447TIP3   OH234831   2.772   3.765  10.436 -0.3540  0.5093  0.5888
 4447TIP3    H134832   2.735   3.814  10.364  1.1947  0.5076 -0.2451
 4447TIP3    H234833   2.846   3.817  10.466  0.9462 -0.9560  0.0904
 4448TIP3   OH234834   5.343   0.263   4.784  0.0753  0.3394  0.4191
 4448TIP3    H134835   5.373   0.310   4.706 -0.6950  1.1561  0.6049
 4448TIP3    H234836   5.361   0.171   4.765  0.0612  0.5500 -0.6515
 4449TIP3   OH234837   5.239   5.117   0.084  0.0738  0.9986  0.2597
 4449TIP3    H134838   5.279   5.030   0.089  0.3538  1.2142  2.3330
 4449TIP3    H234839   5.313   5.176   0.069  0.4099  1.2143  2.4226
 4450TIP3   OH234840   5.936   3.788  11.614 -0.1192 -0.1110 -0.0698
 4450TIP3    H134841   5.972   3.806  11.701 -0.8291 -0.1945  0.2444
 4450TIP3    H234842   5.843   3.809  11.622 -0.0232  0.7582 -1.0582
 4451TIP3   OH234843   4.922   1.556   3.795 -0.2606  0.1924 -0.2852
 4451TIP3    H134844   4.862   1.598   3.857 -0.4387  1.7901 -1.4725
 4451TIP3    H234845   5.009   1.579   3.827 -0.3155 -0.2733  0.2101
 4452TIP3   OH234846   2.207   4.183  11.033  0.0842  0.1661  0.1901
 4452TIP3    H134847   2.113   4.170  11.049 -0.1366  2.2934  0.8833
 4452TIP3    H234848   2.228   4.265  11.077  2.6972 -1.1228  1.5892
 4453TIP3   OH234849   4.251   4.550  11.887  0.3083  0.6489 -0.0858
 4453TIP3    H134850   4.226   4.632  11.930 -2.3045 -0.8351  1.5059
 4453TIP3    H234851   4.182   4.535  11.822 -0.7911 -1.5141  1.4653
 4454TIP3   OH234852   2.208   1.656  14.582  0.4711 -0.2373 -0.5008
 4454TIP3    H134853   2.181   1.665  14.490  1.2679  0.9472 -0.6426
 4454TIP3    H234854   2.295   1.696  14.585  0.0836  0.5352  0.9602
 4455TIP3   OH234855   5.670   0.241  11.023  0.8571 -0.0782  0.5219
 4455TIP3    H134856   5.681   0.320  10.970  0.5740  0.6678  1.5382
 4455TIP3    H234857   5.579   0.216  11.010  0.5161  0.6686  1.3957
 4456TIP3   OH234858   2.700   5.167   0.643 -0.3629  0.5337 -0.0675
 4456TIP3    H134859   2.644   5.095   0.671 -2.2672  1.7503 -0.5947
 4456TIP3    H234860   2.720   5.214   0.723 -1.1634  0.8232 -0.0354
 4457TIP3   OH234861   1.113   6.123  12.333  0.0336 -0.0289 -0.0477
 4457TIP3    H134862   1.023   6.120  12.302 -0.2773 -1.6427  0.8468
 4457TIP3    H234863   1.166   6.126  12.254 -0.8003  0.6902 -0.5910
 4458TIP3   OH234864   6.637   0.105   3.310  0.3188  0.1657  0.2057
 4458TIP3    H134865   6.597   0.044   3.372  1.1073  0.0159  0.5849
 4458TIP3    H234866   6.625   0.191   3.349 -0.8813  0.2891 -0.3758
 4459TIP3   OH234867   6.256   4.364   5.464  0.6113  0.5684  0.3763
 4459TIP3    H134868   6.269   4.327   5.551  2.1148  0.3284  0.0869
 4459TIP3    H234869   6.174   4.326   5.433  1.6007 -1.8093  0.4809
 4460TIP3   OH234870   3.620   6.246  13.627 -0.0544 -0.0810  0.0348
 4460TIP3    H134871   3.608   6.336  13.596 -0.8920 -0.3388 -0.4204
 4460TIP3    H234872   3.629   6.255  13.722 -0.1095  0.4892 -0.0091
 4461TIP3   OH234873   2.336   0.654  15.870 -0.1422  0.6065 -0.6976
 4461TIP3    H134874   2.292   0.603  15.802  0.0208 -1.8990  0.9462
 4461TIP3    H234875   2.424   0.667  15.836  0.5168 -2.1983 -0.3710
 4462TIP3   OH234876   0.826   3.715  16.283 -0.2081  0.3968 -0.7272
 4462TIP3    H134877   0.736   3.715  16.252 -0.0446  2.9250 -1.4297
 4462TIP3    H234878   0.879   3.736  16.206  1.0141 -1.1677 -0.3579
 4463TIP3   OH234879   2.059   0.633  12.608 -0.0821  0.3299 -0.1466
 4463TIP3    H134880   2.136   0.630  12.552 -0.5334  0.4801 -0.7877
 4463TIP3    H234881   1.988   0.663  12.550 -0.8914 -0.9728  0.1154
 4464TIP3   OH234882   0.289   2.050  15.466  0.1945  0.5111 -0.4056
 4464TIP3    H134883   0.357   2.114  15.488 -0.3672  0.3961  1.9324
 4464TIP3    H234884   0.325   2.002  15.392  2.6764  0.4772  0.7138
 4465TIP3   OH234885   3.574   2.705  14.334 -0.4682 -0.1392  0.3847
 4465TIP3    H134886   3.567   2.676  14.243 -0.0604  0.1004  0.2727
 4465TIP3    H234887   3.623   2.635  14.378  0.6673  0.4419  0.0779
 4466TIP3   OH234888   3.309   4.361  15.105 -0.3312 -0.2056  0.2725
 4466TIP3    H134889   3.253   4.284  15.106 -0.0483 -0.4203 -0.1284
 4466TIP3    H234890   3.370   4.346  15.033 -1.3035  1.1393 -0.8757
 4467TIP3   OH234891   3.520   2.220  12.133  0.0276 -0.3251 -0.2984
 4467TIP3    H134892   3.503   2.153  12.199 -1.7110 -0.1136 -0.4760
 4467TIP3    H234893   3.588   2.183  12.077 -0.9236 -1.9929 -0.4200
 4468TIP3   OH234894   1.587   1.226  11.599 -0.1373 -0.4363 -0.1722
 4468TIP3    H134895   1.643   1.268  11.665 -0.9228 -0.8317  0.7760
 4468TIP3    H234896   1.500   1.226  11.639 -0.2093 -2.7546 -0.2083
 4469TIP3   OH234897   1.832   3.562  16.322 -0.4715  0.0258 -0.0636
 4469TIP3    H134898   1.844   3.637  16.264 -0.4214 -0.3000 -0.4851
 4469TIP3    H234899   1.789   3.597  16.399 -0.5508  0.4663 -0.3066
 4470TIP3   OH234900   5.660   5.589  12.138  0.1463 -0.1269 -0.3939
 4470TIP3    H134901   5.708   5.521  12.185 -1.2951 -0.6484  0.4205
 4470TIP3    H234902   5.580   5.601  12.190 -0.1883  1.3385 -1.1865
 4471TIP3   OH234903   2.978   2.644  17.016 -0.2428 -0.2287 -0.1982
 4471TIP3    H134904   2.937   2.587  17.081 -1.2798  3.5491  2.8420
 4471TIP3    H234905   3.072   2.634  17.032 -0.4544 -0.1129  1.3155
 4472TIP3   OH234906   4.128   4.390   1.665 -0.0011  0.1749  0.0036
 4472TIP3    H134907   4.142   4.397   1.759  0.5922 -2.2991  0.1844
 4472TIP3    H234908   4.046   4.342   1.656  0.4664 -0.5211 -0.7025
 4473TIP3   OH234909   0.499   1.607   1.346 -0.7284 -0.1428  0.3048
 4473TIP3    H134910   0.544   1.554   1.280 -0.2808  0.2393  0.3005
 4473TIP3    H234911   0.534   1.695   1.334 -0.5670 -0.0926  1.1269
 4474TIP3   OH234912   1.484   1.852  11.117 -0.0952 -0.0638  0.4372
 4474TIP3    H134913   1.530   1.770  11.098 -0.5296  0.0682 -1.3458
 4474TIP3    H234914   1.526   1.885  11.196  1.2624 -1.1347  0.2090
 4475TIP3   OH234915   2.911   0.703  15.204 -0.1054  0.3124 -0.3685
 4475TIP3    H134916   2.845   0.740  15.145  0.3113 -0.2390 -1.1875
 4475TIP3    H234917   2.995   0.736  15.170  0.1297  0.0876 -0.0079
 4476TIP3   OH234918   6.244   6.400  12.592 -0.6861  0.7957  0.0722
 4476TIP3    H134919   6.240   6.389  12.687 -3.3555  2.0973  0.1920
 4476TIP3    H234920   6.294   6.480  12.579 -0.2484  0.5725  0.3524
 4477TIP3   OH234921   6.820   1.643   4.989 -0.4021  0.1976 -0.2984
 4477TIP3    H134922   6.864   1.722   4.958 -0.0274 -0.0394 -0.3744
 4477TIP3    H234923   6.757   1.674   5.054 -0.8451  0.6461 -0.9289
 4478TIP3   OH234924   1.269   0.717   6.431  1.0419  0.3139 -0.2017
 4478TIP3    H134925   1.258   0.629   6.396 -0.8388 -0.1338  1.3394
 4478TIP3    H234926   1.201   0.725   6.497  1.2909  2.8758 -0.1582
 4479TIP3   OH234927   5.608   5.272  13.159 -0.4757  0.6184 -0.1390
 4479TIP3    H134928   5.668   5.338  13.126  0.7329  0.4608  1.6241
 4479TIP3    H234929   5.598   5.210  13.087 -0.5176  1.9529 -1.3201
 4480TIP3   OH234930   5.895   1.140   2.394 -0.3290 -0.6656 -0.0904
 4480TIP3    H134931   5.824   1.083   2.363 -0.0236 -0.7664 -0.5972
 4480TIP3    H234932   5.955   1.148   2.320 -0.0739 -0.1486  0.1648
 4481TIP3   OH234933   5.441   0.336   0.227  0.2975 -0.0384 -0.1223
 4481TIP3    H134934   5.358   0.302   0.194 -0.0226  0.7419 -0.1236
 4481TIP3    H234935   5.419   0.417   0.272  0.6631 -1.2570  2.4175
 4482TIP3   OH234936   1.212   6.008   2.607 -0.0474 -0.1926  0.1469
 4482TIP3    H134937   1.215   5.920   2.569 -1.1485 -0.5263  0.8031
 4482TIP3    H234938   1.215   6.067   2.531  0.7301 -0.7850 -0.2928
 4483TIP3   OH234939   4.102   2.147  15.422 -0.1398  0.0423  0.0998
 4483TIP3    H134940   4.117   2.230  15.376 -1.3854 -0.2598 -0.9174
 4483TIP3    H234941   4.173   2.090  15.392  0.0900  0.4018 -0.0537
 4484TIP3   OH234942   2.157   6.579   1.629  0.0517  0.3579 -0.2224
 4484TIP3    H134943   2.248   6.558   1.606 -0.1620  1.7003 -2.6194
 4484TIP3    H234944   2.162   6.606   1.721  1.7752 -1.1906  0.2000
 4485TIP3   OH234945   2.942   5.987  16.718  0.4276 -0.2539 -0.4034
 4485TIP3    H134946   2.862   5.940  16.692 -0.0128  0.7189 -0.8807
 4485TIP3    H234947   3.013   5.933  16.686 -0.0543 -0.8937 -0.4144
 4486TIP3   OH234948   2.696   4.054   2.900 -0.7963 -0.3886 -0.3794
 4486TIP3    H134949   2.701   4.015   2.987 -2.4904  0.3205  0.0696
 4486TIP3    H234950   2.646   3.991   2.848 -2.3136  0.4931 -0.0307
 4487TIP3   OH234951   5.289   3.738  11.777  0.2210 -0.4575 -0.3890
 4487TIP3    H134952   5.229   3.782  11.838 -0.1639  1.0932 -1.8153
 4487TIP3    H234953   5.367   3.720  11.829 -0.7866 -0.8927  1.0373
 4488TIP3   OH234954   1.994   1.797   3.934 -0.6232  0.2397 -0.1375
 4488TIP3    H134955   1.948   1.742   3.998  0.7190 -2.0627 -1.0610
 4488TIP3    H234956   1.934   1.802   3.860  0.6823 -3.4394 -1.6774
 4489TIP3   OH234957   5.995   2.985   5.697  0.2839  0.3955 -0.1674
 4489TIP3    H134958   6.050   3.023   5.765 -0.1336 -1.2121  1.1446
 4489TIP3    H234959   5.919   3.042   5.692  0.3918  0.6139  0.6214
 4490TIP3   OH234960   4.397   0.502   2.805  0.0052  0.1621 -0.0386
 4490TIP3    H134961   4.318   0.461   2.769  0.7477  0.1567 -1.8100
 4490TIP3    H234962   4.456   0.509   2.729  1.1251  1.5424  0.9089
 4491TIP3   OH234963   2.946   1.896  12.649  0.7053 -0.0252  0.3842
 4491TIP3    H134964   2.951   1.831  12.579  1.0098  3.1012 -2.8059
 4491TIP3    H234965   3.037   1.915  12.671  0.6958  0.5765 -0.0552
 4492TIP3   OH234966   5.912   6.638  15.598 -0.1035  0.0466  0.2037
 4492TIP3    H134967   5.983   6.651  15.661 -1.0134 -2.2566  1.8118
 4492TIP3    H234968   5.952   6.656  15.513  2.2446 -0.5667  1.1015
 4493TIP3   OH234969   2.531   2.540  14.507 -0.3885  0.0735 -0.5708
 4493TIP3    H134970   2.557   2.632  14.518 -1.1513  0.2142  0.1827
 4493TIP3    H234971   2.566   2.496  14.585 -0.8255 -0.0908 -0.4687
 4494TIP3   OH234972   4.692   4.777  14.362  0.4138 -0.5785 -0.0658
 4494TIP3    H134973   4.772   4.725  14.348  0.4724 -0.5866  0.2694
 4494TIP3    H234974   4.700   4.808  14.453  1.0057  1.0876 -0.6455
 4495TIP3   OH234975   6.476   5.758  12.573  0.3895  0.5878  0.1989
 4495TIP3    H134976   6.415   5.762  12.499  0.1937  1.9946  0.4071
 4495TIP3    H234977   6.554   5.716  12.537  0.6995  2.1975 -1.1596
 4496TIP3   OH234978   4.705   0.828  14.299 -0.6553 -0.2389 -1.0441
 4496TIP3    H134979   4.627   0.847  14.351 -0.3019  1.2334 -1.0079
 4496TIP3    H234980   4.680   0.850  14.210 -0.5017 -0.4823 -1.1483
 4497TIP3   OH234981   1.300   0.108  15.921  0.0177 -0.3608 -1.2356
 4497TIP3    H134982   1.379   0.102  15.975 -0.2438 -0.4661 -0.8618
 4497TIP3    H234983   1.290   0.202  15.903 -2.6006  0.4610  3.0141
 4498TIP3   OH234984   0.886   5.443   3.822  0.1263  0.3069  0.0186
 4498TIP3    H134985   0.899   5.366   3.767  0.8587 -0.7969  1.6476
 4498TIP3    H234986   0.902   5.411   3.911  2.2279  2.7302  0.5993
 4499TIP3   OH234987   0.945   4.629  17.249  0.2737  0.5274 -0.0443
 4499TIP3    H134988   0.896   4.559  17.207  1.3087 -0.6591  0.6608
 4499TIP3    H234989   0.877   4.687  17.286 -0.5957 -0.3335 -0.2589
 4500TIP3   OH234990   2.169   3.865  16.632 -0.2796 -0.6793 -0.3095
 4500TIP3    H134991   2.257   3.833  16.610 -0.0050 -0.5873  0.6253
 4500TIP3    H234992   2.185   3.946  16.681 -0.9505  0.6507 -2.1867
 4501TIP3   OH234993   3.068   1.825  11.426  0.4698 -0.2888 -0.5010
 4501TIP3    H134994   3.126   1.870  11.487  1.2762  0.5492 -1.8201
 4501TIP3    H234995   2.991   1.801  11.478  1.4932 -0.3888  1.0164
 4502TIP3   OH234996   0.693   4.703  17.299  0.7883  0.2098  0.6766
 4502TIP3    H134997   0.628   4.676  17.363 -0.6296  1.2889 -0.2386
 4502TIP3    H234998   0.672   4.652  17.220  1.4666  0.0904  0.5713
 4503TIP3   OH234999   0.572   2.068  14.084 -0.2104  0.0960 -0.7665
 4503TIP3    H135000   0.617   2.005  14.028  1.7243  1.3765 -0.7184
 4503TIP3    H235001   0.505   2.107  14.027  0.4067 -0.0422 -1.6109
 4504TIP3   OH235002   5.111   6.768   3.451  0.4613  0.1005 -0.2157
 4504TIP3    H135003   5.092   6.810   3.535  1.7991 -0.7519  0.5516
 4504TIP3    H235004   5.025   6.753   3.411 -0.1193  2.0453  0.2149
 4505TIP3   OH235005   3.375   3.423   0.844  0.0279 -0.2011  0.3337
 4505TIP3    H135006   3.303   3.397   0.902  0.3498 -0.1448  0.7659
 4505TIP3    H235007   3.362   3.517   0.830 -1.7284 -0.6991 -2.0547
 4506TIP3   OH235008   1.950   3.615   0.743 -0.1471 -0.8518 -0.2295
 4506TIP3    H135009   1.898   3.550   0.790  0.8658 -1.2675  0.3567
 4506TIP3    H235010   1.894   3.644   0.671 -1.6415 -0.3977  1.0648
 4507TIP3   OH235011   3.515   0.182  14.254 -0.1689 -0.2155 -0.0066
 4507TIP3    H135012   3.567   0.225  14.185  0.0400  0.7802  0.7478
 4507TIP3    H235013   3.581   0.146  14.314 -0.3230  0.7659  0.7804
 4508TIP3   OH235014   3.408   4.407   0.825  0.0643 -0.5912  0.1696
 4508TIP3    H135015   3.481   4.373   0.773  0.9091 -0.4193  1.1996
 4508TIP3    H235016   3.404   4.500   0.802 -0.3217 -0.7541 -0.4411
 4509TIP3   OH235017   5.280   4.440  13.084  0.0446 -0.0005  0.1879
 4509TIP3    H135018   5.319   4.353  13.083 -0.2412 -0.1273 -0.0106
 4509TIP3    H235019   5.290   4.470  13.175  2.0319  0.6318 -0.1757
 4510TIP3   OH235020   5.135   5.316   2.259  0.4637  0.1997 -0.2267
 4510TIP3    H135021   5.159   5.377   2.189 -1.5607 -0.1286 -1.2839
 4510TIP3    H235022   5.151   5.229   2.221 -0.3018  0.0277 -0.1636
 4511TIP3   OH235023   1.902   0.343  10.117 -0.1110 -0.2615 -0.5906
 4511TIP3    H135024   1.985   0.306  10.146 -0.8926 -1.4437  0.2421
 4511TIP3    H235025   1.894   0.425  10.164 -0.3559 -1.1384  0.9789
 4512TIP3   OH235026   2.867   6.341  12.012 -0.2974 -0.7626 -0.4749
 4512TIP3    H135027   2.780   6.378  12.025  0.2176  0.0235  1.0041
 4512TIP3    H235028   2.926   6.405  12.052  0.8621 -1.8387 -0.4197
 4513TIP3   OH235029   1.566   2.813  15.808  0.0772  0.3826 -0.1037
 4513TIP3    H135030   1.499   2.881  15.808 -0.4554 -0.0585  1.8681
 4513TIP3    H235031   1.570   2.784  15.900  3.1543  0.5621 -0.0798
 4514TIP3   OH235032   4.311   5.680   1.965 -0.5099  0.1716  0.1268
 4514TIP3    H135033   4.372   5.607   1.958 -0.1121  0.3491  1.6072
 4514TIP3    H235034   4.252   5.669   1.890  0.1316 -1.1106 -0.2075
 4515TIP3   OH235035   1.693   0.894   0.552 -0.0850 -0.2820 -0.1086
 4515TIP3    H135036   1.779   0.855   0.569 -0.0367  0.5066  1.7992
 4515TIP3    H235037   1.631   0.822   0.568  0.1378 -0.3055  0.7449
 4516TIP3   OH235038   0.435   2.875  14.630 -0.2527 -0.6507  0.3490
 4516TIP3    H135039   0.393   2.797  14.595  0.9753 -1.2937  0.2273
 4516TIP3    H235040   0.528   2.863  14.610  0.0008  0.7221  0.5656
 4517TIP3   OH235041   4.710   5.257   0.654 -0.2563 -0.2724 -1.0484
 4517TIP3    H135042   4.766   5.179   0.655 -2.7312 -2.2098 -1.6009
 4517TIP3    H235043   4.693   5.275   0.746 -0.9531 -1.4453 -0.9254
 4518TIP3   OH235044   4.807   3.585  11.316 -0.3811  0.3839 -0.1131
 4518TIP3    H135045   4.852   3.584  11.231  1.4595  0.6106  0.8008
 4518TIP3    H235046   4.808   3.494  11.344  1.0291  0.6050  0.6337
 4519TIP3   OH235047   2.730   6.274   1.759 -0.0852  0.2025 -0.5496
 4519TIP3    H135048   2.665   6.232   1.703 -0.0741 -1.9617  0.9259
 4519TIP3    H235049   2.684   6.346   1.801 -1.2868 -0.7158 -0.2449
 4520TIP3   OH235050   6.179   5.017  10.213 -0.1656 -0.0936 -0.1713
 4520TIP3    H135051   6.240   5.033  10.285  0.2086 -0.3062 -0.4350
 4520TIP3    H235052   6.108   4.967  10.253  0.0275 -0.1871  0.0596
 4521TIP3   OH235053   3.258   6.545  15.245  0.3549  0.5382 -0.7984
 4521TIP3    H135054   3.189   6.611  15.252 -0.2212 -0.1788  0.6877
 4521TIP3    H235055   3.338   6.592  15.266 -0.2092  0.5484  1.6350
 4522TIP3   OH235056   6.359   0.567   1.348 -0.1896  0.3241 -0.0459
 4522TIP3    H135057   6.398   0.532   1.428 -0.0978  0.4744 -0.0250
 4522TIP3    H235058   6.356   0.662   1.361 -2.4024  0.1917  0.7646
 4523TIP3   OH235059   0.974   6.821   3.913 -0.2095  0.3464 -0.0933
 4523TIP3    H135060   0.885   6.854   3.900 -1.3720 -2.6049 -0.3702
 4523TIP3    H235061   1.030   6.888   3.874 -2.4555  1.2156 -2.0946
 4524TIP3   OH235062   5.473   4.609   0.504  0.9626 -0.5032  0.2186
 4524TIP3    H135063   5.433   4.541   0.558  2.1256 -0.5706  1.0447
 4524TIP3    H235064   5.531   4.656   0.564  0.2368  1.1827 -0.3525
 4525TIP3   OH235065   0.667   5.583  15.940 -0.0426 -0.0719 -0.1570
 4525TIP3    H135066   0.730   5.515  15.915  0.5905  0.6348 -0.5194
 4525TIP3    H235067   0.586   5.557  15.896  0.3652 -0.2509 -0.8223
 4526TIP3   OH235068   5.087   5.166   0.939 -0.0019 -0.1511  0.2151
 4526TIP3    H135069   5.060   5.166   1.030 -0.0241 -0.7918  0.2119
 4526TIP3    H235070   5.177   5.132   0.941 -0.0132 -0.1936 -0.0071
 4527TIP3   OH235071   4.062   0.110  16.999 -0.2280  0.1479 -0.4466
 4527TIP3    H135072   3.966   0.108  17.001 -0.2413 -0.7965 -1.1673
 4527TIP3    H235073   4.084   0.144  16.913  0.0704 -0.9136 -0.8012
 4528TIP3   OH235074   2.802   1.479  17.150  0.0052 -0.0277  0.5227
 4528TIP3    H135075   2.717   1.434  17.146  0.2342 -0.4416  0.2204
 4528TIP3    H235076   2.779   1.572  17.154 -0.4522 -0.0766 -0.6344
 4529TIP3   OH235077   4.097   5.635  14.850  0.2150  0.1369  0.1685
 4529TIP3    H135078   4.095   5.539  14.845  0.4876  0.0392  1.5676
 4529TIP3    H235079   4.050   5.664  14.772 -1.8487 -1.1811  0.8465
 4530TIP3   OH235080   1.757   2.363  15.847  0.2142 -0.2012  0.6224
 4530TIP3    H135081   1.750   2.389  15.756 -3.2445 -1.3368  0.4173
 4530TIP3    H235082   1.737   2.443  15.897 -0.8075 -0.2350  0.2795
 4531TIP3   OH235083   0.749   1.184  15.041  0.0280 -0.8646  0.5482
 4531TIP3    H135084   0.790   1.098  15.037 -0.8619 -1.2570 -0.8224
 4531TIP3    H235085   0.678   1.180  14.977  1.0201  1.4378 -0.7953
 4532TIP3   OH235086   0.765   4.462   0.581 -0.0565  0.0215 -0.8194
 4532TIP3    H135087   0.814   4.544   0.573 -1.7933  1.1445 -0.4861
 4532TIP3    H235088   0.785   4.414   0.500  0.4882  1.0551 -1.3173
 4533TIP3   OH235089   1.371   1.022  16.510 -0.0502  0.2643  0.4752
 4533TIP3    H135090   1.337   0.971  16.437  0.8865  0.1127  0.1304
 4533TIP3    H235091   1.312   1.097  16.517 -1.6833 -1.0382  1.2490
 4534TIP3   OH235092   3.528   6.327   0.723  0.3326 -0.2865 -0.8428
 4534TIP3    H135093   3.473   6.385   0.671  0.7149 -0.9752 -2.0650
 4534TIP3    H235094   3.471   6.253   0.745 -0.0561  0.3646  0.4219
 4535TIP3   OH235095   0.782   3.066  14.880 -0.2395 -0.2170  0.7544
 4535TIP3    H135096   0.876   3.082  14.889  0.0366 -0.6478 -1.0455
 4535TIP3    H235097   0.776   2.972  14.863 -1.1242 -0.4225  2.0329
 4536TIP3   OH235098   6.188   5.366  11.368  0.4720  0.5918  0.0093
 4536TIP3    H135099   6.267   5.419  11.363  0.1700  1.2905  1.9064
 4536TIP3    H235100   6.217   5.281  11.402  0.2573  1.3555  2.2525
 4537TIP3   OH235101   0.359   2.146  13.905 -0.0968  0.9261 -0.0322
 4537TIP3    H135102   0.293   2.169  13.840 -1.9680 -0.4127  1.2821
 4537TIP3    H235103   0.316   2.160  13.989  1.2818 -0.0350  0.8846
 4538TIP3   OH235104   6.402   4.440   5.234  0.5467 -0.0379  0.1155
 4538TIP3    H135105   6.370   4.453   5.144  0.4515 -0.0848  0.1416
 4538TIP3    H235106   6.323   4.419   5.284  0.1383  2.6399  0.7537
 4539TIP3   OH235107   6.821   4.669  15.712 -0.7063 -0.1006 -0.0110
 4539TIP3    H135108   6.897   4.727  15.704 -1.3933  0.8671  0.2808
 4539TIP3    H235109   6.858   4.585  15.737  0.4876 -0.3033 -2.2047
 4540TIP3   OH235110   4.297   5.522  10.612 -0.1952  0.3558 -0.2015
 4540TIP3    H135111   4.366   5.477  10.661 -0.1959  0.4541 -0.1099
 4540TIP3    H235112   4.338   5.602  10.580 -0.2400  0.3688 -0.2267
 4541TIP3   OH235113   0.122   4.998  12.151  0.4329  0.6775  0.0520
 4541TIP3    H135114   0.088   4.999  12.061 -0.2485  1.4688  0.3151
 4541TIP3    H235115   0.051   4.960  12.203  0.9171 -0.0079  0.2388
 4542TIP3   OH235116   3.177   0.617  14.630 -0.2253  0.1884 -0.2306
 4542TIP3    H135117   3.141   0.531  14.609 -0.2747 -0.3931  1.9456
 4542TIP3    H235118   3.104   0.678  14.614 -0.4344 -0.2613 -1.0412
 4543TIP3   OH235119   5.189   6.188  16.399  0.2287 -0.2945  0.2055
 4543TIP3    H135120   5.215   6.272  16.436  0.7781  0.9815 -2.7935
 4543TIP3    H235121   5.108   6.208  16.350  1.3010 -1.0110 -2.0021
 4544TIP3   OH235122   3.941   2.762  15.335 -0.3481 -0.1037  0.2456
 4544TIP3    H135123   3.958   2.723  15.250 -0.5390  0.6106 -0.1279
 4544TIP3    H235124   3.846   2.776  15.336 -0.3283  0.0250  0.5158
 4545TIP3   OH235125   6.376   6.424  16.050  0.4592 -0.0120  0.4736
 4545TIP3    H135126   6.459   6.470  16.056  1.0392 -1.1546  1.7915
 4545TIP3    H235127   6.399   6.334  16.027 -0.5660  0.0377 -0.8902
 4546TIP3   OH235128   6.434   3.201  11.409  0.2943  0.4315 -0.1563
 4546TIP3    H135129   6.451   3.108  11.396 -0.8700  0.0920  0.5570
 4546TIP3    H235130   6.485   3.224  11.486  0.5109  0.3542 -0.2773
 4547TIP3   OH235131   4.589   2.877   4.168 -0.3604  0.3405 -0.2992
 4547TIP3    H135132   4.655   2.807   4.171  0.0060  0.7011  0.9030
 4547TIP3    H235133   4.638   2.957   4.190 -0.9872  0.8041 -0.5436
 4548TIP3   OH235134   3.685   3.220  16.462 -0.3508  0.1020 -0.4524
 4548TIP3    H135135   3.684   3.316  16.464 -0.2993  0.2727 -3.3037
 4548TIP3    H235136   3.767   3.198  16.418  0.0970 -1.3317  1.0013
 4549TIP3   OH235137   5.378   5.049   4.341 -0.1093  0.0435 -0.4702
 4549TIP3    H135138   5.434   5.082   4.412 -0.1210 -0.6600 -0.1287
 4549TIP3    H235139   5.435   5.047   4.264 -0.6665  3.0595 -1.1233
 4550TIP3   OH235140   6.163   5.225  16.902  0.3956 -0.5545 -0.4235
 4550TIP3    H135141   6.096   5.292  16.887  0.2553 -0.5067  0.3876
 4550TIP3    H235142   6.244   5.274  16.914  0.8113 -0.6431 -2.4042
 4551TIP3   OH235143   1.099   1.491  11.344  0.3757  0.4219 -0.4810
 4551TIP3    H135144   1.134   1.525  11.262  0.1608  0.4024 -0.5819
 4551TIP3    H235145   1.115   1.561  11.408  2.2720 -0.3012 -0.0970
 4552TIP3   OH235146   6.430   5.272  15.952 -0.2610  0.0618  0.2841
 4552TIP3    H135147   6.522   5.280  15.978 -0.4448 -1.9388  1.7744
 4552TIP3    H235148   6.401   5.362  15.939  1.6261  0.7970  0.8263
 4553TIP3   OH235149   6.110   0.264  14.898 -0.2439  0.3922  0.4390
 4553TIP3    H135150   6.177   0.329  14.923 -0.9928  0.9980  0.9099
 4553TIP3    H235151   6.128   0.247  14.805 -1.2218  2.7772 -0.2761
 4554TIP3   OH235152   3.280   1.942   1.632  0.3359  0.0259 -0.1533
 4554TIP3    H135153   3.187   1.929   1.617  0.6401 -2.3349 -0.3253
 4554TIP3    H235154   3.285   1.974   1.722 -0.5902 -0.9425  0.2616
 4555TIP3   OH235155   3.570   4.967  16.104  0.2291 -0.0117  0.1292
 4555TIP3    H135156   3.544   4.958  16.195 -1.6671  1.5464 -0.1808
 4555TIP3    H235157   3.489   4.954  16.054  1.3105 -1.3432 -1.3914
 4556TIP3   OH235158   0.899   1.980  14.641  0.0651  0.6308 -0.1463
 4556TIP3    H135159   0.900   1.901  14.695  0.7737  0.3536 -0.5461
 4556TIP3    H235160   0.945   2.046  14.693  2.3812 -0.1253 -1.0702
 4557TIP3   OH235161   4.986   1.300   2.612 -0.3606  0.7396  0.0972
 4557TIP3    H135162   5.046   1.361   2.570 -0.5411  0.6657 -0.2674
 4557TIP3    H235163   4.991   1.221   2.559  0.2205  0.2663  0.8260
 4558TIP3   OH235164   5.945   4.057   4.380 -0.4255 -0.1318  0.1617
 4558TIP3    H135165   5.952   4.018   4.467  1.1412  0.1771  0.1980
 4558TIP3    H235166   5.894   4.137   4.393  0.6427  0.4316  0.9921
 4559TIP3   OH235167   4.307   5.859  16.193  0.7712 -0.7923 -0.2684
 4559TIP3    H135168   4.400   5.838  16.194  0.8330 -0.5380  0.9858
 4559TIP3    H235169   4.277   5.839  16.281 -0.6321 -1.9840 -0.9732
 4560TIP3   OH235170   0.824   3.637   3.299  0.3394 -0.1059  0.0968
 4560TIP3    H135171   0.749   3.582   3.279  0.2197 -0.1725  0.7149
 4560TIP3    H235172   0.897   3.576   3.306  0.3277 -0.1139  0.1477
 4561TIP3   OH235173   2.061   0.106  11.662  0.1179 -0.6068 -0.5447
 4561TIP3    H135174   1.967   0.115  11.679  0.2528 -1.4366  0.7664
 4561TIP3    H235175   2.069   0.022  11.617  0.3515 -1.2276  0.6146
 4562TIP3   OH235176   6.051   3.463  16.187  0.5927  0.1030 -0.1194
 4562TIP3    H135177   5.991   3.521  16.233 -2.4789 -3.0517  0.2941
 4562TIP3    H235178   6.092   3.411  16.256  0.2253 -0.8586 -0.5910
 4563TIP3   OH235179   0.013   6.665   4.595 -0.2100  0.5281  0.2178
 4563TIP3    H135180   0.003   6.724   4.671  0.9004  2.0618 -0.7632
 4563TIP3    H235181   0.051   6.721   4.527  1.1496 -1.4215 -0.6879
 4564TIP3   OH235182   6.570   3.222  15.902  0.1309  0.1826 -0.0356
 4564TIP3    H135183   6.504   3.178  15.849 -0.0986  0.8986 -0.3633
 4564TIP3    H235184   6.564   3.314  15.875 -0.1534  0.6028  1.4092
 4565TIP3   OH235185   0.686   0.055   1.861 -0.3179 -0.4478  0.1100
 4565TIP3    H135186   0.674   0.138   1.906  2.8391  0.8789 -1.2148
 4565TIP3    H235187   0.768   0.020   1.897 -0.7552 -2.2385 -0.5035
 4566TIP3   OH235188   2.416   5.305   0.558  0.2686  0.1201 -0.3513
 4566TIP3    H135189   2.462   5.256   0.490 -2.0617 -0.6388 -1.4847
 4566TIP3    H235190   2.402   5.392   0.520  2.1619  0.9359  0.6691
 4567TIP3   OH235191   2.540   3.475  16.035 -0.4027  0.1015 -0.6800
 4567TIP3    H135192   2.542   3.390  16.079 -1.8475  0.5734  0.3866
 4567TIP3    H235193   2.602   3.466  15.962  0.8947 -1.2305  0.5187
 4568TIP3   OH235194   2.786   3.394   4.513 -0.2071  0.7220  0.4507
 4568TIP3    H135195   2.811   3.318   4.566 -2.7282 -1.0066 -0.6148
 4568TIP3    H235196   2.860   3.408   4.455 -0.4078 -2.3592 -0.7529
 4569TIP3   OH235197   2.516   0.250  15.351 -0.1443 -0.4775  0.4102
 4569TIP3    H135198   2.535   0.343  15.359  0.8255 -0.7905  2.9700
 4569TIP3    H235199   2.421   0.244  15.354 -0.1881  0.3491  2.8658
 4570TIP3   OH235200   4.480   6.450  16.911 -0.6146 -0.6472  0.4735
 4570TIP3    H135201   4.541   6.523  16.926 -0.3448 -1.1665  2.1921
 4570TIP3    H235202   4.526   6.374  16.947 -1.3897 -1.4557 -0.2061
 4571TIP3   OH235203   5.598   6.715  17.009  0.2944  0.8385 -0.0334
 4571TIP3    H135204   5.648   6.634  16.994  0.5770  0.6052  1.9013
 4571TIP3    H235205   5.508   6.686  17.018  0.1660  0.9452 -0.8970
 4572TIP3   OH235206   3.303   2.229  16.881 -1.0677 -0.2915 -0.2754
 4572TIP3    H135207   3.360   2.296  16.842 -0.8336  0.3397  1.0778
 4572TIP3    H235208   3.245   2.279  16.939 -2.3725 -1.0345 -0.9092
 4573TIP3   OH235209   5.773   6.276   3.095 -0.2725 -0.1745 -0.5267
 4573TIP3    H135210   5.853   6.234   3.126  0.1273  0.0070 -1.2675
 4573TIP3    H235211   5.766   6.248   3.003  0.3761  1.8616 -1.2670
 4574TIP3   OH235212   4.850   5.439  12.184  0.2890 -0.3575 -0.1217
 4574TIP3    H135213   4.790   5.391  12.127  2.3146 -2.1891 -0.8821
 4574TIP3    H235214   4.920   5.376  12.203  0.7604  0.8571  2.7386
 4575TIP3   OH235215   0.946   4.201   3.929 -0.1557 -0.5566  0.0611
 4575TIP3    H135216   0.910   4.284   3.899 -0.5679 -1.0294 -0.7762
 4575TIP3    H235217   0.997   4.167   3.855 -1.1723 -1.7263 -0.1411
 4576TIP3   OH235218   3.641   5.386  16.656  0.6970 -0.2224 -0.2136
 4576TIP3    H135219   3.683   5.463  16.619 -0.7270  0.5147 -0.3477
 4576TIP3    H235220   3.549   5.394  16.632  0.6926 -2.5702 -1.2239
 4577TIP3   OH235221   5.646   2.231  11.178 -0.3222 -0.5202  0.4696
 4577TIP3    H135222   5.597   2.150  11.192 -1.8884  0.2491 -0.2211
 4577TIP3    H235223   5.707   2.236  11.251  2.3926 -4.0615 -1.2119
 4578TIP3   OH235224   3.033   6.637  16.483 -0.0771 -0.0564 -0.1088
 4578TIP3    H135225   3.108   6.614  16.429 -0.3572 -1.2287 -0.0172
 4578TIP3    H235226   3.000   6.719  16.445  0.7637  0.0447 -0.6332
 4579TIP3   OH235227   1.834   2.694   6.132 -0.7529 -0.0530  0.4884
 4579TIP3    H135228   1.832   2.722   6.040  2.3217  1.5352  0.7803
 4579TIP3    H235229   1.768   2.749   6.175  0.4059  1.9994 -0.1928
 4580TIP3   OH235230   1.325   4.632  15.327 -0.0935  0.0121 -0.0786
 4580TIP3    H135231   1.351   4.720  15.299  1.4917 -1.0430 -2.2801
 4580TIP3    H235232   1.403   4.578  15.309 -0.8981 -1.7887  1.5264
 4581TIP3   OH235233   6.644   6.140   2.487 -0.3921 -0.0728 -0.0954
 4581TIP3    H135234   6.730   6.100   2.491  1.1040  2.8943 -0.1181
 4581TIP3    H235235   6.613   6.123   2.398  0.0827 -1.2444 -0.0557
 4582TIP3   OH235236   4.218   2.790  16.392 -0.1154 -0.2838  0.2085
 4582TIP3    H135237   4.145   2.745  16.350 -0.5418  1.2568 -0.7394
 4582TIP3    H235238   4.255   2.846  16.324 -0.5647  1.9839  1.7287
 4583TIP3   OH235239   2.223   6.477  17.285 -0.0494  0.1119  0.0697
 4583TIP3    H135240   2.212   6.569  17.305 -0.4610  0.3261 -1.0165
 4583TIP3    H235241   2.149   6.457  17.227  0.2985 -0.7736 -0.0835
 4584TIP3   OH235242   3.148   3.938  16.102 -0.0760 -0.5595 -0.3313
 4584TIP3    H135243   3.054   3.943  16.122  0.0193  1.3122 -0.2084
 4584TIP3    H235244   3.189   3.998  16.164  1.0374 -0.2609 -1.3196
 4585TIP3   OH235245   6.488   2.263   1.943  0.5839 -0.1057 -0.0156
 4585TIP3    H135246   6.399   2.228   1.935 -0.6364  2.4309  1.3526
 4585TIP3    H235247   6.538   2.192   1.984 -1.3791 -0.8316  1.2744
 4586TIP3   OH235248   6.429   3.012   3.742  0.7134 -0.0395 -0.2115
 4586TIP3    H135249   6.409   3.002   3.835  0.8205 -2.4412 -0.3887
 4586TIP3    H235250   6.522   3.036   3.740  0.7340 -0.0788  0.2933
 4587TIP3   OH235251   3.552   4.639  13.063 -0.0353  0.4077 -0.7095
 4587TIP3    H135252   3.612   4.662  13.134  1.4997 -0.9320 -1.5203
 4587TIP3    H235253   3.520   4.552  13.086  1.9889 -0.9021 -2.5551
 4588TIP3   OH235254   4.162   0.430   0.981 -0.6585  0.0411 -0.3355
 4588TIP3    H135255   4.160   0.484   0.902 -1.7745  0.5869  0.0503
 4588TIP3    H235256   4.174   0.492   1.053  0.9211 -0.5002 -0.0970
 4589TIP3   OH235257   0.916   0.291   5.833 -0.1187  0.4984  0.4808
 4589TIP3    H135258   0.967   0.344   5.771  0.2348  1.2624  1.3977
 4589TIP3    H235259   0.831   0.279   5.790  1.0903 -1.6667 -1.5470
 4590TIP3   OH235260   2.445   6.431   0.453 -0.2598 -0.8180 -0.1339
 4590TIP3    H135261   2.539   6.418   0.446 -0.4744 -2.3130 -0.8296
 4590TIP3    H235262   2.427   6.510   0.403  0.4968 -1.1848 -1.0112
 4591TIP3   OH235263   6.070   3.702  12.559 -0.2986 -0.2470 -0.1616
 4591TIP3    H135264   6.025   3.689  12.642  0.8839 -2.3582  0.2321
 4591TIP3    H235265   6.060   3.795  12.540 -1.4796  0.0869  1.8154
 4592TIP3   OH235266   2.340   2.322   1.093  0.1108  0.3833  0.2192
 4592TIP3    H135267   2.417   2.320   1.035  0.0531 -0.2786  0.1554
 4592TIP3    H235268   2.352   2.247   1.151 -0.5822  0.1622  0.0845
 4593TIP3   OH235269   0.289   0.138  16.921 -0.0328 -0.2825 -0.0826
 4593TIP3    H135270   0.195   0.155  16.913 -0.0934 -0.5855 -0.0501
 4593TIP3    H235271   0.327   0.221  16.948 -0.4888 -0.5358  1.4199
 4594TIP3   OH235272   6.623   3.908   3.282  0.2159 -0.3989 -0.4925
 4594TIP3    H135273   6.586   3.824   3.255 -0.6553 -0.0868 -0.3007
 4594TIP3    H235274   6.675   3.937   3.207  0.8007 -1.2671 -0.4252
 4595TIP3   OH235275   4.476   2.794  12.425  0.1692  0.2742 -0.0248
 4595TIP3    H135276   4.452   2.742  12.348  2.0466  1.5771 -1.5900
 4595TIP3    H235277   4.506   2.729  12.489 -0.4554 -0.7721 -0.7548
 4596TIP3   OH235278   3.279   1.059   4.443  0.2040 -0.3435  0.6408
 4596TIP3    H135279   3.226   1.100   4.375 -0.1775 -0.8313  0.6409
 4596TIP3    H235280   3.285   0.967   4.417  1.3798 -0.2302  0.4311
 4597TIP3   OH235281   0.197   3.399   3.401 -0.2696  0.3426 -0.0648
 4597TIP3    H135282   0.151   3.403   3.485 -1.7592  0.7590 -0.8490
 4597TIP3    H235283   0.157   3.325   3.356  1.1417 -0.4384 -0.0847
 4598TIP3   OH235284   2.242   0.106   1.650  0.3672 -0.6444  0.3870
 4598TIP3    H135285   2.157   0.069   1.629 -0.1405  1.3835 -1.5037
 4598TIP3    H235286   2.305   0.044   1.613 -0.3255 -1.2190  0.1533
 4599TIP3   OH235287   0.170   1.647   2.649 -0.2240 -0.1199 -0.3888
 4599TIP3    H135288   0.128   1.690   2.723  0.9191 -0.4986  0.5018
 4599TIP3    H235289   0.181   1.556   2.676  1.7035  0.0856 -0.3153
 4600TIP3   OH235290   3.282   1.277  15.474 -0.3604 -0.9120  0.2082
 4600TIP3    H135291   3.345   1.204  15.471 -0.3132 -0.8561 -0.1553
 4600TIP3    H235292   3.255   1.290  15.383  1.6499  1.2662 -0.1727
 4601TIP3   OH235293   1.150   0.733   1.797  0.3055  0.0325 -0.2363
 4601TIP3    H135294   1.195   0.737   1.712 -0.6617 -0.0517 -0.7582
 4601TIP3    H235295   1.209   0.781   1.857  1.8512 -1.3968 -0.5346
 4602TIP3   OH235296   3.868   3.377  12.212  0.1733  0.0088 -0.0400
 4602TIP3    H135297   3.913   3.438  12.271  2.0737 -1.1440 -0.2373
 4602TIP3    H235298   3.897   3.403  12.125  0.3402 -0.6358 -0.1827
 4603TIP3   OH235299   4.319   1.739  14.498  0.4461 -0.2969 -0.3349
 4603TIP3    H135300   4.304   1.652  14.459  0.3340 -1.3729  1.9233
 4603TIP3    H235301   4.409   1.736  14.530  0.7314  0.7633 -1.0009
 4604TIP3   OH235302   4.990   3.910  16.085  0.2901  0.1672 -0.0704
 4604TIP3    H135303   4.899   3.939  16.084  0.7108  1.5483 -0.7028
 4604TIP3    H235304   4.998   3.856  16.006 -0.3537 -1.2902  0.8184
 4605TIP3   OH235305   3.278   3.030   0.700  0.3931 -0.0649 -0.1823
 4605TIP3    H135306   3.299   3.005   0.790  2.6733 -2.9897 -1.3480
 4605TIP3    H235307   3.189   2.999   0.686 -0.4693  1.5843  1.3894
 4606TIP3   OH235308   5.298   2.430   3.289  0.0651  0.2763  0.1236
 4606TIP3    H135309   5.260   2.503   3.240 -1.1351  0.0793  0.7269
 4606TIP3    H235310   5.246   2.426   3.370  0.5001 -0.8624  0.3574
 4607TIP3   OH235311   3.370   2.831   1.559 -0.3479  0.0776  0.3017
 4607TIP3    H135312   3.460   2.800   1.552  0.0035  1.3357 -1.5016
 4607TIP3    H235313   3.368   2.881   1.640  0.2739 -0.8068  0.8887
 4608TIP3   OH235314   1.733   3.741  11.988  0.0681 -0.3343  0.0433
 4608TIP3    H135315   1.829   3.739  11.992  0.0379 -0.3389  0.8538
 4608TIP3    H235316   1.709   3.654  11.955  0.3067 -0.6378  0.6715
 4609TIP3   OH235317   3.508   0.962  13.686  0.2778 -0.1565 -0.0658
 4609TIP3    H135318   3.526   0.999  13.772  2.2214 -0.0105 -0.4789
 4609TIP3    H235319   3.458   1.029  13.641  0.6046  0.4316  0.4256
 4610TIP3   OH235320   1.445   1.232  15.780  0.0637  0.2229  0.1534
 4610TIP3    H135321   1.519   1.269  15.828  1.1842 -0.2032 -1.2090
 4610TIP3    H235322   1.451   1.138  15.794  0.7644  0.0281 -1.2615
 4611TIP3   OH235323   5.991   2.802  15.713 -0.1900 -0.3871 -0.1330
 4611TIP3    H135324   6.045   2.823  15.637 -2.0043  1.5897 -0.9824
 4611TIP3    H235325   6.053   2.775  15.780  1.7971  1.1510 -1.2378
 4612TIP3   OH235326   5.105   4.115   2.693  0.2746  0.4261  0.4049
 4612TIP3    H135327   5.190   4.080   2.667  0.6292  1.7295 -0.2593
 4612TIP3    H235328   5.047   4.039   2.693  0.2422  0.1850 -4.1312
 4613TIP3   OH235329   5.577   6.178   1.444  0.0695  0.1271 -0.3437
 4613TIP3    H135330   5.620   6.132   1.371 -0.3242  0.5387 -0.8420
 4613TIP3    H235331   5.582   6.271   1.420 -0.7721  0.2081 -0.2364
 4614TIP3   OH235332   3.501   0.658  12.188 -0.1108 -0.1303  0.0360
 4614TIP3    H135333   3.515   0.735  12.242  0.9696 -1.0046  1.0449
 4614TIP3    H235334   3.424   0.616  12.225 -1.3527  0.9591 -1.1611
 4615TIP3   OH235335   1.702   2.620   0.591  0.1632  0.1438  0.2082
 4615TIP3    H135336   1.729   2.552   0.529 -0.3199 -0.1586  0.3213
 4615TIP3    H235337   1.614   2.594   0.619 -1.0696  2.0609 -1.5745
 4616TIP3   OH235338   4.859   1.851  14.496  0.7052 -0.2106 -0.3910
 4616TIP3    H135339   4.901   1.815  14.573  1.8309  0.8247 -0.4867
 4616TIP3    H235340   4.880   1.944  14.498  1.5501 -0.2949 -2.4096
 4617TIP3   OH235341   4.322   3.733   4.864 -0.3027 -0.0190 -0.2899
 4617TIP3    H135342   4.277   3.755   4.945  0.0078  1.5179 -0.5140
 4617TIP3    H235343   4.355   3.644   4.879  0.9569  0.7191  1.8426
 4618TIP3   OH235344   5.162   0.146  17.094 -0.3959 -0.2100  0.1331
 4618TIP3    H135345   5.204   0.154  17.009 -2.6131  0.1570 -1.0165
 4618TIP3    H235346   5.086   0.090  17.077 -0.2660 -1.0596  2.1334
 4619TIP3   OH235347   0.981   3.106   1.076 -0.0140  0.2252  0.2039
 4619TIP3    H135348   0.914   3.134   1.014 -1.9079  1.2611  2.5431
 4619TIP3    H235349   1.024   3.187   1.104  1.5496 -0.3244 -0.4706
 4620TIP3   OH235350   1.469   6.489   0.039 -0.1341 -0.1736  0.1300
 4620TIP3    H135351   1.490   6.569   0.088 -4.3573  0.9029  0.5824
 4620TIP3    H235352   1.459   6.422   0.106 -0.6418 -0.0345  0.1963
 4621TIP3   OH235353   4.675   0.743   5.730  0.3657  0.3027  0.4662
 4621TIP3    H135354   4.698   0.689   5.654  0.7802 -0.7404  1.3047
 4621TIP3    H235355   4.755   0.743   5.783 -1.1097 -2.5481  2.9664
 4622TIP3   OH235356   3.394   3.146  12.039 -0.8895 -0.0374  0.0571
 4622TIP3    H135357   3.431   3.071  12.086  1.2606  1.4318  0.8684
 4622TIP3    H235358   3.328   3.107  11.980  0.4530 -2.6066  0.0926
 4623TIP3   OH235359   6.821   0.031   6.099 -0.2670  0.7475 -0.2176
 4623TIP3    H135360   6.752   0.036   6.032  0.9182  2.0965 -1.4183
 4623TIP3    H235361   6.838   0.122   6.122 -0.0144  0.3426  1.3073
 4624TIP3   OH235362   3.987   2.993  16.418  0.2319  0.6847 -0.5129
 4624TIP3    H135363   3.966   3.005  16.510  1.4022  0.3521 -0.1831
 4624TIP3    H235364   4.063   2.934  16.418  0.8388  1.4328 -1.6448
 4625TIP3   OH235365   3.570   2.171   4.141  0.3173 -0.4050 -0.2745
 4625TIP3    H135366   3.489   2.123   4.121 -0.4569  0.9286 -0.4962
 4625TIP3    H235367   3.565   2.187   4.235  0.2360 -0.1720 -0.3184
 4626TIP3   OH235368   3.915   3.227  11.360 -0.2642 -0.3295 -0.2202
 4626TIP3    H135369   3.945   3.300  11.414 -2.1116 -0.6350  1.3111
 4626TIP3    H235370   3.995   3.193  11.319  0.8291  1.5941  0.1867
 4627TIP3   OH235371   1.365   1.047   1.773  0.9860 -0.2811 -0.0302
 4627TIP3    H135372   1.343   0.977   1.834 -1.1271 -0.0482 -0.4703
 4627TIP3    H235373   1.453   1.025   1.741  1.3200 -1.4363  1.5975
 4628TIP3   OH235374   4.341   1.230  13.201  0.3544 -0.0919  0.0306
 4628TIP3    H135375   4.308   1.151  13.158 -1.4006 -0.6218  2.1412
 4628TIP3    H235376   4.362   1.290  13.130  0.3735 -1.9286 -1.5968
 4629TIP3   OH235377   1.253   6.013   3.555 -0.2550  0.2272 -0.4629
 4629TIP3    H135378   1.240   6.085   3.617 -0.7810  0.1473 -0.4722
 4629TIP3    H235379   1.329   5.966   3.589  1.7495  2.2176 -1.8365
 4630TIP3   OH235380   3.477   0.743  15.735  0.6909  0.4017 -0.5921
 4630TIP3    H135381   3.413   0.814  15.739 -0.8487 -0.9675  0.7148
 4630TIP3    H235382   3.448   0.688  15.663 -1.1037 -1.4588  1.4012
 4631TIP3   OH235383   4.909   1.960  16.978  0.0035 -0.0933  0.0104
 4631TIP3    H135384   4.890   1.913  17.059 -0.7085  0.4973  0.1935
 4631TIP3    H235385   4.993   1.923  16.949  0.7835  0.3559  1.5252
 4632TIP3   OH235386   3.119   6.043   3.739  0.4515 -0.0006  0.2470
 4632TIP3    H135387   3.212   6.024   3.734  0.6512 -0.6703  3.9359
 4632TIP3    H235388   3.114   6.139   3.742  1.0139  0.0342  0.1617
 4633TIP3   OH235389   1.012   4.509  16.867  0.6309 -0.0135 -0.2382
 4633TIP3    H135390   1.024   4.421  16.902  1.2419 -0.1750 -0.8407
 4633TIP3    H235391   0.986   4.496  16.776 -1.5004  0.3975  0.2536
 4634TIP3   OH235392   3.060   5.849  16.292  0.0585  0.0708  0.0299
 4634TIP3    H135393   3.092   5.915  16.353 -1.4147 -0.1597  1.1113
 4634TIP3    H235394   2.968   5.836  16.316 -0.0033 -1.5342 -0.9004
 4635TIP3   OH235395   6.233   0.394  11.874  0.3721 -0.1447  0.2428
 4635TIP3    H135396   6.256   0.312  11.830 -0.5835  0.1911 -0.9413
 4635TIP3    H235397   6.215   0.455  11.802 -1.0197  0.4973  1.1017
 4636TIP3   OH235398   0.050   4.119   0.155 -0.2547  0.6905  0.1261
 4636TIP3    H135399   0.027   4.059   0.225 -1.0120  0.5091 -0.2600
 4636TIP3    H235400   0.108   4.183   0.195  1.9112 -1.1863  0.1960
 4637TIP3   OH235401   4.956   4.205  13.391  0.2867 -0.4901  0.1592
 4637TIP3    H135402   5.016   4.278  13.403  0.7472 -0.7348 -0.5495
 4637TIP3    H235403   4.893   4.236  13.326  0.7445 -0.8576 -0.4778
 4638TIP3   OH235404   1.459   0.087   4.714  0.2687 -0.5174 -0.2358
 4638TIP3    H135405   1.429   0.036   4.639 -2.4874 -3.8365  2.7399
 4638TIP3    H235406   1.547   0.054   4.733  0.4299 -0.6395 -1.1594
 4639TIP3   OH235407   6.211   4.185  12.303 -0.1605  0.2419 -0.5465
 4639TIP3    H135408   6.282   4.244  12.277  0.5029  0.0285  0.7153
 4639TIP3    H235409   6.157   4.237  12.362  0.8994 -0.6272  1.2499
 4640TIP3   OH235410   2.784   1.635   1.259  0.5140 -0.6353  0.1421
 4640TIP3    H135411   2.787   1.712   1.203 -2.2094  0.3637  1.1811
 4640TIP3    H235412   2.744   1.567   1.205  2.1521 -1.1426 -0.5057
 4641TIP3   OH235413   6.257   1.028   4.721 -0.0523  0.6034  1.0105
 4641TIP3    H135414   6.309   1.022   4.641  0.3428  4.0987  0.8695
 4641TIP3    H235415   6.186   1.088   4.699  0.0198  1.5805  3.2305
 4642TIP3   OH235416   3.630   2.167  16.765 -0.5467  0.2635  0.0317
 4642TIP3    H135417   3.698   2.126  16.819  2.0026  2.4989 -1.1980
 4642TIP3    H235418   3.562   2.192  16.827  1.0462  0.3977  1.8326
 4643TIP3   OH235419   1.139   1.772  10.505 -0.3103  0.0794 -0.2890
 4643TIP3    H135420   1.194   1.763  10.582  0.1347  2.0905 -0.3188
 4643TIP3    H235421   1.118   1.682  10.480  1.5716 -0.6938  0.6992
 4644TIP3   OH235422   0.861   2.421   4.989 -0.4373 -0.1971 -0.2407
 4644TIP3    H135423   0.811   2.376   5.057 -0.7148  0.8110  0.2376
 4644TIP3    H235424   0.941   2.451   5.034 -0.8378  0.8826 -0.2252
 4645TIP3   OH235425   2.628   3.478   0.866 -0.3335  0.4410  0.2226
 4645TIP3    H135426   2.567   3.489   0.793 -1.3039  0.7356  1.0440
 4645TIP3    H235427   2.609   3.552   0.924  1.7663  1.3131 -0.1407
 4646TIP3   OH235428   6.620   2.609   4.698  0.0646  0.4114  0.2445
 4646TIP3    H135429   6.563   2.629   4.623 -1.1433 -0.7219  0.8037
 4646TIP3    H235430   6.575   2.537   4.742  1.4607  0.1558  1.2926
 4647TIP3   OH235431   0.983   0.480   2.853  0.3995  0.0544  0.0144
 4647TIP3    H135432   0.994   0.519   2.766  1.8857  0.2553  0.2565
 4647TIP3    H235433   0.968   0.387   2.836  0.3466  0.1483 -0.4679
 4648TIP3   OH235434   5.623   5.512  11.011  0.1154  0.1834  0.4536
 4648TIP3    H135435   5.566   5.501  10.935 -1.0039  0.3785  1.2334
 4648TIP3    H235436   5.695   5.451  10.997 -0.3436 -0.1568 -0.5013
 4649TIP3   OH235437   0.758   5.579   2.193  0.1123  0.1792 -0.3402
 4649TIP3    H135438   0.764   5.495   2.238 -0.8753  0.6504  0.7171
 4649TIP3    H235439   0.725   5.557   2.106 -0.8606 -0.4780  0.1688
 4650TIP3   OH235440   4.406   2.813  14.298 -0.0754  0.3806  0.3634
 4650TIP3    H135441   4.493   2.851  14.306  0.7362 -1.0919 -0.8434
 4650TIP3    H235442   4.353   2.883  14.259  1.5607  0.1561 -2.5574
 4651TIP3   OH235443   5.558   4.366   3.067  0.4900  0.3262 -0.5730
 4651TIP3    H135444   5.625   4.329   3.009  1.1661  1.6267 -0.6532
 4651TIP3    H235445   5.607   4.421   3.128 -0.6055  2.9176 -1.8537
 4652TIP3   OH235446   6.475   2.657   4.480 -0.3411  0.0667 -0.2463
 4652TIP3    H135447   6.479   2.587   4.414 -1.1040  0.1199 -0.3587
 4652TIP3    H235448   6.535   2.724   4.446  0.4851 -0.5629 -0.0829
 4653TIP3   OH235449   2.798   0.710  12.657  0.7887  0.1897 -0.5992
 4653TIP3    H135450   2.763   0.799  12.659  1.2471  0.4123 -1.6138
 4653TIP3    H235451   2.721   0.654  12.666  0.5696  0.6819  0.7113
 4654TIP3   OH235452   5.220   5.411   2.500  0.0085 -0.2703  0.0385
 4654TIP3    H135453   5.256   5.343   2.557  1.6521  0.2846 -0.2798
 4654TIP3    H235454   5.203   5.367   2.417  0.3343 -0.4710  0.0746
 4655TIP3   OH235455   1.052   1.540  13.730 -0.0323 -0.2582  0.2508
 4655TIP3    H135456   1.103   1.605  13.682 -0.5095 -0.0390  0.0313
 4655TIP3    H235457   1.112   1.508  13.798  0.1007  0.6755  0.5939
 4656TIP3   OH235458   2.894   2.348  14.969  0.6803  0.3295  0.5764
 4656TIP3    H135459   2.936   2.419  15.018  0.1569  1.0993 -0.0723
 4656TIP3    H235460   2.813   2.386  14.937  1.5140  0.2243 -1.8276
 4657TIP3   OH235461   0.295   0.873   2.401  0.8070 -0.0310  0.2692
 4657TIP3    H135462   0.253   0.895   2.318 -3.2061 -1.5293  1.6401
 4657TIP3    H235463   0.312   0.779   2.394 -0.2502 -0.3248  1.3218
 4658TIP3   OH235464   6.491   4.367  15.034 -0.8380 -0.0221  0.0732
 4658TIP3    H135465   6.509   4.279  14.999 -0.1087  0.4343 -0.7277
 4658TIP3    H235466   6.489   4.424  14.957  1.9843  1.2159  0.8092
 4659TIP3   OH235467   0.803   1.571  15.366  0.0472  0.3298 -0.0896
 4659TIP3    H135468   0.851   1.647  15.334  1.4172  0.0469  1.1749
 4659TIP3    H235469   0.814   1.574  15.461 -0.8373 -0.8215  0.0805
 4660TIP3   OH235470   4.005   4.817   3.775 -0.4386 -0.2202 -0.2034
 4660TIP3    H135471   4.029   4.729   3.744 -1.9152 -0.6885 -0.0843
 4660TIP3    H235472   4.042   4.821   3.863  0.6975 -0.2434 -0.6674
 4661TIP3   OH235473   2.569   5.721  15.241 -0.4379 -0.3559 -0.0640
 4661TIP3    H135474   2.553   5.648  15.300  1.4100 -1.2649 -0.6001
 4661TIP3    H235475   2.598   5.792  15.299  1.1180 -1.1586  0.1942
 4662TIP3   OH235476   3.718   1.965  12.534  0.0355 -0.2263 -0.3937
 4662TIP3    H135477   3.790   1.915  12.573  0.8187  1.4816  0.4719
 4662TIP3    H235478   3.760   2.019  12.467 -0.5157  0.3780 -0.2613
 4663TIP3   OH235479   1.484   5.768   2.743  0.0887 -0.6126 -0.1703
 4663TIP3    H135480   1.496   5.833   2.673  0.3815 -0.5159 -0.0298
 4663TIP3    H235481   1.390   5.753   2.745 -0.2266  1.1269  0.9615
 4664TIP3   OH235482   6.578   3.390  16.630  0.2257 -0.4815 -0.2018
 4664TIP3    H135483   6.504   3.450  16.621  0.3107 -0.5210 -1.2945
 4664TIP3    H235484   6.635   3.433  16.694  0.7780  1.1622 -1.6900
 4665TIP3   OH235485   0.704   1.774   0.382  0.0593 -0.0686 -0.3679
 4665TIP3    H135486   0.701   1.692   0.333 -0.2938  0.4449 -1.2316
 4665TIP3    H235487   0.622   1.776   0.431  0.7625 -0.9622  0.9201
 4666TIP3   OH235488   3.980   0.500   2.849 -0.2638  0.1415 -0.0725
 4666TIP3    H135489   3.946   0.429   2.904 -0.4377 -0.2347 -0.6513
 4666TIP3    H235490   4.005   0.569   2.910  1.3202 -0.9901  0.6440
 4667TIP3   OH235491   5.203   3.717  13.660 -0.0098 -0.3477 -0.4843
 4667TIP3    H135492   5.280   3.774  13.663 -0.8990  0.8768  0.0430
 4667TIP3    H235493   5.211   3.661  13.737  0.0838  0.1568 -0.1226
 4668TIP3   OH235494   1.975   3.405  15.150 -0.8409 -0.1859 -0.0437
 4668TIP3    H135495   1.979   3.309  15.147  1.8145 -0.1383 -1.7368
 4668TIP3    H235496   2.063   3.433  15.126 -0.8839  2.7276  2.6001
 4669TIP3   OH235497   0.380   2.621   2.222  0.7614 -0.2871 -0.8073
 4669TIP3    H135498   0.402   2.704   2.266 -0.7530  0.2683 -1.0321
 4669TIP3    H235499   0.455   2.565   2.238  0.6912  0.2264  1.6472
 4670TIP3   OH235500   4.029   1.546   1.500 -0.1653  0.3771 -0.0052
 4670TIP3    H135501   3.935   1.555   1.519  0.1186  2.7558  0.5202
 4670TIP3    H235502   4.070   1.541   1.586  0.2798  0.4979 -0.2070
 4671TIP3   OH235503   2.494   3.771  15.466  0.1050 -0.2950 -0.0157
 4671TIP3    H135504   2.533   3.857  15.479  1.2779 -0.6849 -0.7783
 4671TIP3    H235505   2.401   3.788  15.448  0.6810  0.9602 -2.0618
 4672TIP3   OH235506   1.629   1.473  12.204  0.3626 -0.6513 -0.6971
 4672TIP3    H135507   1.705   1.490  12.261 -0.2098 -1.1663  0.2545
 4672TIP3    H235508   1.562   1.535  12.235  0.2486 -0.5054 -1.2358
 4673TIP3   OH235509   3.108   3.905   6.046  0.4141 -0.0426 -0.5678
 4673TIP3    H135510   3.167   3.980   6.042 -0.1445  0.3597 -1.7048
 4673TIP3    H235511   3.134   3.858   6.125  1.1617  1.0220 -0.1618
 4674TIP3   OH235512   1.825   3.945   4.969 -0.3691  0.1925  0.2477
 4674TIP3    H135513   1.735   3.977   4.975 -0.2610  0.3963  0.7881
 4674TIP3    H235514   1.816   3.858   4.929 -0.6530  0.8695 -1.2348
 4675TIP3   OH235515   6.152   5.852  11.038  0.2458 -0.0693 -0.3952
 4675TIP3    H135516   6.223   5.876  10.979 -0.1313 -0.3491 -0.9695
 4675TIP3    H235517   6.072   5.866  10.987 -0.0343 -1.3688 -0.3415
 4676TIP3   OH235518   2.551   5.671  10.283 -0.5788  0.4653 -0.1730
 4676TIP3    H135519   2.540   5.581  10.252  0.3279 -0.7183  2.6607
 4676TIP3    H235520   2.507   5.672  10.368  0.2329  2.4488  0.2582
 4677TIP3   OH235521   0.787   0.311   4.955 -0.0026  0.2651 -0.2417
 4677TIP3    H135522   0.833   0.308   4.871 -0.0552  1.0174 -0.3077
 4677TIP3    H235523   0.852   0.347   5.016 -0.4000  1.0636 -0.2753
 4678TIP3   OH235524   4.268   0.204  16.073  0.2141  0.0818 -0.2170
 4678TIP3    H135525   4.283   0.161  16.157  1.6769 -0.2333 -0.6218
 4678TIP3    H235526   4.291   0.296  16.089  1.7039 -0.2108 -0.5729
 4679TIP3   OH235527   6.142   3.259   5.663 -0.6291 -0.0102  0.0434
 4679TIP3    H135528   6.150   3.189   5.728  0.1737 -0.3461 -0.4093
 4679TIP3    H235529   6.229   3.267   5.625 -0.8512  0.8616 -0.2988
 4680TIP3   OH235530   6.456   0.131  11.425  0.4415 -0.5028  0.5783
 4680TIP3    H135531   6.409   0.051  11.402  1.2093 -1.0529  0.8641
 4680TIP3    H235532   6.538   0.126  11.375 -0.7161  1.5414 -1.6963
 4681TIP3   OH235533   2.672   1.101  12.073 -0.6242 -0.7165  0.1138
 4681TIP3    H135534   2.580   1.106  12.098 -1.0801 -1.0511 -1.3911
 4681TIP3    H235535   2.675   1.138  11.984  0.9083  0.4603  0.6023
 4682TIP3   OH235536   2.122   5.471   5.699  0.6494  0.0970  0.4678
 4682TIP3    H135537   2.157   5.456   5.611  1.1560  2.4872  0.1732
 4682TIP3    H235538   2.047   5.529   5.685  0.6674  0.4181  1.5904
 4683TIP3   OH235539   1.247   2.500  12.595 -0.2586 -0.0354 -0.1667
 4683TIP3    H135540   1.184   2.564  12.562 -0.2328 -0.2147 -0.5713
 4683TIP3    H235541   1.332   2.536  12.572 -0.2097  0.2119  0.3896
 4684TIP3   OH235542   1.853   1.323   0.323  0.3678 -0.1736 -0.1901
 4684TIP3    H135543   1.861   1.286   0.412  2.0173 -1.1182 -0.6901
 4684TIP3    H235544   1.762   1.352   0.318  0.4546  0.7081  2.1073
 4685TIP3   OH235545   2.921   1.003  17.209 -0.2357 -0.0910  0.0246
 4685TIP3    H135546   2.939   1.085  17.164 -1.5499 -0.3757 -1.0882
 4685TIP3    H235547   2.971   1.009  17.290  1.8323  0.6401 -1.2299
 4686TIP3   OH235548   2.442   6.594   4.521  0.3772  0.4525  0.5027
 4686TIP3    H135549   2.475   6.683   4.519  0.2011  0.5119 -0.3933
 4686TIP3    H235550   2.498   6.548   4.584 -0.3178  1.4773  1.9134
 4687TIP3   OH235551   3.206   3.758   6.235  0.0950 -0.3849  0.0695
 4687TIP3    H135552   3.286   3.779   6.283  1.4152  0.4663 -2.3672
 4687TIP3    H235553   3.212   3.663   6.220 -1.0373 -0.9605  2.6315
 4688TIP3   OH235554   1.875   0.132   3.885 -0.3846 -0.4413 -0.0507
 4688TIP3    H135555   1.813   0.155   3.816 -0.4060 -1.3867 -0.3566
 4688TIP3    H235556   1.904   0.044   3.863  0.9142 -0.0968  0.2135
 4689TIP3   OH235557   3.439   2.874  13.724  0.0415 -0.6476  0.4950
 4689TIP3    H135558   3.511   2.819  13.692 -0.8996 -0.7984 -1.5571
 4689TIP3    H235559   3.428   2.940  13.655  0.2531  1.3507  2.2673
 4690TIP3   OH235560   0.339   1.743  15.840  0.3168  0.0520  0.4922
 4690TIP3    H135561   0.413   1.774  15.789 -0.5024  0.4656 -0.4958
 4690TIP3    H235562   0.344   1.791  15.923  1.4771 -0.3764  0.6856
 4691TIP3   OH235563   3.409   3.869   6.435 -0.3800  0.2131 -0.7261
 4691TIP3    H135564   3.492   3.823   6.419 -0.5440 -0.1445 -0.5495
 4691TIP3    H235565   3.435   3.961   6.444  0.0046  0.0968 -0.6128
 4692TIP3   OH235566   3.272   2.196  10.159 -0.0940 -0.1084 -0.6238
 4692TIP3    H135567   3.338   2.263  10.178 -0.4046  0.3683 -1.1819
 4692TIP3    H235568   3.284   2.131  10.228  1.0539 -0.0992 -0.7849
 4693TIP3   OH235569   6.293   2.175   6.086 -0.2963  0.1840  0.5187
 4693TIP3    H135570   6.285   2.114   6.159  0.3624 -0.2911  0.2039
 4693TIP3    H235571   6.259   2.127   6.010  0.2694  0.1774  0.2596
 4694TIP3   OH235572   0.741   4.841   1.307  0.0540 -0.0029 -0.6150
 4694TIP3    H135573   0.652   4.811   1.289 -1.0825  3.1978 -0.9765
 4694TIP3    H235574   0.778   4.861   1.221  0.2701  0.7789 -0.3523
 4695TIP3   OH235575   5.863   0.476  12.654 -0.0522  0.2930 -0.4736
 4695TIP3    H135576   5.908   0.558  12.674 -0.0369  0.5595 -1.5721
 4695TIP3    H235577   5.924   0.407  12.680  0.1941  0.6349 -0.1503
 4696TIP3   OH235578   0.474   0.673   1.779 -0.0556  0.2871  0.2588
 4696TIP3    H135579   0.379   0.669   1.774 -0.0846 -4.2501 -0.2472
 4696TIP3    H235580   0.503   0.683   1.689 -0.0802  0.5241  0.2783
 4697TIP3   OH235581   5.282   0.189  11.261  0.6213  0.7098  0.0399
 4697TIP3    H135582   5.326   0.209  11.343 -0.9668 -0.1647  1.1605
 4697TIP3    H235583   5.267   0.094  11.265 -1.9990  1.0617  0.0907
 4698TIP3   OH235584   4.031   3.666  12.616  0.0818  0.5902 -0.1546
 4698TIP3    H135585   4.030   3.613  12.536  2.2575  1.7270 -1.0232
 4698TIP3    H235586   4.105   3.631  12.666 -0.6601  0.5338  0.9434
 4699TIP3   OH235587   5.123   0.443  12.184  0.1387 -0.5486  0.0334
 4699TIP3    H135588   5.053   0.418  12.245 -1.5172  1.6237 -0.8636
 4699TIP3    H235589   5.175   0.507  12.232 -0.3254  0.1034 -0.3156
 4700TIP3   OH235590   1.345   1.658  15.842  0.6314 -0.4047 -0.3005
 4700TIP3    H135591   1.394   1.645  15.923 -2.7045 -0.0938  1.9768
 4700TIP3    H235592   1.369   1.747  15.813  0.9550 -0.0386  1.0381
 4701TIP3   OH235593   3.363   1.543   5.022 -0.0928 -0.1698 -0.3575
 4701TIP3    H135594   3.321   1.474   4.970 -0.0314 -1.4374  1.1989
 4701TIP3    H235595   3.301   1.616   5.019  0.4992  0.3289 -3.2500
 4702TIP3   OH235596   1.583   5.715   2.311  0.1451 -0.1359 -0.0422
 4702TIP3    H135597   1.574   5.808   2.289 -0.2598  0.0138  0.7474
 4702TIP3    H235598   1.585   5.671   2.225 -2.5380  0.3368 -0.4258
 4703TIP3   OH235599   0.967   5.097   5.247  0.2697 -0.2555  0.3352
 4703TIP3    H135600   0.922   5.158   5.188  0.2587 -0.5648  0.0173
 4703TIP3    H235601   0.931   5.011   5.225  1.5807 -0.6256 -0.4999
 4704TIP3   OH235602   6.153   2.423   4.047  0.2652 -0.1539  0.5507
 4704TIP3    H135603   6.186   2.334   4.057  1.6412  0.2401 -0.2839
 4704TIP3    H235604   6.100   2.420   3.967  0.6847 -0.1332  0.2668
 4705TIP3   OH235605   4.378   2.230  16.654 -1.2265  0.0676 -0.2152
 4705TIP3    H135606   4.442   2.286  16.696 -0.6936  0.0749 -1.0099
 4705TIP3    H235607   4.418   2.206  16.570 -2.5939  0.7227 -1.0892
 4706TIP3   OH235608   4.377   5.353   0.230 -0.5373 -0.2163 -0.3049
 4706TIP3    H135609   4.397   5.413   0.158  0.8039 -1.1870 -0.7656
 4706TIP3    H235610   4.284   5.332   0.218 -0.7377  0.8731 -0.8002
 4707TIP3   OH235611   3.726   2.672  11.599 -0.0883  0.5963 -0.1215
 4707TIP3    H135612   3.656   2.737  11.593 -1.6412 -1.0584 -1.0875
 4707TIP3    H235613   3.758   2.679  11.689 -1.2527  1.6473  0.2348
 4708TIP3   OH235614   4.675   5.866  10.552 -0.1588  0.5118 -0.6169
 4708TIP3    H135615   4.687   5.876  10.458 -3.0796 -0.4398 -1.1885
 4708TIP3    H235616   4.584   5.889  10.568 -0.2595 -1.0876  1.6736
 4709TIP3   OH235617   3.523   1.434   3.225 -0.4755  0.0746 -0.4856
 4709TIP3    H135618   3.568   1.358   3.187  0.2365  0.1311  0.1990
 4709TIP3    H235619   3.435   1.402   3.245 -0.0473 -0.7281  0.2139
 4710TIP3   OH235620   1.669   4.732   0.154  0.4537 -0.3154 -0.0537
 4710TIP3    H135621   1.715   4.789   0.093  2.2151 -1.6515 -0.0608
 4710TIP3    H235622   1.633   4.662   0.100  0.8239 -0.7600  0.2647
 4711TIP3   OH235623   1.642   5.421  13.385  0.0373 -0.3344  0.4487
 4711TIP3    H135624   1.602   5.367  13.316  0.0347  1.6076 -1.1858
 4711TIP3    H235625   1.728   5.383  13.399  0.3801 -0.2918 -1.3001
 4712TIP3   OH235626   5.868   0.199   2.514  0.8844 -0.2582 -0.3090
 4712TIP3    H135627   5.841   0.135   2.448 -0.7763  0.6981 -0.6268
 4712TIP3    H235628   5.873   0.149   2.595 -0.0757 -0.8649 -0.6070
 4713TIP3   OH235629   6.543   1.351  15.853  0.3630 -0.3445 -0.0444
 4713TIP3    H135630   6.573   1.434  15.891  0.2853 -0.6357  0.6867
 4713TIP3    H235631   6.472   1.376  15.794 -2.5404 -0.1499  3.2103
 4714TIP3   OH235632   3.509   5.383  12.656  0.9515  0.6935 -0.3104
 4714TIP3    H135633   3.577   5.318  12.674 -1.1512 -1.4783  0.2811
 4714TIP3    H235634   3.514   5.397  12.562  0.9456 -0.9920 -0.6013
 4715TIP3   OH235635   4.676   0.690   0.586  0.4186 -0.1503  0.2811
 4715TIP3    H135636   4.606   0.630   0.611  0.3931 -0.7299 -1.0890
 4715TIP3    H235637   4.726   0.703   0.666  0.2464 -1.7766  0.6940
 4716TIP3   OH235638   1.289   5.861   4.783 -0.2124  0.2493 -0.3735
 4716TIP3    H135639   1.197   5.885   4.797 -0.2566  0.1628 -0.5157
 4716TIP3    H235640   1.311   5.807   4.858 -0.3313  0.1203 -0.4318
 4717TIP3   OH235641   2.252   5.804  11.654 -0.1496 -0.3427 -0.6022
 4717TIP3    H135642   2.183   5.821  11.718 -0.5160 -1.8476 -0.5640
 4717TIP3    H235643   2.279   5.891  11.625  0.8802  0.4948  2.4681
 4718TIP3   OH235644   3.125   4.618  13.813  0.2976  0.5095 -0.1949
 4718TIP3    H135645   3.105   4.593  13.723 -1.3610  0.9379  0.0362
 4718TIP3    H235646   3.182   4.695  13.804  1.4039 -0.3428 -0.8536
 4719TIP3   OH235647   3.787   1.381  11.401 -0.1524 -0.5785 -0.0772
 4719TIP3    H135648   3.826   1.421  11.323 -2.4146 -0.8766 -1.4494
 4719TIP3    H235649   3.788   1.287  11.383  0.5533 -0.7636  0.8793
 4720TIP3   OH235650   4.623   3.354   4.254 -0.2863 -0.3546 -0.0011
 4720TIP3    H135651   4.710   3.393   4.251  0.2296 -0.9153  3.3686
 4720TIP3    H235652   4.639   3.260   4.245 -0.4699 -0.4802  0.8586
 4721TIP3   OH235653   0.099   3.304   1.790 -0.1302 -0.2285 -0.4134
 4721TIP3    H135654   0.104   3.385   1.842  0.6240 -0.1482 -0.5902
 4721TIP3    H235655   0.169   3.314   1.725 -1.5338  0.0036 -1.9369
 4722TIP3   OH235656   3.737   3.321  15.321  0.1598  0.9484  0.0510
 4722TIP3    H135657   3.788   3.294  15.245 -0.8472  1.3625 -0.7942
 4722TIP3    H235658   3.667   3.375  15.285 -0.8033  0.5012  1.1892
 4723TIP3   OH235659   2.714   4.142  14.056 -0.5279  0.3718 -0.7745
 4723TIP3    H135660   2.764   4.069  14.093  1.8405  2.9609  1.6476
 4723TIP3    H235661   2.725   4.133  13.961  1.4918 -1.2423 -0.4548
 4724TIP3   OH235662   6.530   1.136   6.530 -0.8502  0.3286 -0.2271
 4724TIP3    H135663   6.465   1.087   6.581  1.2406  0.4013  2.7153
 4724TIP3    H235664   6.602   1.075   6.517 -0.1498  1.2080 -0.6026
 4725TIP3   OH235665   3.795   5.365   4.883  0.0762 -0.6184  0.1341
 4725TIP3    H135666   3.870   5.384   4.939 -0.3968  0.0160  0.5671
 4725TIP3    H235667   3.833   5.338   4.800  0.7932  0.0448  0.2347
 4726TIP3   OH235668   0.733   0.936  17.090 -0.4389  0.7850 -0.1848
 4726TIP3    H135669   0.792   0.882  17.038 -1.5269  0.4507 -1.1071
 4726TIP3    H235670   0.790   0.982  17.151  0.5452 -1.3444  0.5896
 4727TIP3   OH235671   1.565   0.511   1.660  0.6388 -0.3581  0.0171
 4727TIP3    H135672   1.570   0.437   1.600 -0.0757  0.0905 -0.6235
 4727TIP3    H235673   1.651   0.553   1.654  0.5134 -0.2054 -0.8551
 4728TIP3   OH235674   1.138   5.936   3.308 -0.0087 -0.0324  0.1609
 4728TIP3    H135675   1.162   5.927   3.400  0.6468 -0.0105 -0.0009
 4728TIP3    H235676   1.219   5.965   3.265 -0.4480  0.4916 -0.3298
 4729TIP3   OH235677   4.159   1.933   3.898  0.3086 -0.5617  0.3233
 4729TIP3    H135678   4.210   1.852   3.908  2.4066  0.7936  1.5077
 4729TIP3    H235679   4.119   1.947   3.984  1.2310  0.4081  0.6204
 4730TIP3   OH235680   5.514   0.385  16.138  0.1564 -0.6551 -0.0214
 4730TIP3    H135681   5.562   0.302  16.136  1.3277  0.0204 -1.1592
 4730TIP3    H235682   5.529   0.424  16.052  0.0653  0.9812  0.6712
 4731TIP3   OH235683   3.337   4.407  11.111 -0.4482  0.5944  0.0676
 4731TIP3    H135684   3.430   4.397  11.127 -0.8354 -0.6886  1.8412
 4731TIP3    H235685   3.322   4.366  11.026  0.6609  1.3149 -0.4921
 4732TIP3   OH235686   5.389   3.216  14.811 -0.7284  0.0095 -0.0081
 4732TIP3    H135687   5.387   3.126  14.841 -0.3679 -0.8510 -2.3461
 4732TIP3    H235688   5.350   3.213  14.724  1.3462  1.6912 -1.0932
 4733TIP3   OH235689   4.076   2.429   2.002 -0.2191 -0.4394  0.0022
 4733TIP3    H135690   4.170   2.426   2.021 -0.3434 -2.1920  0.4741
 4733TIP3    H235691   4.035   2.456   2.084 -0.1631  0.0041 -0.1123
 4734TIP3   OH235692   0.805   6.448   4.701  0.2881  0.1104  0.3397
 4734TIP3    H135693   0.871   6.464   4.768 -0.6384 -0.0891  1.3223
 4734TIP3    H235694   0.727   6.493   4.734 -0.2821 -0.2961 -0.4377
 4735TIP3   OH235695   2.107   3.991  14.263 -0.7358 -0.4084  0.2471
 4735TIP3    H135696   2.121   3.987  14.169 -2.7072  0.3912 -0.1457
 4735TIP3    H235697   2.136   3.906  14.296 -3.0754 -2.0777 -1.5920
 4736TIP3   OH235698   3.024   1.735   3.735  0.2892  0.1484 -0.3050
 4736TIP3    H135699   2.996   1.645   3.720 -0.3612  0.5395 -1.6158
 4736TIP3    H235700   3.026   1.774   3.648 -2.2396  2.1809  0.4064
 4737TIP3   OH235701   5.862   5.529   5.933 -0.3644  0.0079 -0.3635
 4737TIP3    H135702   5.775   5.561   5.907 -1.0084  0.3165  1.9202
 4737TIP3    H235703   5.851   5.503   6.024  1.5569 -1.5700 -0.5232
 4738TIP3   OH235704   0.289   3.151  11.122 -0.0738  0.0856  0.1692
 4738TIP3    H135705   0.201   3.186  11.109 -0.1175  0.6056  1.6722
 4738TIP3    H235706   0.286   3.063  11.083 -0.9596  0.4583 -0.6360
 4739TIP3   OH235707   1.681   4.200   2.868 -0.8615 -0.5793  0.6528
 4739TIP3    H135708   1.638   4.281   2.895 -0.0797  0.1171 -0.1463
 4739TIP3    H235709   1.772   4.211   2.896 -0.5278 -0.7536 -0.3321
 4740TIP3   OH235710   2.141   2.074   4.616  0.4632  0.7611  0.2502
 4740TIP3    H135711   2.108   2.049   4.703 -0.4074  0.7082 -0.0870
 4740TIP3    H235712   2.162   2.167   4.625 -2.1585  1.4597 -0.1880
 4741TIP3   OH235713   1.155   5.684  16.905 -0.2568 -0.5873  0.4854
 4741TIP3    H135714   1.174   5.774  16.881  0.2862 -0.7696  0.2182
 4741TIP3    H235715   1.070   5.666  16.864 -0.3881 -0.1892  0.5783
 4742TIP3   OH235716   5.701   1.445   4.571  0.6307  0.3871 -0.2531
 4742TIP3    H135717   5.772   1.505   4.591  2.1414 -1.0217 -1.1063
 4742TIP3    H235718   5.708   1.376   4.636  0.1624  0.1216 -0.4744
 4743TIP3   OH235719   6.124   6.120   5.649 -0.0771 -0.8101  0.4972
 4743TIP3    H135720   6.144   6.206   5.610 -1.2336 -0.8374 -0.2052
 4743TIP3    H235721   6.098   6.140   5.739 -1.0880 -0.3097  0.1187
 4744TIP3   OH235722   2.285   0.737   2.431  0.3070  0.4321  0.2703
 4744TIP3    H135723   2.275   0.667   2.495 -0.7601 -0.5724 -0.9245
 4744TIP3    H235724   2.252   0.815   2.475 -2.6881 -0.6768  0.2296
 4745TIP3   OH235725   4.879   5.496   1.584  0.3862 -0.0865  0.0288
 4745TIP3    H135726   4.824   5.423   1.613 -0.9094  1.0511  0.5410
 4745TIP3    H235727   4.861   5.505   1.491 -1.1544  0.9332  0.3863
 4746TIP3   OH235728   4.885   0.764   4.592  0.3313  0.0358 -0.4572
 4746TIP3    H135729   4.966   0.761   4.540 -0.0957 -1.8456 -1.0995
 4746TIP3    H235730   4.815   0.759   4.527 -0.2623 -0.0452  0.1754
 4747TIP3   OH235731   6.305   5.865   5.565  0.3129  0.9045  0.3196
 4747TIP3    H135732   6.309   5.851   5.659  0.6581 -0.5860  0.1074
 4747TIP3    H235733   6.347   5.788   5.527 -0.3207  1.2016 -1.0666
 4748TIP3   OH235734   5.651   5.747   1.934 -0.3345 -0.0363 -0.3368
 4748TIP3    H135735   5.592   5.676   1.958  1.5486 -1.9229 -0.9366
 4748TIP3    H235736   5.645   5.752   1.838  0.6247 -0.4306 -0.4285
 4749TIP3   OH235737   5.823   3.419   2.122  0.2241  0.0419 -0.0426
 4749TIP3    H135738   5.878   3.426   2.200 -0.7970 -1.5638  0.8861
 4749TIP3    H235739   5.884   3.416   2.049  1.2591  0.3955  0.7834
 4750TIP3   OH235740   3.371   3.615  12.496  0.1180  0.6394  0.4617
 4750TIP3    H135741   3.412   3.649  12.416 -1.0519  1.2030  0.0768
 4750TIP3    H235742   3.296   3.564  12.465  1.0492 -1.1945  1.1083
 4751TIP3   OH235743   4.057   5.377  10.886 -0.5134 -0.2079  0.2890
 4751TIP3    H135744   4.070   5.287  10.915 -1.2648  0.2332  2.1491
 4751TIP3    H235745   3.990   5.371  10.818 -1.8109 -0.9468  1.5593
 4752TIP3   OH235746   1.694   4.713   2.550  0.0058  0.1276  0.3799
 4752TIP3    H135747   1.706   4.673   2.636  0.7741 -0.6618 -0.0740
 4752TIP3    H235748   1.599   4.724   2.542 -0.0843  0.0776  1.2681
 4753TIP3   OH235749   0.149   0.654  16.694 -0.3803  0.2817 -0.4059
 4753TIP3    H135750   0.085   0.689  16.756 -0.6823  0.0293 -0.5777
 4753TIP3    H235751   0.207   0.728  16.675 -0.0206  0.2539  0.5155
 4754TIP3   OH235752   5.169   5.381   1.397 -0.3537 -0.1125 -0.2493
 4754TIP3    H135753   5.160   5.350   1.487 -1.0105 -0.7345 -0.5198
 4754TIP3    H235754   5.258   5.416   1.393  0.1520 -1.2621  0.2991
 4755TIP3   OH235755   0.078   0.122  11.555  0.3522  0.1037 -0.3993
 4755TIP3    H135756   0.116   0.078  11.631  1.1707  0.3189 -0.6726
 4755TIP3    H235757   0.021   0.057  11.515  2.8727 -1.3845 -1.8219
 4756TIP3   OH235758   5.489   0.579   6.636 -0.1834 -0.4362  0.3983
 4756TIP3    H135759   5.548   0.628   6.694  0.3195 -0.7908  0.1914
 4756TIP3    H235760   5.542   0.506   6.605 -0.8275 -0.9175  0.4309
 4757TIP3   OH235761   0.365   6.800   2.357 -0.1593  0.0192 -0.3304
 4757TIP3    H135762   0.323   6.734   2.302 -0.1347  1.5380 -2.2502
 4757TIP3    H235763   0.293   6.850   2.394 -0.1321  0.1566 -0.4634
 4758TIP3   OH235764   4.818   2.743   6.582  0.0685  0.1608 -0.0121
 4758TIP3    H135765   4.907   2.709   6.583 -0.0943 -0.2900  0.9898
 4758TIP3    H235766   4.791   2.739   6.491  0.4423 -1.3984 -0.0777
 4759TIP3   OH235767   0.538   4.139  13.483 -0.3836  0.1102 -0.1861
 4759TIP3    H135768   0.527   4.228  13.516 -0.0551  1.0437 -2.3712
 4759TIP3    H235769   0.449   4.107  13.469 -0.5346  1.1296 -1.8101
 4760TIP3   OH235770   3.614   5.027  13.832  0.4793 -0.7899  0.4907
 4760TIP3    H135771   3.619   5.122  13.826  0.1279 -0.8287 -0.5975
 4760TIP3    H235772   3.566   5.010  13.913 -0.1285 -0.0226  0.2962
 4761TIP3   OH235773   2.963   6.213   5.092  0.2614 -0.0464 -0.3946
 4761TIP3    H135774   2.950   6.129   5.138 -0.7046  0.2729 -0.0501
 4761TIP3    H235775   3.051   6.241   5.118  0.5116 -0.8457 -0.3436
 4762TIP3   OH235776   4.780   2.736  12.159 -0.0062  0.0199  0.6365
 4762TIP3    H135777   4.820   2.770  12.239  0.7068 -0.7998  0.6418
 4762TIP3    H235778   4.847   2.749  12.091  0.1598 -1.0501  0.5731
 4763TIP3   OH235779   1.403   1.593  14.716 -0.2194 -0.0490 -0.3589
 4763TIP3    H135780   1.448   1.631  14.641 -0.6331  0.2186 -0.4782
 4763TIP3    H235781   1.470   1.583  14.783  0.3527 -1.1087 -1.0601
 4764TIP3   OH235782   4.490   6.387   0.390 -0.0005  0.2664 -0.0180
 4764TIP3    H135783   4.420   6.430   0.341 -0.1010  2.9034  2.1567
 4764TIP3    H235784   4.450   6.308   0.427 -1.3453  0.8560 -0.1827
 4765TIP3   OH235785   2.104   5.606  12.410 -0.0695  0.3729  0.0746
 4765TIP3    H135786   2.138   5.665  12.477  0.4776 -0.6754  0.7501
 4765TIP3    H235787   2.178   5.549  12.388 -0.7198 -0.4072 -0.1611
 4766TIP3   OH235788   4.435   3.735  13.108  0.2352  0.5786 -0.1284
 4766TIP3    H135789   4.483   3.654  13.093 -1.4907 -0.7959  1.3092
 4766TIP3    H235790   4.489   3.784  13.171  0.8107  0.0931 -0.2416
 4767TIP3   OH235791   3.965   5.781   2.914  0.0842 -0.3732  0.3276
 4767TIP3    H135792   3.990   5.765   3.005 -0.0225  0.4352  0.5062
 4767TIP3    H235793   4.038   5.747   2.863  1.4904  1.7093  0.8340
 4768TIP3   OH235794   4.651   0.638  13.696 -0.0921  0.0698 -0.6112
 4768TIP3    H135795   4.622   0.730  13.696  2.2740  0.9032 -0.1744
 4768TIP3    H235796   4.684   0.624  13.784 -0.8150 -1.3866 -0.5445
 4769TIP3   OH235797   5.342   1.328  15.713 -0.2382 -0.0129 -0.2693
 4769TIP3    H135798   5.422   1.353  15.759 -0.2870 -0.8257  0.2810
 4769TIP3    H235799   5.324   1.239  15.742  0.4419 -1.0874 -2.8394
 4770TIP3   OH235800   6.804   1.953   5.664 -0.4920 -0.2922 -0.4194
 4770TIP3    H135801   6.861   1.890   5.708  1.7565  1.1180 -1.0966
 4770TIP3    H235802   6.830   2.038   5.700 -1.4936  0.5052 -1.4776
 4771TIP3   OH235803   2.686   3.405   0.453  0.1410 -0.4775 -0.6139
 4771TIP3    H135804   2.714   3.320   0.485  1.1142  0.2004  0.4184
 4771TIP3    H235805   2.674   3.393   0.359 -2.8125 -2.5398 -0.0916
 4772TIP3   OH235806   3.488   0.772  16.522 -0.3110 -0.1320 -0.3151
 4772TIP3    H135807   3.561   0.765  16.460 -0.3133 -0.3385 -0.2933
 4772TIP3    H235808   3.498   0.860  16.559  0.5712 -0.5427  0.4786
 4773TIP3   OH235809   3.547   0.490  17.140  0.7298  0.1178 -0.1810
 4773TIP3    H135810   3.455   0.469  17.123 -0.0147  1.9140  1.3783
 4773TIP3    H235811   3.579   0.418  17.194  0.4604 -0.8391 -1.2530
 4774TIP3   OH235812   6.783   4.918  12.382  0.5677 -0.1742 -0.0885
 4774TIP3    H135813   6.866   4.935  12.426  1.2213  0.2095 -1.4393
 4774TIP3    H235814   6.717   4.944  12.446  1.4924  0.8389  0.4942
 4775TIP3   OH235815   2.715   6.440   0.503  0.2838  0.1915 -0.2406
 4775TIP3    H135816   2.785   6.421   0.565  0.9254 -0.1283 -1.0433
 4775TIP3    H235817   2.758   6.442   0.418 -0.3825  1.7536 -0.5748
 4776TIP3   OH235818   5.946   2.908   0.790  1.0503  0.2745  0.1382
 4776TIP3    H135819   5.861   2.864   0.795  1.9609 -1.5875  0.0182
 4776TIP3    H235820   5.959   2.944   0.878 -0.3624  1.6720 -0.1695
 4777TIP3   OH235821   1.605   5.253  11.450 -0.1294 -0.0029  0.1890
 4777TIP3    H135822   1.677   5.277  11.509  0.8034  0.3261 -1.0558
 4777TIP3    H235823   1.647   5.207  11.378 -1.0881  0.7715 -0.8903
 4778TIP3   OH235824   6.438   4.425   4.766  0.1596 -0.6592 -0.2507
 4778TIP3    H135825   6.366   4.471   4.721 -0.9028 -0.8083  1.2311
 4778TIP3    H235826   6.416   4.333   4.757 -0.4044 -0.6748  1.0534
 4779TIP3   OH235827   3.359   2.513   6.337 -0.1608 -0.0267 -0.0380
 4779TIP3    H135828   3.314   2.486   6.417 -0.7490 -1.2275 -0.7487
 4779TIP3    H235829   3.439   2.460   6.335  0.1545  0.4293  0.0342
 4780TIP3   OH235830   1.142   6.606   4.751 -0.5445  0.4445 -0.0636
 4780TIP3    H135831   1.079   6.551   4.798 -0.8977  1.9998  1.3858
 4780TIP3    H235832   1.091   6.682   4.724  0.7298  1.9016  1.4219
 4781TIP3   OH235833   2.703   4.826  16.926  0.3714 -0.2878  0.4290
 4781TIP3    H135834   2.759   4.885  16.975  0.6387 -0.8012  0.7531
 4781TIP3    H235835   2.728   4.738  16.956 -0.9079 -0.5166  0.9232
 4782TIP3   OH235836   3.785   2.285  13.841  0.3221  0.1448 -0.3614
 4782TIP3    H135837   3.699   2.252  13.868 -0.4950  1.0121 -1.7434
 4782TIP3    H235838   3.843   2.264  13.914 -0.9308 -0.9990  0.3613
 4783TIP3   OH235839   4.871   0.029  13.959 -0.1241  0.2672 -0.2629
 4783TIP3    H135840   4.898  -0.060  13.982 -2.0234  0.0032  1.2736
 4783TIP3    H235841   4.928   0.086  14.011  0.3893 -0.1086 -0.4190
 4784TIP3   OH235842   6.072   5.150  13.069 -0.2071  0.0878 -0.2510
 4784TIP3    H135843   6.128   5.226  13.059  2.2538 -1.2983  1.8408
 4784TIP3    H235844   6.069   5.110  12.981  0.8220  1.0240 -0.7296
 4785TIP3   OH235845   1.441   1.226   1.487  0.3059 -0.2093  0.2381
 4785TIP3    H135846   1.427   1.272   1.569  2.3460  2.5350 -0.8164
 4785TIP3    H235847   1.374   1.260   1.428  1.0808  0.5580 -0.2149
 4786TIP3   OH235848   6.410   6.166   0.846 -0.0720 -1.0305 -0.3383
 4786TIP3    H135849   6.372   6.254   0.838  2.9834  0.5765  0.9068
 4786TIP3    H235850   6.433   6.142   0.756  0.9304  0.4417 -0.5194
 4787TIP3   OH235851   0.576   4.469   4.050  0.0930  0.1725  0.7432
 4787TIP3    H135852   0.610   4.511   4.129 -0.2719 -2.2132  2.2672
 4787TIP3    H235853   0.654   4.440   4.002  0.3139  1.5392  0.2513
 4788TIP3   OH235854   3.991   6.596   5.835  0.1214 -0.4215  0.5035
 4788TIP3    H135855   4.058   6.656   5.869 -1.1492  0.2071  1.9729
 4788TIP3    H235856   3.950   6.645   5.764 -0.2239  0.0467  1.0228
 4789TIP3   OH235857   0.366   0.460  12.589 -0.2873 -0.3060  0.1109
 4789TIP3    H135858   0.414   0.451  12.671 -0.4894  0.8045  0.3663
 4789TIP3    H235859   0.286   0.507  12.613  0.2148  1.1116 -0.9210
 4790TIP3   OH235860   5.714   6.323   1.658 -0.9886  0.4714  0.2237
 4790TIP3    H135861   5.787   6.261   1.655 -1.1002  0.3725 -0.4414
 4790TIP3    H235862   5.636   6.270   1.645 -0.9314  1.0317 -3.0495
 4791TIP3   OH235863   4.924   6.818   2.139 -0.3494 -0.0473 -0.3527
 4791TIP3    H135864   4.907   6.793   2.230 -0.0904 -0.1680 -0.3339
 4791TIP3    H235865   4.840   6.849   2.106 -0.0385  1.8009  0.4902
 4792TIP3   OH235866   6.294   0.929   5.574  0.0346  0.2144 -0.7074
 4792TIP3    H135867   6.317   0.915   5.666 -1.5721 -1.3467 -0.4815
 4792TIP3    H235868   6.362   0.987   5.540  1.3291 -0.1490  1.1469
 4793TIP3   OH235869   3.547   3.372   4.392  0.5237 -0.2071 -0.4549
 4793TIP3    H135870   3.452   3.370   4.395  0.5339  0.1096  1.7422
 4793TIP3    H235871   3.573   3.280   4.387  0.1268 -0.2874 -1.2610
 4794TIP3   OH235872   1.888   0.169   2.157 -0.4524 -0.0876 -0.0695
 4794TIP3    H135873   1.878   0.074   2.146 -0.4117 -0.0400 -0.5364
 4794TIP3    H235874   1.802   0.204   2.138 -0.4781 -0.0349  0.1480
 4795TIP3   OH235875   0.689   3.884   5.478 -0.5575 -0.0555 -0.1113
 4795TIP3    H135876   0.679   3.931   5.561  1.8921 -0.3413  0.3988
 4795TIP3    H235877   0.634   3.806   5.488 -1.3315  0.5751  0.6917
 4796TIP3   OH235878   4.920   0.284  17.286 -0.0520  0.3304  0.5043
 4796TIP3    H135879   4.935   0.352  17.221  1.5659 -1.3511 -1.0185
 4796TIP3    H235880   4.948   0.203  17.243 -1.1577 -1.2144  2.4838
 4797TIP3   OH235881   5.840   6.346   0.842 -0.2354 -0.2386 -0.0411
 4797TIP3    H135882   5.768   6.283   0.849 -1.8488  1.5105 -0.0495
 4797TIP3    H235883   5.797   6.429   0.821  1.7532  1.0075  0.5404
 4798TIP3   OH235884   4.540   5.708   6.284  0.5970 -0.0395  0.3714
 4798TIP3    H135885   4.460   5.687   6.237  0.2474  0.5030  0.7102
 4798TIP3    H235886   4.554   5.633   6.342  1.0827 -0.7543 -0.6406
 4799TIP3   OH235887   3.941   6.370   0.063 -0.2698  0.7781  0.1740
 4799TIP3    H135888   3.888   6.354  -0.015 -0.4217 -2.4886  0.7985
 4799TIP3    H235889   3.907   6.452   0.099 -3.4861 -0.0938 -0.5854
 4800TIP3   OH235890   6.147   6.080   2.831 -0.3192 -0.1747  0.7658
 4800TIP3    H135891   6.095   6.136   2.774  0.0010  0.1515  0.7885
 4800TIP3    H235892   6.216   6.045   2.774 -0.7137 -0.8269  0.6685
 4801TIP3   OH235893   4.321   1.419  17.155  0.5392  0.6320 -0.0275
 4801TIP3    H135894   4.310   1.325  17.142 -0.1924  0.8643 -1.2777
 4801TIP3    H235895   4.416   1.432  17.157  0.6517 -0.0573 -0.5234
 4802TIP3   OH235896   4.369   4.165   3.047  0.9088 -0.3851  0.5086
 4802TIP3    H135897   4.358   4.257   3.025 -0.4203 -0.0179  2.3823
 4802TIP3    H235898   4.310   4.118   2.988 -0.2176  0.2381  1.0994
 4803TIP3   OH235899   0.181   4.279  16.930 -0.4002  0.3381 -0.0509
 4803TIP3    H135900   0.154   4.187  16.938  0.9157  0.0745  1.9648
 4803TIP3    H235901   0.160   4.302  16.839 -0.4631 -2.0569 -0.7061
 4804TIP3   OH235902   1.254   6.286  16.123  0.1969  0.3276  0.5421
 4804TIP3    H135903   1.221   6.326  16.043 -0.7158 -1.6019 -0.0993
 4804TIP3    H235904   1.186   6.302  16.189 -0.3652 -0.4628  0.1756
 4805TIP3   OH235905   0.003   1.238   6.626 -0.0934  0.5136  0.8172
 4805TIP3    H135906  -0.030   1.176   6.691  0.8206 -1.3313 -0.3899
 4805TIP3    H235907  -0.000   1.190   6.543  2.7413  1.2335  0.1789
 4806TIP3   OH235908   1.712   2.772   4.421 -0.0918  0.3909  0.3109
 4806TIP3    H135909   1.647   2.783   4.490  0.2416  0.7982  0.5667
 4806TIP3    H235910   1.708   2.853   4.370  1.3694  1.1638  1.3377
 4807TIP3   OH235911   5.642   3.656   4.913 -0.3899 -0.2280 -0.1902
 4807TIP3    H135912   5.613   3.583   4.967  3.1741 -1.2466  0.6092
 4807TIP3    H235913   5.725   3.684   4.952  0.8178  1.0296 -3.2913
 4808TIP3   OH235914   3.300   0.330   0.270 -0.2736  0.6925 -0.4026
 4808TIP3    H135915   3.240   0.339   0.343  0.0684 -0.8243  0.1160
 4808TIP3    H235916   3.252   0.277   0.206 -0.4010  1.6140 -1.0851
 4809TIP3   OH235917   6.336   5.990  16.369 -0.1218 -0.1124  0.5416
 4809TIP3    H135918   6.345   6.063  16.430 -1.3684 -0.6523  1.4281
 4809TIP3    H235919   6.415   5.937  16.382  0.6053  0.8475  0.1682
 4810TIP3   OH235920   2.397   1.120  12.029 -0.0649 -0.1810 -0.5615
 4810TIP3    H135921   2.392   1.161  11.943  0.2582  2.0334  0.3955
 4810TIP3    H235922   2.307   1.093  12.049 -0.4913  0.9960 -0.8389
 4811TIP3   OH235923   6.345   0.492  13.812 -0.5440 -0.3928 -0.0103
 4811TIP3    H135924   6.288   0.440  13.756  1.3991 -3.3938  0.5644
 4811TIP3    H235925   6.343   0.447  13.897  0.7995  0.8179  0.7055
 4812TIP3   OH235926   6.572   5.515  13.915 -0.0912 -0.3596 -0.0331
 4812TIP3    H135927   6.511   5.458  13.962 -0.8303 -0.4913 -1.0991
 4812TIP3    H235928   6.532   5.525  13.828  1.3185 -0.2730 -0.6889
 4813TIP3   OH235929   4.921   3.273   3.587  0.3367  0.3014 -0.0730
 4813TIP3    H135930   4.971   3.340   3.542  0.9354  0.7079  1.1649
 4813TIP3    H235931   4.851   3.321   3.632  0.3034  0.0109  0.1894
 4814TIP3   OH235932   6.222   1.346   3.355  0.6024  0.0140  0.0388
 4814TIP3    H135933   6.306   1.300   3.348  0.5270 -0.0548 -0.5217
 4814TIP3    H235934   6.243   1.438   3.339  0.5795  0.0046 -0.0457
 4815TIP3   OH235935   3.527   3.174   6.249  0.4015 -0.1800  0.2185
 4815TIP3    H135936   3.447   3.214   6.282  0.0775  0.7228 -1.5615
 4815TIP3    H235937   3.567   3.133   6.326 -0.8213  0.9251  1.4900
 4816TIP3   OH235938   1.780   2.540  16.177 -0.4576 -0.2542  0.5697
 4816TIP3    H135939   1.851   2.530  16.113 -0.6496 -0.9149  0.4500
 4816TIP3    H235940   1.786   2.631  16.205 -0.1454 -0.0467 -0.1286
 4817TIP3   OH235941   2.815   4.574  16.998  0.7752 -0.0719 -0.4837
 4817TIP3    H135942   2.769   4.559  17.081 -0.7699 -0.5755 -1.3977
 4817TIP3    H235943   2.906   4.548  17.017  0.5515  0.2086  1.1562
 4818TIP3   OH235944   4.535   6.803  11.830 -0.4530  0.1016  0.6334
 4818TIP3    H135945   4.462   6.766  11.781  0.6755 -0.7875 -0.4564
 4818TIP3    H235946   4.510   6.893  11.847 -1.0567  0.3482 -1.2943
 4819TIP3   OH235947   4.750   2.781   1.405  0.2532 -0.6132  0.2587
 4819TIP3    H135948   4.758   2.759   1.498 -0.5842  0.0061  0.4903
 4819TIP3    H235949   4.823   2.840   1.388 -0.9345  1.2161  1.1573
 4820TIP3   OH235950   2.248   1.981  16.387 -0.1443  0.3117  0.0773
 4820TIP3    H135951   2.291   1.973  16.302 -0.2197  1.5708 -0.1121
 4820TIP3    H235952   2.290   2.057  16.428 -1.5241  1.0211  0.2604
 4821TIP3   OH235953   3.421   0.177  16.855 -0.3388 -0.2208 -0.5410
 4821TIP3    H135954   3.384   0.231  16.785 -0.6820 -0.8358 -0.8449
 4821TIP3    H235955   3.423   0.234  16.931 -0.2193  0.3763 -0.9837
 4822TIP3   OH235956   1.480   6.271  14.739 -0.1824 -0.0210  0.4779
 4822TIP3    H135957   1.440   6.185  14.755 -0.4627  0.2607  1.3505
 4822TIP3    H235958   1.573   6.258  14.756 -0.0683 -0.3844 -0.3658
 4823TIP3   OH235959   5.664   6.392  14.162 -0.2470 -0.2301 -0.2669
 4823TIP3    H135960   5.642   6.380  14.070  0.2736 -0.0330 -0.4203
 4823TIP3    H235961   5.594   6.446  14.197  0.6845  1.5852 -1.0848
 4824TIP3   OH235962   1.913   3.556  14.621 -0.6119 -0.4900  0.8878
 4824TIP3    H135963   1.895   3.565  14.715 -0.0436 -1.4521  1.1007
 4824TIP3    H235964   1.929   3.463  14.609 -1.6973 -0.5448 -0.3644
 4825TIP3   OH235965   3.958   1.484  15.364  0.4060 -0.1317  0.2943
 4825TIP3    H135966   3.876   1.507  15.319 -1.1417 -2.4406  1.7214
 4825TIP3    H235967   4.018   1.460  15.294 -0.7419 -0.1763 -0.7005
 4826TIP3   OH235968   4.062   2.506  12.188 -0.0918 -0.8393  0.4451
 4826TIP3    H135969   4.109   2.518  12.105 -0.8703  1.3035  0.2421
 4826TIP3    H235970   4.008   2.585  12.196  1.3493  0.0185  3.9105
 4827TIP3   OH235971   6.191   2.487  11.718  0.1244 -0.4179  0.1433
 4827TIP3    H135972   6.210   2.557  11.781 -1.3017  0.0183  0.1150
 4827TIP3    H235973   6.096   2.487  11.710  0.2324 -1.0238 -1.4010
 4828TIP3   OH235974   3.351   4.585   0.468 -0.5170 -0.4264 -0.2162
 4828TIP3    H135975   3.394   4.659   0.426  0.0178  0.4764  1.8447
 4828TIP3    H235976   3.271   4.572   0.416 -0.6042  1.5545 -0.6571
 4829TIP3   OH235977   6.087   2.570   4.670  0.5017 -0.5143  0.3218
 4829TIP3    H135978   6.026   2.568   4.596 -0.2094  2.0681  0.7490
 4829TIP3    H235979   6.078   2.484   4.710 -2.5631 -0.4224  0.0813
 4830TIP3   OH235980   4.677   3.955  15.999 -0.3207  0.1919 -0.1863
 4830TIP3    H135981   4.628   3.904  15.934 -0.9595  1.8670 -1.0980
 4830TIP3    H235982   4.614   3.972  16.068 -0.6707  1.2343 -0.7388
 4831TIP3   OH235983   1.961   6.482   3.202  0.0192  0.1437  0.2638
 4831TIP3    H135984   2.019   6.405   3.203 -0.0053  0.1138 -0.3258
 4831TIP3    H235985   1.940   6.497   3.294 -0.6240 -1.0454  0.3298
 4832TIP3   OH235986   1.994   5.981   1.930 -0.7429  0.2104 -0.0611
 4832TIP3    H135987   2.083   6.004   1.959 -1.3534  0.8949  1.3233
 4832TIP3    H235988   1.993   6.006   1.838  0.5181  0.1428 -0.1226
 4833TIP3   OH235989   1.500   3.435   3.788 -0.2175 -0.5821 -0.6241
 4833TIP3    H135990   1.593   3.423   3.808  0.4004 -0.9362 -3.3554
 4833TIP3    H235991   1.459   3.450   3.874  2.4077  0.1917  0.6008
 4834TIP3   OH235992   3.614   5.653  16.395  1.0191  0.3032 -0.8927
 4834TIP3    H135993   3.568   5.660  16.311  0.0701  1.5794 -0.3046
 4834TIP3    H235994   3.637   5.743  16.417  3.1112 -0.2038 -0.7418
 4835TIP3   OH235995   5.537   6.563   4.675  0.0073 -0.6447 -0.4537
 4835TIP3    H135996   5.582   6.607   4.747 -0.5506  0.3037 -0.6736
 4835TIP3    H235997   5.469   6.510   4.718  0.2341 -0.7541 -0.2295
 4836TIP3   OH235998   1.803   1.483  15.277  0.7216 -0.8719  0.2330
 4836TIP3    H135999   1.882   1.478  15.223  0.9614  1.3441  0.2809
 4836TIP3    H236000   1.748   1.412  15.245  2.1689 -1.6044 -0.7462
 4837TIP3   OH236001   3.554   5.066   4.420 -0.0103 -0.2848 -0.0296
 4837TIP3    H136002   3.613   4.990   4.430  1.0286  0.6479  1.3749
 4837TIP3    H236003   3.605   5.128   4.368 -1.0959 -0.7606 -1.6986
 4838TIP3   OH236004   4.549   2.167   1.119 -0.6288 -0.1894 -0.5196
 4838TIP3    H136005   4.565   2.261   1.114  0.0454 -0.1699  1.2769
 4838TIP3    H236006   4.626   2.127   1.079 -1.0218 -0.0169 -1.5018
 4839TIP3   OH236007   0.910   5.400   4.086  0.1859 -0.0696  0.1659
 4839TIP3    H136008   0.949   5.407   4.173 -2.5906 -0.1569  1.5321
 4839TIP3    H236009   0.860   5.318   4.088 -1.1503  0.6711 -0.9487
 4840TIP3   OH236010   4.390   5.535   2.320  0.1868  0.0130  0.0245
 4840TIP3    H136011   4.339   5.596   2.267  0.0353 -0.0329  0.1181
 4840TIP3    H236012   4.378   5.450   2.277  2.4141  0.4140 -1.6217
 4841TIP3   OH236013   1.120   3.643  17.253 -0.0659 -0.5137 -1.0282
 4841TIP3    H136014   1.146   3.695  17.329 -0.3840 -0.4112 -0.9862
 4841TIP3    H236015   1.058   3.579  17.288 -1.3017  0.4192 -1.4163
 4842TIP3   OH236016   0.599   6.738   6.348 -0.4331  0.0690  0.6010
 4842TIP3    H136017   0.532   6.698   6.291 -0.5953  0.0795  0.7836
 4842TIP3    H236018   0.623   6.669   6.409  0.7710 -0.3971 -0.3593
 4843TIP3   OH236019   5.718   4.544  16.684 -0.5164 -0.0179  0.3898
 4843TIP3    H136020   5.780   4.617  16.686 -0.8668  0.2840  0.3969
 4843TIP3    H236021   5.760   4.475  16.733  1.2419 -0.9698 -2.2355
 4844TIP3   OH236022   6.115   4.221   0.414  0.3050  0.2487 -0.4973
 4844TIP3    H136023   6.106   4.226   0.510 -0.4223  0.7461 -0.5811
 4844TIP3    H236024   6.201   4.181   0.400 -0.6932 -2.4698  0.4011
 4845TIP3   OH236025   6.380   6.525   2.202  0.7846  0.0045 -0.7875
 4845TIP3    H136026   6.334   6.466   2.141  1.3496 -0.2709 -0.9520
 4845TIP3    H236027   6.433   6.466   2.256  0.5503  0.2766 -0.2461
 4846TIP3   OH236028   3.078   5.030  10.991  0.0304 -0.2260 -0.2094
 4846TIP3    H136029   3.102   5.122  11.005  0.7291 -0.4789  0.2552
 4846TIP3    H236030   3.075   4.992  11.078 -0.2955 -0.6466 -0.3991
 4847TIP3   OH236031   3.268   1.413  16.176 -0.0012 -0.8910 -0.4573
 4847TIP3    H136032   3.326   1.338  16.191 -1.1166 -1.7927 -0.4991
 4847TIP3    H236033   3.181   1.381  16.201 -0.4045  0.6116  0.1496
 4848TIP3   OH236034   3.459   6.525  12.147 -0.5733  1.1331 -0.4127
 4848TIP3    H136035   3.520   6.459  12.115 -0.4616  0.5353  0.9492
 4848TIP3    H236036   3.377   6.477  12.160 -0.3358  1.0919  1.1371
 4849TIP3   OH236037   0.898   5.675  13.753  0.3849  0.0547  0.4225
 4849TIP3    H136038   0.902   5.594  13.702 -3.0394 -0.0023  0.0278
 4849TIP3    H236039   0.861   5.739  13.692  1.8482  1.6548  1.1256
 4850TIP3   OH236040   5.265   4.465   1.716  0.8223 -0.6040 -0.8474
 4850TIP3    H136041   5.184   4.416   1.703  0.0717 -0.4930  2.3791
 4850TIP3    H236042   5.330   4.398   1.737  0.9131 -0.5176 -0.8543
 4851TIP3   OH236043   6.263   4.258   2.232 -0.5153 -0.0276 -0.0605
 4851TIP3    H136044   6.184   4.294   2.193  0.3461 -0.2799 -2.1505
 4851TIP3    H236045   6.326   4.330   2.232 -0.1682 -0.3278 -0.1311
 4852TIP3   OH236046   6.590   6.609   5.513 -0.1245 -1.1918  0.0633
 4852TIP3    H136047   6.504   6.576   5.488  0.1314 -2.0061  0.2327
 4852TIP3    H236048   6.613   6.559   5.591  0.4095 -0.8213  0.1476
 4853TIP3   OH236049   3.005   5.694   1.627 -0.7227 -0.5859 -0.1639
 4853TIP3    H136050   3.095   5.688   1.657 -0.8137 -0.6620  0.0930
 4853TIP3    H236051   2.954   5.647   1.692 -1.3937  2.3657  1.6250
 4854TIP3   OH236052   0.899   5.772  11.011  0.0427 -0.6464  0.0587
 4854TIP3    H136053   0.874   5.750  10.921 -1.2578 -0.3449  0.3273
 4854TIP3    H236054   0.907   5.687  11.055 -2.3096 -0.7517  0.4041
 4855TIP3   OH236055   3.773   4.335  12.530  0.6262  0.1147  0.0260
 4855TIP3    H136056   3.855   4.384  12.526  1.1495 -0.8190 -1.5614
 4855TIP3    H236057   3.711   4.390  12.482  0.6332  0.2223  0.1364
 4856TIP3   OH236058   4.302   5.309  16.056  0.3087  0.2243 -0.6111
 4856TIP3    H136059   4.342   5.365  15.990  0.5711  0.4875 -0.2335
 4856TIP3    H236060   4.251   5.369  16.110  0.3823  0.0636 -0.3614
 4857TIP3   OH236061   3.579   0.015  14.896 -0.0592  0.1839  0.7243
 4857TIP3    H136062   3.651   0.074  14.916  0.3417 -0.3293  0.8143
 4857TIP3    H236063   3.512   0.071  14.858  1.2328  0.3395 -1.4908
 4858TIP3   OH236064   3.640   5.291  12.038 -0.4868 -0.1399 -0.1147
 4858TIP3    H136065   3.548   5.264  12.042 -0.0202 -1.9153 -0.5197
 4858TIP3    H236066   3.660   5.296  11.945  0.2839 -1.6229 -0.0732
 4859TIP3   OH236067   0.661   3.556   3.661 -0.1949  0.3111  0.0306
 4859TIP3    H136068   0.718   3.488   3.697 -0.1761  0.9585  1.2599
 4859TIP3    H236069   0.602   3.509   3.602  0.0304 -0.7309  0.6165
 4860TIP3   OH236070   0.495   5.040  14.310 -0.1225 -0.1574 -0.5112
 4860TIP3    H136071   0.545   4.991  14.376 -1.7180  1.1016  1.7476
 4860TIP3    H236072   0.526   5.004  14.227  0.6984 -3.1255  0.9150
 4861TIP3   OH236073   3.310   3.558  16.725 -0.0965 -0.1301 -0.0706
 4861TIP3    H136074   3.359   3.495  16.778 -2.1425 -1.2507  0.5763
 4861TIP3    H236075   3.223   3.559  16.764 -0.6363  1.7305 -1.2398
 4862TIP3   OH236076   0.916   5.835  16.839  0.0023  0.6713  0.2182
 4862TIP3    H136077   0.870   5.892  16.900  0.8524  1.5886  0.0194
 4862TIP3    H236078   0.901   5.874  16.753  1.6431  1.3554  0.2089
 4863TIP3   OH236079   4.260   6.399  10.756 -0.3126  0.1660 -0.1013
 4863TIP3    H136080   4.320   6.326  10.738 -1.7317 -0.6689 -1.7964
 4863TIP3    H236081   4.292   6.470  10.701 -1.7048 -0.7870 -2.2781
 4864TIP3   OH236082   1.423   0.035  17.177 -0.1399 -0.0762  0.2062
 4864TIP3    H136083   1.488  -0.034  17.159  2.9626  2.9333 -1.3445
 4864TIP3    H236084   1.446   0.068  17.264 -0.4317  0.1776  0.1901
 4865TIP3   OH236085   3.860   6.102   4.705  0.6236  0.5752  0.9630
 4865TIP3    H136086   3.939   6.114   4.653 -1.2891  1.1426 -2.0531
 4865TIP3    H236087   3.853   6.008   4.719  1.7332  0.5156  1.1812
 4866TIP3   OH236088   3.616   1.325   0.992  0.0747  0.0227 -0.1684
 4866TIP3    H136089   3.711   1.329   0.981  0.2337  1.3044  1.3229
 4866TIP3    H236090   3.597   1.386   1.063 -1.6062 -2.0643  1.3072
 4867TIP3   OH236091   5.917   6.332  14.558 -0.4820  0.5591 -0.7847
 4867TIP3    H136092   5.993   6.354  14.504  0.2211  0.3516  0.0971
 4867TIP3    H236093   5.852   6.399  14.536  1.7306  4.0387  2.1098
 4868TIP3   OH236094   4.050   3.034  17.101 -0.1344 -0.7826  0.3049
 4868TIP3    H136095   3.992   3.088  17.047  0.0663 -0.0458  0.8256
 4868TIP3    H236096   4.079   3.091  17.171  1.7068 -0.9529 -0.2539
 4869TIP3   OH236097   2.129   4.961  16.468  0.0125 -0.2188 -0.1304
 4869TIP3    H136098   2.114   4.867  16.464 -0.0805 -0.1627 -1.8405
 4869TIP3    H236099   2.213   4.974  16.425  1.1106  0.2945  2.0570
 4870TIP3   OH236100   2.546   1.297   2.640 -0.8429 -0.2195 -0.1301
 4870TIP3    H136101   2.609   1.289   2.712 -1.0713 -1.3542 -0.0397
 4870TIP3    H236102   2.587   1.360   2.580  0.7487 -1.4863 -0.4427
 4871TIP3   OH236103   1.464   6.267   4.539 -0.1656  0.2570 -0.1269
 4871TIP3    H136104   1.536   6.296   4.483  0.8643  0.4236  1.2246
 4871TIP3    H236105   1.407   6.343   4.545 -1.9741 -0.6603 -3.3642
 4872TIP3   OH236106   4.020   1.568   1.835 -0.2610 -0.3361 -0.1463
 4872TIP3    H136107   4.068   1.648   1.855 -1.0001  0.1114 -0.1249
 4872TIP3    H236108   4.087   1.501   1.829  0.2301 -0.0090  1.3263
 4873TIP3   OH236109   1.534   1.039  11.900 -0.3108 -0.5644 -0.3895
 4873TIP3    H136110   1.496   1.004  11.819  0.9259 -0.8533 -0.8589
 4873TIP3    H236111   1.572   1.122  11.875 -1.0580 -0.0260  0.1965
 4874TIP3   OH236112   0.670   4.985  14.511 -0.1572  0.1874  0.4402
 4874TIP3    H136113   0.658   4.904  14.561  2.7703 -0.1889  0.7039
 4874TIP3    H236114   0.762   4.984  14.485 -1.1118  1.0868 -3.7476
 4875TIP3   OH236115   0.890   1.317   5.884  0.5644  1.1283  0.3236
 4875TIP3    H136116   0.825   1.365   5.936  0.5519  1.7031 -0.2126
 4875TIP3    H236117   0.850   1.231   5.870  0.1331  1.3097  0.4278
 4876TIP3   OH236118   5.635   4.409   3.333 -0.2012 -0.2545 -0.2204
 4876TIP3    H136119   5.620   4.492   3.377 -2.8422 -0.8339  0.1247
 4876TIP3    H236120   5.727   4.389   3.350  0.0877  1.8569  0.9382
 4877TIP3   OH236121   3.536   4.847   3.431  0.1741 -0.2628  0.0849
 4877TIP3    H136122   3.447   4.811   3.435  0.5054 -1.0844  0.3394
 4877TIP3    H236123   3.538   4.897   3.349 -1.4119  2.2313  1.4418
 4878TIP3   OH236124   0.116   1.664   5.398  0.0072  0.5069 -0.4067
 4878TIP3    H136125   0.137   1.666   5.491  3.4036 -0.4717 -1.0161
 4878TIP3    H236126   0.152   1.746   5.364  1.3423 -0.3778 -1.2271
 4879TIP3   OH236127   6.051   2.810   1.303 -0.3813  0.1670  0.5783
 4879TIP3    H136128   5.960   2.785   1.293 -0.7057  1.3533  0.4234
 4879TIP3    H236129   6.059   2.838   1.394 -0.1528  0.0102  0.6082
 4880TIP3   OH236130   1.418   1.129  12.171 -0.3668 -0.3322 -0.2125
 4880TIP3    H136131   1.441   1.222  12.163 -2.0443  0.1258 -0.1653
 4880TIP3    H236132   1.412   1.098  12.081 -1.4712  0.0807 -0.3029
 4881TIP3   OH236133   2.450   3.040   5.925  0.6319  0.1724 -0.1719
 4881TIP3    H136134   2.511   3.044   5.999  1.0211  1.1831 -0.5272
 4881TIP3    H236135   2.404   3.124   5.927 -1.3265 -0.8600  0.5471
 4882TIP3   OH236136   1.249   1.812  12.349 -0.7200  0.1971 -0.0398
 4882TIP3    H136137   1.157   1.788  12.364 -1.1199  0.8704 -1.3026
 4882TIP3    H236138   1.268   1.777  12.262 -0.1911  1.2320 -0.3485
 4883TIP3   OH236139   3.671   6.111  10.806  0.2650  0.0336 -0.2551
 4883TIP3    H136140   3.635   6.195  10.777 -2.5084 -1.3376 -1.0600
 4883TIP3    H236141   3.688   6.063  10.725 -0.3633 -1.0329  0.2263
 4884TIP3   OH236142   3.753   0.030  10.940  0.0769 -0.8370  0.9792
 4884TIP3    H136143   3.793   0.088  11.005  1.9579 -0.5379 -0.3459
 4884TIP3    H236144   3.793  -0.056  10.956  2.2270 -0.3237 -0.9916
 4885TIP3   OH236145   0.935   4.868  14.523 -0.0744  0.1835  0.5964
 4885TIP3    H136146   0.989   4.822  14.587  3.4913  2.2362 -0.6631
 4885TIP3    H236147   0.932   4.809  14.447  1.1326  0.3696  0.3918
 4886TIP3   OH236148   6.596   6.246   0.018  0.4347  0.7035 -0.3710
 4886TIP3    H136149   6.523   6.308   0.016  1.6723  2.2149 -0.6620
 4886TIP3    H236150   6.556   6.161   0.001 -1.6865  0.9963  2.4813
 4887TIP3   OH236151   3.444   0.224  11.075  0.0904 -0.0030 -0.1957
 4887TIP3    H136152   3.375   0.291  11.078  0.4162  0.3744 -0.8074
 4887TIP3    H236153   3.525   0.272  11.092  0.1140 -0.6342  1.6887
 4888TIP3   OH236154   5.309   0.968  10.836 -0.4635 -0.0101  0.5323
 4888TIP3    H136155   5.307   1.029  10.910 -0.0244  1.3499 -0.5282
 4888TIP3    H236156   5.376   0.903  10.859 -1.4966 -0.5863  2.0275
 4889TIP3   OH236157   2.915   4.148  12.144  0.4737 -0.0097 -0.6758
 4889TIP3    H136158   2.842   4.102  12.186  1.1954  1.1637  2.1615
 4889TIP3    H236159   2.979   4.160  12.215  2.3587  1.1632 -2.4587
 4890TIP3   OH236160   3.209   3.188   6.075  0.3835  0.2893 -0.2087
 4890TIP3    H136161   3.129   3.233   6.101 -0.8271 -1.6920 -0.3096
 4890TIP3    H236162   3.198   3.098   6.107  2.6927  0.0318  0.0045
 4891TIP3   OH236163   0.511   6.718   1.090 -0.0313 -0.4685 -0.1819
 4891TIP3    H136164   0.544   6.789   1.035 -0.0253 -0.9845 -0.8502
 4891TIP3    H236165   0.446   6.673   1.036  0.1992 -1.1756  0.1102
 4892TIP3   OH236166   2.609   2.717  14.053  0.3801 -0.8217  0.3517
 4892TIP3    H136167   2.661   2.665  14.114 -0.8791 -2.9553 -0.2843
 4892TIP3    H236168   2.518   2.690  14.070 -0.5364  2.1878  0.8988
 4893TIP3   OH236169   6.496   6.156  16.022  0.5029  0.8991  0.1219
 4893TIP3    H136170   6.529   6.166  15.933  1.0859 -1.8025 -0.0558
 4893TIP3    H236171   6.574   6.144  16.075  0.0817  0.8863  0.7380
 4894TIP3   OH236172   3.203   2.220   4.902  0.1682 -0.2741  0.2447
 4894TIP3    H136173   3.274   2.283   4.892  0.3555 -0.6785 -1.2806
 4894TIP3    H236174   3.187   2.188   4.813 -1.2049 -0.9756  0.7123
 4895TIP3   OH236175   4.404   0.317  16.421 -0.5994 -0.1815 -0.3301
 4895TIP3    H136176   4.371   0.229  16.402 -1.8883 -0.0849  1.2365
 4895TIP3    H236177   4.481   0.303  16.476 -1.0243 -0.3321  0.2302
 4896TIP3   OH236178   0.018   5.945   5.651  0.0836 -0.1099 -0.4187
 4896TIP3    H136179   0.097   5.900   5.622  2.0763  0.4431  3.4613
 4896TIP3    H236180   0.015   6.025   5.599  0.4710 -1.3454 -2.4723
 4897TIP3   OH236181   3.154   2.936  12.627 -0.1911  0.1799 -0.5843
 4897TIP3    H136182   3.243   2.967  12.641 -0.0538 -0.1995 -0.5862
 4897TIP3    H236183   3.165   2.857  12.574 -0.4113 -0.7209  0.6769
 4898TIP3   OH236184   3.293   4.961  15.798  0.3323 -0.5518  0.1867
 4898TIP3    H136185   3.362   5.026  15.803  0.5603 -0.7763 -0.0300
 4898TIP3    H236186   3.233   4.994  15.731 -0.5681  0.3970  1.4242
 4899TIP3   OH236187   3.489   1.904   4.561  0.5269  0.3466 -0.2796
 4899TIP3    H136188   3.419   1.886   4.625 -0.0931  0.2482 -0.9695
 4899TIP3    H236189   3.478   1.837   4.494  1.9707 -0.3208  0.1265
 4900TIP3   OH236190   4.313   0.344   5.310  0.0770  0.2684  0.6952
 4900TIP3    H136191   4.227   0.367   5.345 -1.3238 -0.8979 -1.7298
 4900TIP3    H236192   4.304   0.351   5.215  2.7469  0.2864  0.3489
 4901TIP3   OH236193   5.139   2.913   4.538  0.3458  0.0088 -0.5216
 4901TIP3    H136194   5.123   2.909   4.632  1.4902  0.3174 -0.3070
 4901TIP3    H236195   5.183   2.997   4.524  1.2195 -0.5479 -1.1748
 4902TIP3   OH236196   4.250   0.152  12.227 -0.0177  0.5243  0.4068
 4902TIP3    H136197   4.315   0.179  12.162 -0.4834 -1.4502 -0.9843
 4902TIP3    H236198   4.166   0.164  12.182 -0.2814 -2.1063  0.0560
 4903TIP3   OH236199   0.364   5.674   0.037 -0.0329  0.3909 -0.5726
 4903TIP3    H136200   0.305   5.606   0.005  2.4137 -1.3754 -1.7480
 4903TIP3    H236201   0.396   5.716  -0.042 -0.3253  1.8955  0.0790
 4904TIP3   OH236202   0.338   2.398   1.342  0.1286  0.0731 -0.0175
 4904TIP3    H136203   0.392   2.357   1.409  0.4953  0.0445 -0.3321
 4904TIP3    H236204   0.260   2.428   1.390 -0.0244 -0.7403  0.2636
 4905TIP3   OH236205   5.848   3.950   1.618 -0.4629  0.2921  0.4379
 4905TIP3    H136206   5.817   3.893   1.548 -0.2909  0.1215  0.4994
 4905TIP3    H236207   5.888   4.024   1.573 -0.1178  0.0559  0.3521
 4906TIP3   OH236208   0.571   2.128   4.205  0.2228 -0.8172 -0.6961
 4906TIP3    H136209   0.625   2.204   4.187 -1.0555  0.4101  0.3567
 4906TIP3    H236210   0.546   2.094   4.119 -2.8168  2.6978 -1.4575
 4907TIP3   OH236211   2.646   1.163  13.225  0.1326  0.6471  0.6844
 4907TIP3    H136212   2.656   1.240  13.281 -1.0547 -0.7151  2.9110
 4907TIP3    H236213   2.576   1.187  13.164  0.4862  1.6799  0.6646
 4908TIP3   OH236214   1.446   5.983   5.497  0.8021 -0.1032 -0.5247
 4908TIP3    H136215   1.375   5.997   5.559 -0.7263 -3.9233 -1.1554
 4908TIP3    H236216   1.441   6.058   5.437 -1.1251  0.9172  0.8206
 4909TIP3   OH236217   4.043   0.213  14.619  0.7203  0.3337 -0.0217
 4909TIP3    H136218   3.952   0.241  14.619  0.1620 -1.3437  1.0610
 4909TIP3    H236219   4.088   0.276  14.675  0.2015  1.1026 -0.4671
 4910TIP3   OH236220   4.223   0.052   2.555  0.2391  0.4033 -0.5412
 4910TIP3    H136221   4.300   0.068   2.500 -0.3965 -0.1434 -1.6087
 4910TIP3    H236222   4.179  -0.023   2.514 -0.4414  0.2155  0.5098
 4911TIP3   OH236223   5.580   4.716  16.195 -0.8303 -0.3924  0.4592
 4911TIP3    H136224   5.591   4.681  16.284  1.8680 -0.4375  0.1995
 4911TIP3    H236225   5.522   4.791  16.206 -1.6625 -1.2173  2.0387
 4912TIP3   OH236226   2.183   0.872   3.780 -0.5237 -0.2654  0.1820
 4912TIP3    H136227   2.106   0.822   3.750 -0.0514 -0.7155 -0.3001
 4912TIP3    H236228   2.173   0.957   3.737  0.3581 -1.0398 -1.6583
 4913TIP3   OH236229   3.867   4.896  13.013 -0.2187 -0.6264 -0.4737
 4913TIP3    H136230   3.783   4.887  13.057  1.1656 -2.8698  2.0630
 4913TIP3    H236231   3.885   4.808  12.977  0.9024 -0.1044 -1.2598
 4914TIP3   OH236232   3.701   2.498   5.832  0.5706 -0.3048 -0.2115
 4914TIP3    H136233   3.664   2.451   5.906  2.0720 -0.9189  0.1812
 4914TIP3    H236234   3.638   2.485   5.761  0.2731 -1.7031  0.2938
 4915TIP3   OH236235   0.242   2.037   3.908  0.4761  0.0887  0.1729
 4915TIP3    H136236   0.195   1.996   3.980  0.0667  1.7196  0.8749
 4915TIP3    H236237   0.178   2.042   3.837  1.0238 -1.9668 -0.5185
 4916TIP3   OH236238   4.756   6.092   5.929 -0.0987  0.1013 -0.1954
 4916TIP3    H136239   4.815   6.057   5.995  0.1495 -0.3251 -0.6374
 4916TIP3    H236240   4.803   6.081   5.846 -0.0554  1.3759 -0.3731
 4917TIP3   OH236241   4.416   2.084  14.474  0.0981 -0.5989  0.0457
 4917TIP3    H136242   4.325   2.065  14.495  0.1099  0.1531  0.8776
 4917TIP3    H236243   4.421   2.078  14.379 -0.9818 -0.0267 -0.0654
 4918TIP3   OH236244   5.940   5.396   5.569  0.4001  0.4083  0.3505
 4918TIP3    H136245   6.014   5.416   5.512  1.6670 -0.6781  1.5530
 4918TIP3    H236246   5.911   5.481   5.601  0.0132  0.9899 -1.4288
 4919TIP3   OH236247   2.656   2.071   1.676 -0.0176 -0.1524 -0.2173
 4919TIP3    H136248   2.585   2.135   1.681  0.5221  0.3496  2.8005
 4919TIP3    H236249   2.626   1.997   1.728  1.1780 -0.4265  0.1108
 4920TIP3   OH236250   6.332   0.452  13.174 -0.2369  0.1785 -0.2689
 4920TIP3    H136251   6.250   0.462  13.125  0.2949 -0.2755 -1.2979
 4920TIP3    H236252   6.399   0.446  13.106  0.3423 -2.5023  0.4290
 4921TIP3   OH236253   6.451   5.731  13.449 -0.1889 -0.4074 -0.4228
 4921TIP3    H136254   6.510   5.794  13.408 -2.2955  1.4233 -0.8288
 4921TIP3    H236255   6.366   5.775  13.450 -1.3020 -2.4212  1.2842
 4922TIP3   OH236256   4.099   0.792   4.347  0.2309 -0.2263  0.4864
 4922TIP3    H136257   4.091   0.849   4.425  0.3316  1.3120 -0.5755
 4922TIP3    H236258   4.193   0.777   4.338  0.2494 -0.0860  0.4422
 4923TIP3   OH236259   3.093   3.108   1.809  0.3218  0.9153  0.4225
 4923TIP3    H136260   3.006   3.068   1.813  0.2709  0.5356 -2.2734
 4923TIP3    H236261   3.083   3.178   1.744  1.7572  1.7094  1.0134
 4924TIP3   OH236262   5.125   5.055   2.190 -0.1071  0.0500  0.1380
 4924TIP3    H136263   5.193   4.992   2.167 -0.4679 -0.5354  0.6401
 4924TIP3    H236264   5.055   5.002   2.228 -0.6585  0.6916  0.0374
 4925TIP3   OH236265   0.723   2.629  13.918  0.8315  0.0483 -0.8535
 4925TIP3    H136266   0.647   2.629  13.859  0.5240  0.0453 -0.4584
 4925TIP3    H236267   0.730   2.539  13.949  0.7147  0.1528 -0.5249
 4926TIP3   OH236268   2.136   0.022   5.540  0.1877  0.1290  0.4932
 4926TIP3    H136269   2.154   0.114   5.520  1.4863 -0.5580 -1.8535
 4926TIP3    H236270   2.219  -0.023   5.526 -0.9844 -1.7525 -0.9344
 4927TIP3   OH236271   1.154   2.944  10.358  0.5225 -0.3229 -0.1476
 4927TIP3    H136272   1.087   2.912  10.297  0.0050 -0.1819  0.3392
 4927TIP3    H236273   1.143   3.039  10.358 -1.3111 -0.4603  2.1966
 4928TIP3   OH236274   4.500   3.851   3.006  0.0511  0.9554 -0.1456
 4928TIP3    H136275   4.432   3.847   2.939  0.6605 -0.7634 -0.7185
 4928TIP3    H236276   4.453   3.852   3.089 -0.7625 -2.2710 -0.4266
 4929TIP3   OH236277   5.889   1.006  13.378  0.1261  0.0868  0.1157
 4929TIP3    H136278   5.853   1.022  13.291 -0.5492 -1.0545  0.1644
 4929TIP3    H236279   5.813   1.007  13.437  0.6459  1.4799  0.8075
 4930TIP3   OH236280   1.709   2.692  16.659  0.5511 -0.4749 -0.2835
 4930TIP3    H136281   1.760   2.727  16.586 -1.1897 -1.9395 -2.3331
 4930TIP3    H236282   1.629   2.745  16.660  0.4559 -0.6231  0.4138
 4931TIP3   OH236283   1.340   6.405   1.258  0.8142 -0.0783 -0.4937
 4931TIP3    H136284   1.349   6.500   1.268  2.2002 -0.2386 -0.0020
 4931TIP3    H236285   1.426   6.370   1.282  0.8020 -1.3620 -2.1787
 4932TIP3   OH236286   0.422   3.559   0.184 -0.0279  0.2800 -0.2347
 4932TIP3    H136287   0.468   3.498   0.242 -0.6157 -0.2254 -0.2825
 4932TIP3    H236288   0.479   3.566   0.107  0.2928  0.1922 -0.0066
 4933TIP3   OH236289   2.410   2.760   3.002  0.2499  0.3849  0.1549
 4933TIP3    H136290   2.351   2.687   2.980 -0.8710  0.5034  2.4661
 4933TIP3    H236291   2.491   2.739   2.955 -1.6371  0.4284 -3.4993
 4934TIP3   OH236292   2.705   0.156  17.083  0.4625  0.4870  0.0688
 4934TIP3    H136293   2.711   0.062  17.067 -1.4635  0.3411  0.0295
 4934TIP3    H236294   2.713   0.165  17.178  0.3315  0.2596  0.1018
 4935TIP3   OH236295   1.107   5.665   0.867  0.2120  0.0350 -0.1810
 4935TIP3    H136296   1.141   5.695   0.952  0.7188  0.4990 -0.5406
 4935TIP3    H236297   1.012   5.677   0.873  0.3205  0.8016  0.0319
 4936TIP3   OH236298   6.526   6.620  15.090 -0.2567  0.3112 -0.2128
 4936TIP3    H136299   6.517   6.709  15.124 -0.4045  0.0951  0.3101
 4936TIP3    H236300   6.458   6.612  15.023 -0.0438  0.6919 -0.4804
 4937TIP3   OH236301   4.891   1.230  12.043  0.1835  0.3210 -0.6095
 4937TIP3    H136302   4.853   1.218  12.130  0.1592 -0.2485 -0.6970
 4937TIP3    H236303   4.959   1.296  12.056  0.8187 -0.4378  0.0344
 4938TIP3   OH236304   5.079   5.274   3.178 -0.2119 -0.4177 -0.6855
 4938TIP3    H136305   5.041   5.311   3.098  1.4089  0.8947 -0.9045
 4938TIP3    H236306   5.085   5.348   3.238  2.4660 -0.3765 -0.8811
 4939TIP3   OH236307   2.332   2.678   0.048 -0.5400  0.3236  0.1807
 4939TIP3    H136308   2.330   2.615  -0.024  0.7099 -0.7979  1.0758
 4939TIP3    H236309   2.415   2.724   0.036 -0.4643  0.3321  0.7494
 4940TIP3   OH236310   6.733   1.640  11.160  0.1724  0.1093  0.2163
 4940TIP3    H136311   6.694   1.576  11.219 -0.1800 -0.0692 -0.2083
 4940TIP3    H236312   6.658   1.683  11.118  0.4280  0.0395 -0.3147
 4941TIP3   OH236313   4.289   6.626   1.279  0.4924  0.1524  0.4216
 4941TIP3    H136314   4.277   6.719   1.299 -0.3945  0.3826 -1.0147
 4941TIP3    H236315   4.204   6.597   1.246  1.0275 -0.9108 -0.1053
 4942TIP3   OH236316   1.532   5.646   1.072  0.3609  0.0624  0.2339
 4942TIP3    H136317   1.603   5.603   1.024  1.0542 -1.2653  2.3034
 4942TIP3    H236318   1.502   5.580   1.134 -0.6989  1.5750  1.4025
 4943TIP3   OH236319   0.440   0.173  14.938 -0.3659 -0.1230  0.6420
 4943TIP3    H136320   0.364   0.218  14.901 -0.2614 -0.9113 -0.6007
 4943TIP3    H236321   0.463   0.108  14.872  1.0142 -0.3074  1.2781
 4944TIP3   OH236322   5.872   4.031   5.499  0.0266 -0.2925 -0.1469
 4944TIP3    H136323   5.851   4.006   5.589 -1.9987  0.4347 -0.3672
 4944TIP3    H236324   5.861   4.126   5.498  1.2911 -0.1317 -0.8740
 4945TIP3   OH236325   1.487   1.533  16.720 -0.2719 -0.5808  0.2329
 4945TIP3    H136326   1.461   1.448  16.685 -0.0647  0.0657 -1.5444
 4945TIP3    H236327   1.468   1.595  16.651  2.8634  0.3777  0.0619
 4946TIP3   OH236328   4.710   3.532   0.058 -0.3959  0.5069  0.1606
 4946TIP3    H136329   4.709   3.544   0.153  2.0685 -2.2867  0.6886
 4946TIP3    H236330   4.635   3.477   0.040 -0.9413  1.1433  0.4361
 4947TIP3   OH236331   4.418   2.214   4.464 -0.1619  0.4197  0.3220
 4947TIP3    H136332   4.407   2.290   4.522  0.1556 -1.1795  2.6193
 4947TIP3    H236333   4.506   2.225   4.427 -0.4625  1.5953 -0.0941
 4948TIP3   OH236334   4.940   0.016   0.814 -0.1142 -0.2630 -0.2225
 4948TIP3    H136335   4.926  -0.077   0.796 -1.3840 -0.0861 -0.2518
 4948TIP3    H236336   4.863   0.059   0.777  1.6528  1.1149 -2.6256
 4949TIP3   OH236337   3.332   5.641  16.961  0.2583 -0.1659 -0.3025
 4949TIP3    H136338   3.374   5.708  17.015 -0.7636  0.0183  0.3010
 4949TIP3    H236339   3.389   5.564  16.969  0.8042  0.2623 -0.0184
 4950TIP3   OH236340   6.780   5.866  15.799 -0.1052  0.1487 -0.4966
 4950TIP3    H136341   6.870   5.880  15.828 -0.3000 -3.2058  2.4585
 4950TIP3    H236342   6.788   5.801  15.729 -0.1958  1.2413 -1.5545
 4951TIP3   OH236343   2.003   6.363  12.261  0.3285 -0.0112  0.8233
 4951TIP3    H136344   1.908   6.368  12.272  0.3241 -0.6666  1.1048
 4951TIP3    H236345   2.030   6.290  12.316  0.8507 -0.5863 -0.1658
 4952TIP3   OH236346   0.314   3.548  12.226  0.2245 -0.9344  0.2657
 4952TIP3    H136347   0.355   3.558  12.140  1.6831 -1.5373  0.8639
 4952TIP3    H236348   0.259   3.469  12.218  0.6951 -1.2395  0.0018
 4953TIP3   OH236349   3.212   6.461  13.306 -0.2224  0.0516 -0.1256
 4953TIP3    H136350   3.228   6.554  13.318  1.3818  0.0497 -1.6516
 4953TIP3    H236351   3.147   6.456  13.236  0.2646  0.0543 -0.5900
 4954TIP3   OH236352   1.408   3.300  13.045 -0.2787 -0.1588 -0.2676
 4954TIP3    H136353   1.323   3.296  13.000 -0.5491 -1.5610  0.3354
 4954TIP3    H236354   1.464   3.242  12.993  0.1790  0.3830 -0.3795
 4955TIP3   OH236355   4.080   4.845   5.463 -0.2547 -0.5884  0.5702
 4955TIP3    H136356   4.119   4.828   5.549  2.6056 -0.1429 -0.5348
 4955TIP3    H236357   4.050   4.936   5.468  1.2515 -0.0712  0.6819
 4956TIP3   OH236358   3.864   2.333  17.086  0.1157  0.1251  0.3091
 4956TIP3    H136359   3.786   2.381  17.060 -0.0451 -0.2810  0.0332
 4956TIP3    H236360   3.832   2.266  17.146  0.6262  1.8403  2.6593
 4957TIP3   OH236361   4.407   1.916   4.385 -0.1782 -0.2069  0.5602
 4957TIP3    H136362   4.386   2.010   4.386  1.8677  0.3405 -0.9129
 4957TIP3    H236363   4.499   1.912   4.409 -0.6177 -2.0297  2.1728
 4958TIP3   OH236364   5.958   3.030  16.734  0.0693  0.4707  0.5506
 4958TIP3    H136365   5.899   3.004  16.662  0.6719 -1.7633  0.7686
 4958TIP3    H236366   5.912   3.001  16.813  1.1403 -0.7352  0.7616
 4959TIP3   OH236367   0.615   4.146  13.166 -0.1064  0.4879 -0.3927
 4959TIP3    H136368   0.629   4.158  13.259  1.8141  0.9532 -0.6886
 4959TIP3    H236369   0.530   4.187  13.148 -0.9220 -0.3815  1.2556
 4960TIP3   OH236370   1.950   0.376  13.200  0.1603  0.0869 -0.3887
 4960TIP3    H136371   1.940   0.298  13.146 -0.7374  0.2615 -0.4767
 4960TIP3    H236372   1.873   0.377  13.256  1.4510 -0.5395  1.4928
 4961TIP3   OH236373   6.209   2.812  16.238  0.1660  0.1565 -0.4433
 4961TIP3    H136374   6.248   2.897  16.218  1.6396 -0.8478 -2.0219
 4961TIP3    H236375   6.212   2.806  16.333 -1.0060  2.3059 -0.1915
 4962TIP3   OH236376   1.866   2.408   1.795  0.0148  0.0808  0.8897
 4962TIP3    H136377   1.838   2.500   1.793 -1.2702 -0.2891  1.0480
 4962TIP3    H236378   1.841   2.377   1.882 -0.4938 -0.6817  0.4867
 4963TIP3   OH236379   0.810   3.081  15.823  0.2441 -0.0696 -0.3820
 4963TIP3    H136380   0.831   2.999  15.868 -0.1422  0.4105  0.6807
 4963TIP3    H236381   0.718   3.095  15.841  0.3013  0.5835 -0.6019
 4964TIP3   OH236382   0.635   6.108   4.793  0.1683  0.1889  0.0790
 4964TIP3    H136383   0.609   6.190   4.751  1.6065 -0.3539 -2.0116
 4964TIP3    H236384   0.699   6.069   4.733  0.8615 -1.6155  1.8786
 4965TIP3   OH236385   4.083   6.032   6.112  0.4407 -0.3226  0.4318
 4965TIP3    H136386   4.167   6.017   6.068 -0.0181 -1.0905 -0.2052
 4965TIP3    H236387   4.107   6.069   6.196  1.3603  0.8489 -0.3080
 4966TIP3   OH236388   4.832   6.419  14.928  0.2990  0.2313 -0.2587
 4966TIP3    H136389   4.843   6.481  14.856  0.5580  1.2027  0.6076
 4966TIP3    H236390   4.744   6.436  14.962  0.0407 -0.4620 -0.5492
 4967TIP3   OH236391   4.685   2.764   1.774 -0.4921 -0.3624 -0.0212
 4967TIP3    H136392   4.711   2.760   1.867  1.5673 -2.6029 -0.5848
 4967TIP3    H236393   4.608   2.708   1.769  1.8991 -3.9846 -0.2154
 4968TIP3   OH236394   3.601   2.997  14.327  0.3806  0.4993  0.7469
 4968TIP3    H136395   3.522   3.022  14.280  1.3105  0.7278 -0.7427
 4968TIP3    H236396   3.584   2.908  14.358  0.0622  0.0249 -0.7476
 4969TIP3   OH236397   5.511   3.357   5.014  0.0169  0.6976  0.1355
 4969TIP3    H136398   5.484   3.365   4.922  0.8354 -0.6950 -0.2598
 4969TIP3    H236399   5.438   3.392   5.064 -1.4954 -0.7345 -0.9773
 4970TIP3   OH236400   4.734   5.098  16.701 -0.2138 -0.1235 -0.2142
 4970TIP3    H136401   4.824   5.066  16.712 -0.6100 -0.5300  2.3648
 4970TIP3    H236402   4.712   5.138  16.785 -2.4459 -0.0194 -0.7867
 4971TIP3   OH236403   3.866   1.887  12.162  0.2206 -0.4619  0.5925
 4971TIP3    H136404   3.849   1.949  12.233  2.1928 -2.0457  2.5783
 4971TIP3    H236405   3.825   1.806  12.191 -1.3460 -0.4597 -1.4424
 4972TIP3   OH236406   4.034   6.227   3.383  0.2286  0.7482  0.1727
 4972TIP3    H136407   3.952   6.191   3.418  0.5975  0.7869  1.1103
 4972TIP3    H236408   4.103   6.183   3.433  0.7676  0.9988 -0.3378
 4973TIP3   OH236409   2.909   1.320  12.681  0.1541  0.1071  0.1390
 4973TIP3    H136410   2.883   1.228  12.683 -1.0054  0.3637 -1.5811
 4973TIP3    H236411   2.903   1.345  12.589  1.1735  1.7149  0.4746
 4974TIP3   OH236412   5.773   4.417  12.451 -0.0870 -0.4485  0.5314
 4974TIP3    H136413   5.820   4.486  12.404 -0.8536 -1.0513 -1.2158
 4974TIP3    H236414   5.729   4.462  12.522 -0.7627  0.9312 -0.7035
 4975TIP3   OH236415   6.501   0.898  11.113 -0.3121  0.0633  0.0985
 4975TIP3    H136416   6.450   0.868  11.189 -1.4743  0.5708 -0.4606
 4975TIP3    H236417   6.438   0.898  11.041  0.2666  1.5083 -0.4320
 4976TIP3   OH236418   5.471   1.316  13.023 -0.1027 -0.1935 -0.4292
 4976TIP3    H136419   5.516   1.286  12.944  1.1120  0.8460 -0.1692
 4976TIP3    H236420   5.492   1.251  13.089 -1.5693 -1.3627 -1.0525
 4977TIP3   OH236421   2.679   0.291  16.665  0.4233  0.4637 -0.6212
 4977TIP3    H136422   2.621   0.282  16.741  1.6656  0.0513  0.3075
 4977TIP3    H236423   2.704   0.201  16.643  0.6655  0.6328 -1.0499
 4978TIP3   OH236424   1.862   1.737   3.570 -0.1397 -0.1015 -0.4061
 4978TIP3    H136425   1.881   1.831   3.559  0.5918 -0.1084  0.7145
 4978TIP3    H236426   1.774   1.727   3.533 -0.4952  1.1519  0.0328
 4979TIP3   OH236427   3.431   0.068   3.856 -0.6805  0.2502 -0.0983
 4979TIP3    H136428   3.511   0.020   3.877 -1.7162 -1.9478 -0.9089
 4979TIP3    H236429   3.453   0.121   3.779 -0.3011 -1.2501 -1.0458
 4980TIP3   OH236430   4.238   5.635  15.613  0.1786 -0.1227  0.3046
 4980TIP3    H136431   4.299   5.703  15.586  0.1330  0.1834  0.9602
 4980TIP3    H236432   4.192   5.610  15.533 -1.8848  2.6678  0.4767
 4981TIP3   OH236433   2.852   0.232  12.150 -0.1872 -0.3199 -0.0641
 4981TIP3    H136434   2.766   0.194  12.168 -0.5830  0.2186 -0.7604
 4981TIP3    H236435   2.890   0.248  12.236 -0.1389 -1.9760  0.2600
 4982TIP3   OH236436   0.142   0.640   3.486 -0.0151  0.2844 -0.1524
 4982TIP3    H136437   0.048   0.651   3.502  0.0234  0.3915  0.0041
 4982TIP3    H236438   0.179   0.620   3.572  0.0594 -0.0838 -0.2705
 4983TIP3   OH236439   5.878   1.609  16.118 -0.0894 -0.3936 -0.0425
 4983TIP3    H136440   5.850   1.540  16.058 -3.0980  1.0341 -0.5074
 4983TIP3    H236441   5.939   1.662  16.067 -1.9413  0.3035 -1.6853
 4984TIP3   OH236442   4.571   4.634   0.403  0.0699 -0.4930 -0.3445
 4984TIP3    H136443   4.496   4.693   0.402  0.3602 -0.1263 -0.7338
 4984TIP3    H236444   4.643   4.685   0.441  0.5616 -0.2814 -1.5047
 4985TIP3   OH236445   2.923   4.069   1.374  0.3789  0.2268 -0.8653
 4985TIP3    H136446   2.873   4.060   1.293 -1.4172  1.0636  0.0895
 4985TIP3    H236447   2.939   3.979   1.402  1.4330 -0.0840 -2.3499
 4986TIP3   OH236448   4.996   6.295   1.016  0.5323 -0.0547 -0.1009
 4986TIP3    H136449   4.920   6.337   1.058  2.0849  2.7269  0.1400
 4986TIP3    H236450   5.008   6.214   1.066 -2.1828 -0.5837 -0.1107
 4987TIP3   OH236451   3.021   1.777  11.783 -0.4555  0.4700  0.2638
 4987TIP3    H136452   2.960   1.818  11.845 -0.4307  1.4238 -0.3171
 4987TIP3    H236453   3.098   1.756  11.836  0.6198  3.6319  0.1489
 4988TIP3   OH236454   0.229   1.171  16.066  0.1006  0.1750  0.3333
 4988TIP3    H136455   0.235   1.263  16.040  0.1413 -0.4121 -1.9289
 4988TIP3    H236456   0.142   1.162  16.103 -0.5649  0.7630 -1.0398
 4989TIP3   OH236457   1.402   2.226  15.648 -0.0478 -0.5326  0.3025
 4989TIP3    H136458   1.432   2.154  15.703 -0.2719  1.1554  2.7927
 4989TIP3    H236459   1.340   2.274  15.703  0.8113  2.1036 -0.8757
 4990TIP3   OH236460   0.163   2.489   0.628 -0.0968 -0.2123  0.1255
 4990TIP3    H136461   0.229   2.421   0.626 -0.4877 -0.5879 -0.1695
 4990TIP3    H236462   0.170   2.533   0.543 -0.6084 -0.6273 -0.1370
 4991TIP3   OH236463   1.717   0.590   3.415 -0.3086  0.3338 -0.0564
 4991TIP3    H136464   1.760   0.516   3.373 -4.4726 -1.6399 -1.3846
 4991TIP3    H236465   1.668   0.632   3.344 -0.2147  2.7425  1.2054
 4992TIP3   OH236466   5.600   4.042   4.546  0.2787  0.6995  0.7673
 4992TIP3    H136467   5.624   4.009   4.460 -0.1124  0.9129  0.5712
 4992TIP3    H236468   5.565   3.966   4.593  1.6943  0.2814  1.2134
 4993TIP3   OH236469   0.643   0.802  16.388  0.1945  0.0390  0.3921
 4993TIP3    H136470   0.669   0.832  16.475  1.8586  2.3133 -0.7843
 4993TIP3    H236471   0.720   0.756  16.355 -0.0479  0.0866 -0.2527
 4994TIP3   OH236472   4.929   5.484   0.368  0.5364 -0.0562 -0.2451
 4994TIP3    H136473   4.875   5.483   0.447  1.3954 -0.0289  0.3558
 4994TIP3    H236474   4.866   5.488   0.296 -0.3912 -2.4283  0.3170
 4995TIP3   OH236475   1.042   4.697  13.094 -0.0530  0.0674  0.0277
 4995TIP3    H136476   0.991   4.643  13.154 -0.8837  0.0252 -0.6945
 4995TIP3    H236477   1.006   4.785  13.104  0.1030  0.1460 -0.0893
 4996TIP3   OH236478   5.623   6.066   1.860 -0.8203 -0.9449  0.2265
 4996TIP3    H136479   5.537   6.084   1.822 -1.6025  0.0024  2.3195
 4996TIP3    H236480   5.643   6.144   1.911  1.2635 -1.1957 -0.1253
 4997TIP3   OH236481   5.118   0.989  11.251  0.3455  0.4818 -0.0581
 4997TIP3    H136482   5.099   1.082  11.258  3.0965  1.0337  3.9914
 4997TIP3    H236483   5.044   0.946  11.295  0.0293  0.9592 -0.1150
 4998TIP3   OH236484   5.129   2.886   0.730 -0.4101  0.6413  0.5355
 4998TIP3    H136485   5.054   2.944   0.716  1.2305  2.6670 -0.4948
 4998TIP3    H236486   5.185   2.934   0.791 -0.5476 -1.4865  2.4779
 4999TIP3   OH236487   2.469   5.595   3.930 -0.0763 -0.4227  0.7114
 4999TIP3    H136488   2.472   5.501   3.913 -1.2095  0.0688 -3.4387
 4999TIP3    H236489   2.516   5.634   3.856 -0.5234  2.3018  1.7658
 5000TIP3   OH236490   5.904   6.063   5.409 -0.4497 -0.1355 -0.5702
 5000TIP3    H136491   5.971   6.092   5.348  0.1582 -1.1907 -0.4367
 5000TIP3    H236492   5.822   6.069   5.359 -0.1738  0.4963 -0.9607
 5001TIP3   OH236493   0.655   2.604  15.784  0.3937  1.1106  0.2640
 5001TIP3    H136494   0.603   2.560  15.851  1.0467  0.2658  0.2342
 5001TIP3    H236495   0.596   2.669  15.746 -0.4255  0.6183  0.6752
 5002TIP3   OH236496   0.236   3.763   6.235  0.4108 -0.4228 -0.1293
 5002TIP3    H136497   0.312   3.815   6.208 -0.9939  1.1303 -1.3876
 5002TIP3    H236498   0.166   3.793   6.176 -1.1135 -1.9402  0.8438
 5003TIP3   OH236499   5.011   6.705   1.065  0.3702 -0.3086  0.2420
 5003TIP3    H136500   4.994   6.783   1.013  1.6682 -0.8669 -1.0797
 5003TIP3    H236501   4.930   6.655   1.060  0.1438  0.1143 -0.4041
 5004TIP3   OH236502   4.522   0.885   2.337 -0.1706 -0.3744 -0.0448
 5004TIP3    H136503   4.536   0.852   2.249  0.7737 -2.4931  0.8174
 5004TIP3    H236504   4.551   0.976   2.334 -0.5584 -0.2850 -1.9925
 5005TIP3   OH236505   3.749   5.407  15.017 -0.3351  0.1824 -0.0804
 5005TIP3    H136506   3.702   5.465  14.957 -0.9743  1.1495  1.2856
 5005TIP3    H236507   3.679   5.364  15.067  0.1399 -1.5756 -0.8606
 5006TIP3   OH236508   5.404   4.746  16.927  0.0857 -0.7737 -0.4212
 5006TIP3    H136509   5.448   4.809  16.984 -0.2219 -0.8869 -0.0552
 5006TIP3    H236510   5.379   4.675  16.985 -0.1633 -0.9253 -0.7148
 5007TIP3   OH236511   0.634   4.385   3.300 -0.2536  0.1297  0.1442
 5007TIP3    H136512   0.603   4.299   3.327  0.7142 -1.1805 -2.5382
 5007TIP3    H236513   0.668   4.371   3.211  2.3617  2.7410  0.6001
 5008TIP3   OH236514   3.787   3.108  11.110 -0.2961  0.0706  0.4775
 5008TIP3    H136515   3.699   3.094  11.145 -0.8139  0.0419 -0.7943
 5008TIP3    H236516   3.793   3.203  11.099 -1.4610 -0.1095 -2.5496
 5009TIP3   OH236517   5.042   2.166   1.276 -0.3212 -0.3618  0.0458
 5009TIP3    H136518   5.082   2.215   1.348  1.0638 -0.1176 -0.8683
 5009TIP3    H236519   5.114   2.118   1.236 -0.7300  0.8008 -2.2226
 5010TIP3   OH236520   0.652   2.027  16.140  0.1290 -0.2922 -0.5999
 5010TIP3    H136521   0.604   2.046  16.220  0.7897  1.3864 -0.5474
 5010TIP3    H236522   0.667   1.932  16.142 -0.0703 -0.3201  1.1462
 5011TIP3   OH236523   5.993   6.286   1.592 -0.6277  0.3250  0.2568
 5011TIP3    H136524   6.047   6.363   1.607  0.8605 -0.9009  1.6298
 5011TIP3    H236525   5.992   6.275   1.497  0.1397  1.3484  0.1180
 5012TIP3   OH236526   1.319   5.984   4.440 -0.5023 -0.9731 -0.5110
 5012TIP3    H136527   1.374   5.999   4.363  0.9766 -0.9527  0.5184
 5012TIP3    H236528   1.293   5.892   4.434  1.3676 -1.5773  0.0325
 5013TIP3   OH236529   2.686   5.058  12.198  0.0863 -0.7185 -0.4985
 5013TIP3    H136530   2.643   5.079  12.280  0.2225 -0.6930 -0.4317
 5013TIP3    H236531   2.753   5.126  12.188  3.0659 -3.0944  1.5744
 5014TIP3   OH236532   4.521   2.059   0.816  0.1282 -0.2789  0.4158
 5014TIP3    H136533   4.562   2.040   0.732  0.5271 -1.1304  0.7821
 5014TIP3    H236534   4.595   2.081   0.874 -0.0557 -0.5514  0.7564
 5015TIP3   OH236535   6.024   1.625   1.347  0.6060  0.3560 -0.3098
 5015TIP3    H136536   6.096   1.688   1.352  0.9349 -0.0606  0.3355
 5015TIP3    H236537   6.021   1.599   1.255  1.2309  0.4409 -0.3596
 5016TIP3   OH236538   6.438   3.264  12.025 -0.0215  0.2866  0.4554
 5016TIP3    H136539   6.366   3.245  12.084 -0.3809 -0.1068 -0.0929
 5016TIP3    H236540   6.507   3.299  12.081 -0.7891  1.0819  0.9263
 5017TIP3   OH236541   3.877   5.904  12.925  0.1890 -0.0157 -0.3784
 5017TIP3    H136542   3.901   5.989  12.887  0.1395  0.0429 -0.2789
 5017TIP3    H236543   3.784   5.896  12.906 -0.0620  0.4582  0.5839
 5018TIP3   OH236544   3.875   3.732  10.471  0.1829  0.1046 -0.3122
 5018TIP3    H136545   3.832   3.735  10.556  0.8374  1.1211 -0.0035
 5018TIP3    H236546   3.839   3.807  10.423  1.5065  0.9200 -0.0825
 5019TIP3   OH236547   6.519   6.332  14.954  0.5815 -0.0181 -0.0893
 5019TIP3    H136548   6.566   6.377  15.024 -0.6026  1.0015  0.0848
 5019TIP3    H236549   6.483   6.403  14.900  0.1752 -0.7810 -0.8439
 5020TIP3   OH236550   4.089   0.120  10.351  0.1801 -0.4018  0.2151
 5020TIP3    H136551   4.095   0.044  10.409  1.8108 -0.5331 -0.0774
 5020TIP3    H236552   4.138   0.188  10.396  0.1320 -0.0314 -0.2858
 5021TIP3   OH236553   6.665   3.289  11.802  0.6696 -0.3786  0.7583
 5021TIP3    H136554   6.613   3.261  11.878  2.2578  0.6510  2.3111
 5021TIP3    H236555   6.614   3.361  11.764 -1.7120 -2.8614 -1.1857
 5022TIP3   OH236556   2.377   4.507  14.078 -0.0287 -0.0958 -0.0585
 5022TIP3    H136557   2.309   4.516  14.011  0.9162 -1.1250 -1.1977
 5022TIP3    H236558   2.459   4.523  14.032  0.6375 -0.7660  0.8592
 5023TIP3   OH236559   3.420   0.551   0.350 -0.3665  1.2071 -0.8705
 5023TIP3    H136560   3.364   0.594   0.415  2.0937  0.9113  1.6516
 5023TIP3    H236561   3.370   0.475   0.321 -1.5425  1.3139  0.7533
 5024TIP3   OH236562   5.817   5.040   5.796  0.6422 -0.6999 -0.1782
 5024TIP3    H136563   5.801   4.957   5.842  2.3884 -0.5799  0.7560
 5024TIP3    H236564   5.789   5.107   5.857  0.3828 -0.5868 -0.4241
 5025TIP3   OH236565   1.865   0.301  13.949  0.1521  0.3971 -0.4088
 5025TIP3    H136566   1.816   0.372  13.907  0.4193  0.0466 -1.3313
 5025TIP3    H236567   1.935   0.345  13.997 -1.1280  0.9200  1.0604
 5026TIP3   OH236568   5.528   4.214  11.605 -0.5698  0.0776  0.3582
 5026TIP3    H136569   5.621   4.194  11.604 -0.5770 -0.0185  1.2132
 5026TIP3    H236570   5.520   4.290  11.663 -0.6668  2.0074 -2.0000
 5027TIP3   OH236571   4.024   5.687   0.218 -0.0934  0.1276 -1.2444
 5027TIP3    H136572   4.031   5.592   0.211  1.4388 -0.1275  2.0130
 5027TIP3    H236573   3.938   5.707   0.182 -1.5084 -2.8136  0.1458
 5028TIP3   OH236574   3.922   5.420  15.982  0.2369  0.1463 -0.3387
 5028TIP3    H136575   3.887   5.415  15.893  0.9690  1.1972 -0.7038
 5028TIP3    H236576   3.885   5.500  16.018  0.0191 -0.2260  0.2772
 5029TIP3   OH236577   1.814   6.020  13.354 -0.4779  0.0537 -0.3258
 5029TIP3    H136578   1.794   5.945  13.411 -0.4282 -0.4631 -0.9678
 5029TIP3    H236579   1.889   6.062  13.395 -0.9544  0.1776  0.4336
 5030TIP3   OH236580   0.669   1.367   2.064 -0.4014 -0.2486 -0.1288
 5030TIP3    H136581   0.747   1.421   2.054 -1.2448  0.9215 -0.7672
 5030TIP3    H236582   0.691   1.284   2.021  0.6917 -0.1842  0.2702
 5031TIP3   OH236583   4.801   4.038  15.727 -0.1783 -0.9985  0.3601
 5031TIP3    H136584   4.711   4.021  15.756 -0.5998 -0.0543 -0.3436
 5031TIP3    H236585   4.847   4.062  15.807 -0.6520 -1.0832  0.6652
 5032TIP3   OH236586   1.738   0.245  16.872  0.4574 -0.3469 -0.5329
 5032TIP3    H136587   1.802   0.298  16.918 -1.1448 -0.4052  1.9685
 5032TIP3    H236588   1.670   0.307  16.845  0.1143 -0.6948 -0.4743
 5033TIP3   OH236589   6.315   1.824  10.410  0.6885 -0.5009  0.1115
 5033TIP3    H136590   6.396   1.850  10.366  0.9645 -0.7241  0.4820
 5033TIP3    H236591   6.293   1.739  10.371 -1.6111  1.2825 -2.9960
 5034TIP3   OH236592   1.941   3.276   4.131 -0.0694 -0.4638  0.5400
 5034TIP3    H136593   1.910   3.329   4.057 -1.2496 -0.3092  1.1211
 5034TIP3    H236594   2.000   3.213   4.091  0.7460  0.7696 -0.2762
 5035TIP3   OH236595   6.020   3.300  12.615  0.4568 -0.2768 -0.1858
 5035TIP3    H136596   6.099   3.353  12.603  0.6409 -0.2988  0.8454
 5035TIP3    H236597   5.955   3.342  12.559  0.3929  1.5041  1.1363
 5036TIP3   OH236598   0.503   1.946   0.795 -0.3484 -0.4742  0.0649
 5036TIP3    H136599   0.469   1.920   0.881  0.1122 -1.3434 -0.0081
 5036TIP3    H236600   0.454   2.026   0.773  0.3116  0.3916  1.6221
 5037TIP3   OH236601   2.618   2.535  15.875  0.1937 -0.5356  0.6388
 5037TIP3    H136602   2.679   2.472  15.915 -0.8674 -2.0083  0.0277
 5037TIP3    H236603   2.635   2.528  15.781 -0.5394 -0.5517  0.5044
 5038TIP3   OH236604   1.032   2.405   3.672 -0.4373 -0.3166  0.2840
 5038TIP3    H136605   1.094   2.350   3.720 -0.1455  0.4233  0.7557
 5038TIP3    H236606   1.084   2.479   3.640 -0.9409 -0.0303  0.1181
 5039TIP3   OH236607   2.914   5.390   5.410 -0.7306 -0.5488  0.1303
 5039TIP3    H136608   2.977   5.332   5.453  0.0654  0.0746 -0.1851
 5039TIP3    H236609   2.938   5.388   5.318 -0.8374  0.1120  0.0835
 5040TIP3   OH236610   1.721   2.726   4.857 -0.3823  0.2989  0.0619
 5040TIP3    H136611   1.684   2.792   4.799  0.2596 -0.1403 -0.8857
 5040TIP3    H236612   1.801   2.697   4.812 -0.4140 -0.7955  0.6722
 5041TIP3   OH236613   0.744   0.604  14.892 -0.2680 -0.0995 -0.1071
 5041TIP3    H136614   0.775   0.648  14.971 -1.3820 -0.1128  0.3531
 5041TIP3    H236615   0.715   0.676  14.835 -1.5551 -0.1879  0.4145
 5042TIP3   OH236616   3.805   6.451   0.681  0.2718  0.4453  0.9550
 5042TIP3    H136617   3.791   6.518   0.615  0.8825  0.7210  1.0984
 5042TIP3    H236618   3.878   6.484   0.734 -0.2185  0.2494  1.7840
 5043TIP3   OH236619   4.084   4.107   0.620 -0.3499  0.4574  0.2901
 5043TIP3    H136620   4.155   4.089   0.681  1.8844 -0.4098 -2.3481
 5043TIP3    H236621   4.092   4.039   0.553 -4.0123  0.0363  0.0456
 5044TIP3   OH236622   4.098   0.913   5.426  0.3593 -0.3638  0.1833
 5044TIP3    H136623   4.042   0.983   5.394  0.5313 -1.0299 -1.7103
 5044TIP3    H236624   4.169   0.957   5.471  0.3881  0.6764 -0.8529
 5045TIP3   OH236625   6.467   4.865   4.357  0.0257 -0.3908 -0.4422
 5045TIP3    H136626   6.388   4.909   4.389 -0.5188 -0.5042 -1.5996
 5045TIP3    H236627   6.521   4.854   4.435 -0.2720  1.3910  0.0714
 5046TIP3   OH236628   4.352   0.590  10.901 -0.8209  0.3641  0.1818
 5046TIP3    H136629   4.358   0.495  10.887  0.0869  0.4632 -0.1387
 5046TIP3    H236630   4.442   0.620  10.898 -1.1701  1.3734 -0.5952
 5047TIP3   OH236631   0.384   0.706  11.615 -0.0553  0.7818  0.5133
 5047TIP3    H136632   0.293   0.675  11.611  0.4394 -0.6087 -1.9452
 5047TIP3    H236633   0.404   0.708  11.709 -2.0122 -0.7922  1.0387
 5048TIP3   OH236634   3.522   3.952   2.310 -0.4756 -0.1898 -0.0130
 5048TIP3    H136635   3.440   3.908   2.290 -2.4188  2.0240  2.3660
 5048TIP3    H236636   3.560   3.901   2.382 -1.4107  0.4633  0.9816
 5049TIP3   OH236637   0.637   3.881   0.019  0.2699 -0.0485  0.2993
 5049TIP3    H136638   0.725   3.885   0.057 -0.5039 -0.4209  2.2377
 5049TIP3    H236639   0.618   3.787   0.013 -0.0533  0.0322  0.0459
 5050TIP3   OH236640   5.816   4.704   6.742  0.0036 -0.3959 -0.3186
 5050TIP3    H136641   5.855   4.693   6.655 -1.5474  0.3382 -1.1486
 5050TIP3    H236642   5.722   4.710   6.726 -0.2865  0.2577  1.3646
 5051TIP3   OH236643   5.182   1.216   1.559 -0.6143 -0.2082  0.1241
 5051TIP3    H136644   5.207   1.199   1.650 -0.5875 -2.0928 -0.2018
 5051TIP3    H236645   5.183   1.130   1.517 -0.0241  0.6839 -1.8216
 5052TIP3   OH236646   5.380   0.131  15.999 -0.3555 -0.1081  0.1001
 5052TIP3    H136647   5.454   0.099  16.050 -0.2493 -0.3496 -0.1986
 5052TIP3    H236648   5.391   0.226  15.997  0.0495 -0.1567 -0.0981
 5053TIP3   OH236649   1.155   4.999  13.787 -0.1537  0.2666  0.3309
 5053TIP3    H136650   1.238   4.960  13.812 -0.1216 -1.8601 -2.5735
 5053TIP3    H236651   1.097   4.984  13.863  0.5793 -3.3632  0.3268
 5054TIP3   OH236652   0.369   2.435   2.570  0.0437 -0.4174  0.4352
 5054TIP3    H136653   0.458   2.418   2.541 -0.0449  1.2016 -0.9457
 5054TIP3    H236654   0.314   2.400   2.499 -0.5248 -2.4186  1.7791
 5055TIP3   OH236655   2.234   1.105  11.120 -0.1421  0.9708 -0.2706
 5055TIP3    H136656   2.307   1.162  11.095 -0.1341  1.5093  0.9088
 5055TIP3    H236657   2.266   1.059  11.197 -1.2550  1.6961  0.6563
 5056TIP3   OH236658   3.559   0.385  11.311  0.1891  0.2685  0.1477
 5056TIP3    H136659   3.561   0.407  11.218 -0.4147 -0.1826  0.0254
 5056TIP3    H236660   3.469   0.358  11.327  0.3347  0.1788  0.8296
 5057TIP3   OH236661   2.823   6.276  12.751 -0.4409 -0.4785  0.2419
 5057TIP3    H136662   2.783   6.277  12.838 -1.6492 -0.4848 -0.2935
 5057TIP3    H236663   2.769   6.215  12.701  0.9349 -1.3626 -0.2084
 5058TIP3   OH236664   0.319   4.392  15.002  0.3256  0.1065  1.0322
 5058TIP3    H136665   0.295   4.338  15.077 -1.6209  0.6410  0.8737
 5058TIP3    H236666   0.270   4.474  15.015 -0.8579 -0.1410 -1.2504
 5059TIP3   OH236667   2.135   1.609  11.440  0.4882 -0.1426 -0.4378
 5059TIP3    H136668   2.222   1.646  11.424  1.3807 -1.4255  1.1743
 5059TIP3    H236669   2.152   1.520  11.471 -1.4678 -0.8926 -1.3529
 5060TIP3   OH236670   0.871   1.032  11.670  0.1688  0.1552  0.2582
 5060TIP3    H136671   0.882   1.095  11.741 -0.5967 -0.2703  0.7650
 5060TIP3    H236672   0.832   0.956  11.711 -0.9190  0.1435 -0.7396
 5061TIP3   OH236673   3.808   0.645  13.083  0.4437  0.3637  0.1003
 5061TIP3    H136674   3.868   0.572  13.095 -0.1899  0.0054  1.2959
 5061TIP3    H236675   3.841   0.692  13.006  0.2751 -1.7432 -1.3349
 5062TIP3   OH236676   5.896   2.877   5.064  0.2291  0.1313 -0.5673
 5062TIP3    H136677   5.908   2.968   5.093  1.3667 -0.0853 -0.3149
 5062TIP3    H236678   5.969   2.829   5.103  0.7926 -0.5229 -2.3037
 5063TIP3   OH236679   2.716   0.264  13.407  0.1127  0.3392 -0.2149
 5063TIP3    H136680   2.728   0.315  13.327  0.4386 -0.6923 -0.8415
 5063TIP3    H236681   2.690   0.328  13.473  1.0258  1.3900 -0.8479
 5064TIP3   OH236682   0.543   2.988   0.138 -0.1355  0.0309 -0.3725
 5064TIP3    H136683   0.527   2.895   0.155  1.6296 -0.3162 -0.4355
 5064TIP3    H236684   0.465   3.032   0.172 -0.2883 -1.3377  1.1871
 5065TIP3   OH236685   6.496   4.492  14.775  0.0615 -0.3596 -0.6443
 5065TIP3    H136686   6.542   4.501  14.692  0.3063  2.1362 -0.3124
 5065TIP3    H236687   6.428   4.426  14.758 -0.4813  0.7159 -3.0946
 5066TIP3   OH236688   4.205   5.715  12.158  0.0078  0.3503  0.4813
 5066TIP3    H136689   4.268   5.785  12.141 -0.4192  0.2999 -1.5508
 5066TIP3    H236690   4.241   5.639  12.112 -0.2386 -0.4009  1.4926
 5067TIP3   OH236691   1.129   5.283   2.953 -0.8266  0.4354  0.2694
 5067TIP3    H136692   1.090   5.324   3.030 -2.2417  1.4306 -0.9269
 5067TIP3    H236693   1.221   5.310   2.955 -0.9352  0.7507  1.3876
 5068TIP3   OH236694   6.398   4.220   0.356 -0.1584 -0.3234 -0.5793
 5068TIP3    H136695   6.451   4.291   0.393  0.3080 -0.8189 -0.2850
 5068TIP3    H236696   6.390   4.241   0.264  1.1769 -0.6138 -0.7806
 5069TIP3   OH236697   6.602   0.561   0.047  0.4258 -0.2133 -0.2256
 5069TIP3    H136698   6.543   0.629   0.079  0.7732  0.5505 -1.1356
 5069TIP3    H236699   6.659   0.541   0.121 -0.3364 -0.2486  0.3552
 5070TIP3   OH236700   3.467   6.227  11.006 -0.7165  0.1853 -0.2755
 5070TIP3    H136701   3.505   6.272  10.930 -0.5401 -0.6704 -0.6987
 5070TIP3    H236702   3.530   6.242  11.077 -0.1365 -0.2968 -0.6901
 5071TIP3   OH236703   1.591   6.030   3.365  0.2782  0.3353 -0.5393
 5071TIP3    H136704   1.651   6.098   3.336  0.5792 -0.0496 -0.8380
 5071TIP3    H236705   1.624   6.005   3.452 -0.4586  1.2930  0.0383
 5072TIP3   OH236706   1.372   3.653   0.176 -0.4886  0.4883 -0.0154
 5072TIP3    H136707   1.300   3.699   0.133 -0.4367  1.2997  0.7392
 5072TIP3    H236708   1.450   3.702   0.153 -0.1435 -0.4656 -0.9349
 5073TIP3   OH236709   2.207   6.461   5.188  0.2144 -0.6008 -0.3610
 5073TIP3    H136710   2.200   6.373   5.225  1.1013 -0.9855 -1.0878
 5073TIP3    H236711   2.266   6.452   5.114 -0.5338  0.4056 -1.1149
 5074TIP3   OH236712   2.355   1.002  12.907 -0.3785  0.3669 -0.4549
 5074TIP3    H136713   2.384   1.069  12.968 -0.9610  0.0199  0.2104
 5074TIP3    H236714   2.316   0.934  12.962 -0.3924 -0.2158 -1.1675
 5075TIP3   OH236715   3.413   3.946  12.085 -1.0643 -0.0261 -0.2481
 5075TIP3    H136716   3.385   3.938  12.176  1.4507 -0.5568  0.5668
 5075TIP3    H236717   3.493   3.999  12.089 -1.5421  0.9326 -2.3091
 5076TIP3   OH236718   0.321   6.266  14.720 -0.6988 -0.1406  0.3268
 5076TIP3    H136719   0.228   6.279  14.700 -0.5732 -1.0093 -0.9118
 5076TIP3    H236720   0.336   6.320  14.798 -1.9535  0.9551 -0.1446
 5077TIP3   OH236721   1.046   3.026   0.054 -0.2962 -0.1894  0.1677
 5077TIP3    H136722   1.034   2.965  -0.018  0.3238 -1.1679  0.8574
 5077TIP3    H236723   1.126   3.073   0.033 -1.6030  1.5416 -1.1342
 5078TIP3   OH236724   4.459   5.399   1.957  0.2511  0.1635  0.2157
 5078TIP3    H136725   4.431   5.375   2.046  0.7119 -1.3269 -0.0176
 5078TIP3    H236726   4.525   5.467   1.970  0.9802 -0.6748  1.0802
 5079TIP3   OH236727   5.270   6.089   3.720  0.5513 -0.4119 -0.3069
 5079TIP3    H136728   5.279   6.162   3.781  1.6134 -0.8394  0.0659
 5079TIP3    H236729   5.354   6.085   3.675 -0.2813  0.0526 -2.0041
 5080TIP3   OH236730   1.009   3.375   3.266 -0.0501 -0.6853 -0.1291
 5080TIP3    H136731   1.037   3.365   3.357  1.1627 -1.1694 -0.5352
 5080TIP3    H236732   1.057   3.452   3.234  0.4437 -1.2075 -0.6827
 5081TIP3   OH236733   5.492   2.788   1.495 -0.3158 -0.1303  0.6795
 5081TIP3    H136734   5.523   2.873   1.465  0.9099 -0.4275  1.0213
 5081TIP3    H236735   5.449   2.749   1.419  2.2420 -0.6465 -0.6253
 5082TIP3   OH236736   3.670   3.808  13.686 -0.3252  0.1236  0.0735
 5082TIP3    H136737   3.655   3.880  13.624 -0.8578 -0.8964 -1.0231
 5082TIP3    H236738   3.582   3.781  13.713 -0.1026  1.0300  1.9073
 5083TIP3   OH236739   5.592   4.108   5.679  0.4950 -0.0774  0.0036
 5083TIP3    H136740   5.676   4.072   5.708  0.7897  0.6028 -0.0119
 5083TIP3    H236741   5.604   4.202   5.680 -0.0026  0.0022 -0.8043
 5084TIP3   OH236742   6.561   5.385  10.943  1.0815 -0.5926 -0.2970
 5084TIP3    H136743   6.555   5.291  10.930 -0.4904 -0.3594 -1.7120
 5084TIP3    H236744   6.597   5.418  10.860 -1.2581  0.2548 -1.0654
 5085TIP3   OH236745   4.908   4.680   2.763  0.5723 -0.0538  0.4972
 5085TIP3    H136746   4.950   4.608   2.716 -0.4495 -0.4113  0.1028
 5085TIP3    H236747   4.917   4.656   2.855  1.9593  0.2992  0.4750
 5086TIP3   OH236748   2.367   5.955   6.383 -0.6899  0.0361  0.1126
 5086TIP3    H136749   2.450   5.930   6.425 -0.3654  0.1821 -0.4283
 5086TIP3    H236750   2.377   5.927   6.292 -1.1605  0.2292 -0.0003
 5087TIP3   OH236751   5.485   1.974   5.033 -0.1626 -0.2349 -0.0847
 5087TIP3    H136752   5.524   1.985   5.120  0.8054  1.2750 -0.6643
 5087TIP3    H236753   5.436   1.892   5.039  1.7968 -1.4060  1.1967
 5088TIP3   OH236754   5.371   6.582   0.716 -0.2891  0.4112 -0.1758
 5088TIP3    H136755   5.338   6.543   0.798 -2.4190 -1.0220 -1.6072
 5088TIP3    H236756   5.298   6.634   0.683  0.2883  0.4149 -1.5091
 5089TIP3   OH236757   3.269   4.789  11.091  0.0514  0.7550  0.6488
 5089TIP3    H136758   3.306   4.877  11.096 -0.2614  0.9269  0.0204
 5089TIP3    H236759   3.235   4.773  11.179  0.3623  1.1489  0.8455
 5090TIP3   OH236760   0.753   0.024  10.533  0.1570 -0.2560  0.4073
 5090TIP3    H136761   0.704  -0.050  10.569 -0.5736  0.5103  1.0252
 5090TIP3    H236762   0.690   0.096  10.531  1.4348  0.9975  2.0032
 5091TIP3   OH236763   0.749   2.540  14.434  0.1636  0.4182 -0.3955
 5091TIP3    H136764   0.825   2.498  14.473 -1.0486 -1.8782 -0.3564
 5091TIP3    H236765   0.776   2.562  14.345  0.3894 -1.9504 -0.9614
 5092TIP3   OH236766   6.374   5.536  15.928  0.0205 -0.1009  0.2546
 5092TIP3    H136767   6.458   5.557  15.968  0.1679 -0.1670 -0.0218
 5092TIP3    H236768   6.309   5.575  15.987  0.2364 -0.2517  0.5887
 5093TIP3   OH236769   6.497   0.490  12.962  0.6548  0.3474 -0.1266
 5093TIP3    H136770   6.538   0.404  12.969 -0.6709 -0.4534 -1.4935
 5093TIP3    H236771   6.560   0.543  12.912  1.2831  0.0675  0.3506
 5094TIP3   OH236772   4.639   4.711   1.407 -0.5130 -0.1611 -0.1155
 5094TIP3    H136773   4.549   4.719   1.374 -1.3153  0.8112  2.1116
 5094TIP3    H236774   4.645   4.777   1.476  2.3439  0.6470 -1.0085
 5095TIP3   OH236775   2.349   2.637  13.562 -0.0032  0.1544 -0.4370
 5095TIP3    H136776   2.352   2.541  13.568  1.5968  0.2845  1.9333
 5095TIP3    H236777   2.388   2.668  13.643  0.8735  2.8471 -1.7645
 5096TIP3   OH236778   0.068   3.590  10.061  0.4126 -0.1610  0.4368
 5096TIP3    H136779   0.082   3.512  10.116 -1.8167 -0.5078  0.6149
 5096TIP3    H236780   0.038   3.555   9.977  0.7242  0.4610  0.0630
 5097TIP3   OH236781   4.088   0.004  14.956 -0.4257 -0.4236 -0.2166
 5097TIP3    H136782   4.043   0.010  15.040 -1.2427 -1.8188 -0.5253
 5097TIP3    H236783   4.020  -0.023  14.894  0.4935 -0.9889 -1.0053
 5098TIP3   OH236784   5.737   2.768  13.744 -0.4884 -0.2314  0.7582
 5098TIP3    H136785   5.643   2.773  13.759 -0.6059 -0.7975  0.2364
 5098TIP3    H236786   5.747   2.709  13.669  0.2741 -0.0965  0.7405
 5099TIP3   OH236787   5.650   4.129  15.387  0.5585  0.2415 -0.3223
 5099TIP3    H136788   5.618   4.109  15.475  0.2856 -1.1730 -0.7204
 5099TIP3    H236789   5.624   4.220  15.373  2.3823  1.1853  1.8060
 5100TIP3   OH236790   3.334   5.072  13.497  0.2783 -0.2727 -0.2943
 5100TIP3    H136791   3.247   5.105  13.474  0.3800  0.3147  0.1285
 5100TIP3    H236792   3.341   4.988  13.452  0.5028  0.8494 -2.5274
 5101TIP3   OH236793   3.998   2.239   0.447  0.4421  0.3783  0.0569
 5101TIP3    H136794   4.054   2.272   0.517  2.5386 -1.1848 -0.7980
 5101TIP3    H236795   4.058   2.208   0.379 -1.4768 -0.2004 -1.4963
 5102TIP3   OH236796   0.102   0.613  11.572 -0.2841  0.3856 -0.2376
 5102TIP3    H136797   0.053   0.634  11.492 -1.4126  0.0506  0.3461
 5102TIP3    H236798   0.135   0.525  11.557 -0.4127  0.3610 -0.3839
 5103TIP3   OH236799   1.614   5.012  12.495  0.3957  0.4745  0.6208
 5103TIP3    H136800   1.699   5.003  12.538  0.6368  3.5192  0.9492
 5103TIP3    H236801   1.551   5.015  12.567  0.2448  0.5060  0.4886
 5104TIP3   OH236802   4.883   2.987   0.971 -0.4306 -0.4689 -0.3651
 5104TIP3    H136803   4.870   3.069   0.924 -1.5514 -0.3306  0.1446
 5104TIP3    H236804   4.835   2.922   0.919  1.2079 -1.0062 -1.2665
 5105TIP3   OH236805   3.772   1.824  15.636  0.1995  1.0745  0.0803
 5105TIP3    H136806   3.699   1.763  15.623  0.4930  0.7514 -0.0790
 5105TIP3    H236807   3.768   1.845  15.729 -0.6274  1.7508 -0.0951
 5106TIP3   OH236808   3.098   1.417  11.871 -0.0166  0.1592 -0.0578
 5106TIP3    H136809   3.107   1.322  11.861  0.6003  0.1091  0.7917
 5106TIP3    H236810   3.116   1.452  11.784 -0.6347 -0.5211 -0.4713
 5107TIP3   OH236811   3.828   4.790  14.336 -0.1882 -0.6223  0.3310
 5107TIP3    H136812   3.791   4.878  14.346 -0.0735 -0.0654 -3.0054
 5107TIP3    H236813   3.910   4.803  14.288 -2.1347 -2.6343 -4.1077
 5108TIP3   OH236814   1.747   0.361   5.068 -0.4957  0.0123  0.1635
 5108TIP3    H136815   1.733   0.267   5.051  0.6814 -0.4906  1.7159
 5108TIP3    H236816   1.696   0.378   5.147  2.1924 -0.2788  2.0768
 5109TIP3   OH236817   0.405   6.639   6.204 -0.6456 -0.0776 -0.0980
 5109TIP3    H136818   0.457   6.666   6.128  1.8620  0.2018  1.5843
 5109TIP3    H236819   0.340   6.579   6.168  1.0488 -0.7409 -2.3486
 5110TIP3   OH236820   0.272   3.635   5.278 -0.1239 -0.0187 -0.3188
 5110TIP3    H136821   0.344   3.698   5.275  0.8209 -1.0730 -0.9383
 5110TIP3    H236822   0.307   3.561   5.327 -0.8934 -0.4317 -0.3724
 5111TIP3   OH236823   6.573   5.698  14.170  0.4719 -0.1881  0.3283
 5111TIP3    H136824   6.576   5.767  14.103 -1.0201  0.2942  0.7230
 5111TIP3    H236825   6.583   5.617  14.121 -3.9007 -0.1289 -1.0742
 5112TIP3   OH236826   5.065   4.462   0.354 -0.2985 -0.2974 -0.8777
 5112TIP3    H136827   5.103   4.428   0.273  0.6064 -2.3438  0.3057
 5112TIP3    H236828   5.094   4.553   0.358 -1.2166  0.1887 -3.2971
 5113TIP3   OH236829   2.437   1.371   4.043  0.1618  0.3018  0.2749
 5113TIP3    H136830   2.474   1.446   4.090 -0.7614  0.4995  0.7098
 5113TIP3    H236831   2.343   1.389   4.040 -0.3634 -1.7418  2.0874
 5114TIP3   OH236832   5.287   5.302  17.077 -0.3320 -0.3729  0.1884
 5114TIP3    H136833   5.380   5.289  17.061 -0.1946  0.5743  0.2112
 5114TIP3    H236834   5.282   5.373  17.141 -1.1052  0.6634 -0.9716
 5115TIP3   OH236835   2.027   2.559   0.391  0.3529 -0.2534  0.0863
 5115TIP3    H136836   2.065   2.480   0.429 -0.7189 -0.9246 -0.2018
 5115TIP3    H236837   2.053   2.557   0.299  0.6922 -0.0272  0.1727
 5116TIP3   OH236838   5.355   4.009  11.547  0.5512 -0.3874 -1.1022
 5116TIP3    H136839   5.404   3.929  11.528  0.6678 -1.0045  1.4712
 5116TIP3    H236840   5.422   4.076  11.559  0.6047 -0.5292 -0.5990
 5117TIP3   OH236841   5.295   5.008  12.840  0.2312 -0.2580  0.0154
 5117TIP3    H136842   5.220   4.995  12.781 -1.3015 -0.5657  1.9108
 5117TIP3    H236843   5.297   5.103  12.854  0.4436 -0.2101 -0.3249
 5118TIP3   OH236844   2.090   2.842  15.077  0.0361  0.0946  0.4721
 5118TIP3    H136845   2.069   2.748  15.084  1.9447 -0.5582 -1.3908
 5118TIP3    H236846   2.118   2.867  15.165  1.8465 -1.7694  0.4976
 5119TIP3   OH236847   0.345   5.386  13.791 -0.0188  0.4655 -0.4601
 5119TIP3    H136848   0.441   5.388  13.796 -0.0205  0.0872 -0.2271
 5119TIP3    H236849   0.320   5.478  13.785  0.3604  0.5676 -0.5183
 5120TIP3   OH236850   3.081   2.876  13.971  0.3712 -0.4006  0.4338
 5120TIP3    H136851   3.121   2.793  13.944 -0.4449 -0.1899 -1.6870
 5120TIP3    H236852   3.155   2.933  13.992  1.1394 -0.7324 -1.1568
 5121TIP3   OH236853   6.454   5.868  10.289  0.2611  0.7560 -0.1678
 5121TIP3    H136854   6.477   5.961  10.287  0.1767  0.7751 -2.3445
 5121TIP3    H236855   6.366   5.864  10.252  0.1422 -0.1613  0.1885
 5122TIP3   OH236856   2.708   2.976   3.187 -0.3511 -0.1619 -0.0444
 5122TIP3    H136857   2.615   2.994   3.176 -0.8213 -1.8588  0.9583
 5122TIP3    H236858   2.734   2.932   3.107  0.0620  1.8463 -1.1003
 5123TIP3   OH236859   1.167   2.295   1.480 -0.4204 -0.2785 -0.7131
 5123TIP3    H136860   1.115   2.343   1.416 -0.4537 -0.8250 -1.0978
 5123TIP3    H236861   1.241   2.260   1.430  0.0193  0.0255 -0.2812
 5124TIP3   OH236862   4.397   6.306  11.036 -0.3637  0.2303  0.2372
 5124TIP3    H136863   4.461   6.253  10.989 -2.9597 -1.7241 -1.4291
 5124TIP3    H236864   4.414   6.288  11.128  0.6105 -1.3390 -0.2066
 5125TIP3   OH236865   4.098   2.150   5.448 -0.0719  0.3444 -0.2904
 5125TIP3    H136866   4.144   2.066   5.451  0.5063  0.5534 -2.0403
 5125TIP3    H236867   4.011   2.128   5.415 -1.1269  0.0294  2.4632
 5126TIP3   OH236868   2.098   2.656  16.274  0.3982 -0.2214 -0.0661
 5126TIP3    H136869   2.147   2.593  16.220  0.2900 -0.8083  0.5018
 5126TIP3    H236870   2.127   2.742  16.243  0.8186 -0.5525 -0.6186
 5127TIP3   OH236871   5.807   2.403  17.186  0.5639  0.3007 -0.4085
 5127TIP3    H136872   5.713   2.398  17.206  0.2281  0.7931 -1.7681
 5127TIP3    H236873   5.848   2.343  17.248 -0.5250  0.8987  0.9660
 5128TIP3   OH236874   2.561   4.048  10.815 -0.1756 -0.4962 -0.4774
 5128TIP3    H136875   2.567   4.095  10.898 -1.6119 -0.6520 -0.2619
 5128TIP3    H236876   2.539   4.116  10.751  1.9309 -0.1878 -0.9773
 5129TIP3   OH236877   4.388   2.833  16.608 -0.1698  0.3217 -0.6949
 5129TIP3    H136878   4.329   2.784  16.665  0.2235  1.3602  0.6568
 5129TIP3    H236879   4.356   2.815  16.520 -1.5140 -0.4044 -0.0891
 5130TIP3   OH236880   5.780   0.413   5.538 -0.0846 -0.9698 -0.2629
 5130TIP3    H136881   5.782   0.417   5.442 -0.1081 -0.7442 -0.2553
 5130TIP3    H236882   5.851   0.472   5.565 -0.2120 -0.8749 -0.1387
 5131TIP3   OH236883   3.145   2.234   5.369 -0.0888 -0.1188 -0.1046
 5131TIP3    H136884   3.058   2.257   5.336 -0.3448  1.9884  1.8161
 5131TIP3    H236885   3.129   2.194   5.454  0.8033  0.3369  0.2962
 5132TIP3   OH236886   4.394   3.232  13.661  0.5095 -0.4609  0.0684
 5132TIP3    H136887   4.314   3.249  13.611  0.2119 -1.2578  0.2677
 5132TIP3    H236888   4.433   3.156  13.618  0.6898 -0.6268  0.5267
 5133TIP3   OH236889   6.145   3.483   4.052 -0.2390  0.5636  0.2378
 5133TIP3    H136890   6.209   3.547   4.083  2.8427 -1.3023 -1.6794
 5133TIP3    H236891   6.155   3.408   4.111  1.3180 -0.6914 -1.4791
 5134TIP3   OH236892   4.986   2.094   2.694 -0.0664  0.4944  0.9208
 5134TIP3    H136893   4.954   2.117   2.781 -1.2636  3.3853 -0.1660
 5134TIP3    H236894   4.949   2.160   2.636  1.2839 -0.8835 -1.7186
 5135TIP3   OH236895   5.114   4.050   0.497  0.3662  0.3287  0.2161
 5135TIP3    H136896   5.052   4.121   0.479  0.5126  0.7751  1.4307
 5135TIP3    H236897   5.094   4.022   0.586  1.9186  0.4952  0.6454
 5136TIP3   OH236898   6.025   2.012   1.142 -0.3519 -0.4618  0.0562
 5136TIP3    H136899   6.043   2.046   1.055  0.6391 -0.4479  0.2595
 5136TIP3    H236900   6.111   1.995   1.180 -0.7760 -0.6773  0.9506
 5137TIP3   OH236901   3.635   5.322  11.285  0.4507 -0.3083 -0.0938
 5137TIP3    H136902   3.648   5.232  11.317 -0.3982 -0.2702  0.3682
 5137TIP3    H236903   3.561   5.355  11.335  0.6585  0.6038 -0.3787
 5138TIP3   OH236904   4.892   0.302   3.223 -0.1175  0.0744 -0.1220
 5138TIP3    H136905   4.889   0.337   3.134  2.6852 -0.1486 -0.4010
 5138TIP3    H236906   4.888   0.379   3.280 -0.0965  0.3544 -0.5027
 5139TIP3   OH236907   4.332   2.982   5.192  0.0390  0.0060 -0.0573
 5139TIP3    H136908   4.383   3.059   5.215  0.7125 -0.4749  0.1081
 5139TIP3    H236909   4.392   2.927   5.142  0.0301 -1.0497  1.0459
 5140TIP3   OH236910   3.091   2.928  11.065 -0.1070  0.1896  0.0926
 5140TIP3    H136911   3.090   2.832  11.070  0.4260  0.2063  0.6284
 5140TIP3    H236912   3.147   2.948  10.991  0.5850  0.0945  0.5778
 5141TIP3   OH236913   4.878   5.553   0.090 -0.2795  0.0163 -0.2756
 5141TIP3    H136914   4.865   5.615   0.018  0.3068  1.4636  0.8046
 5141TIP3    H236915   4.972   5.541   0.096 -0.2943  0.1515  0.4169
 5142TIP3   OH236916   4.118   4.992   1.339 -0.2618  0.0857  0.5083
 5142TIP3    H136917   4.091   4.995   1.247  1.7016 -1.0307 -0.1573
 5142TIP3    H236918   4.080   4.910   1.372 -0.5139  0.2192  0.5566
 5143TIP3   OH236919   1.049   1.408  12.481 -0.4191  0.4454  0.4203
 5143TIP3    H136920   0.978   1.345  12.478 -0.6708  0.7618 -1.3183
 5143TIP3    H236921   1.126   1.359  12.449 -0.0296  0.3292  1.5082
 5144TIP3   OH236922   2.738   3.283   2.476 -0.1153 -0.5627 -0.1604
 5144TIP3    H136923   2.736   3.378   2.470 -2.0977 -0.6470 -1.9902
 5144TIP3    H236924   2.742   3.254   2.385 -2.7051 -2.2119  0.1647
 5145TIP3   OH236925   3.608   0.363   1.203 -0.3976 -0.5858 -0.5936
 5145TIP3    H136926   3.633   0.389   1.292 -2.4792  1.4356 -0.4873
 5145TIP3    H236927   3.689   0.372   1.152  0.3354  0.4086  0.6695
 5146TIP3   OH236928   0.745   6.604  12.447 -0.1445 -0.3854 -0.1684
 5146TIP3    H136929   0.818   6.588  12.387  1.3065 -0.0227  1.4054
 5146TIP3    H236930   0.743   6.526  12.503 -0.7553 -0.2341  0.0309
 5147TIP3   OH236931   4.985   4.065   1.909 -0.5224  0.5470 -0.1165
 5147TIP3    H136932   4.905   4.118   1.914 -1.2099 -0.2741 -1.8079
 5147TIP3    H236933   4.987   4.031   1.820  0.6095 -1.1746  0.5027
 5148TIP3   OH236934   2.658   1.009  14.613 -0.8684  0.2275  0.2445
 5148TIP3    H136935   2.631   1.095  14.643 -0.3549  0.7166 -0.6577
 5148TIP3    H236936   2.620   1.001  14.525  1.2781  0.6590 -0.7795
 5149TIP3   OH236937   1.074   3.580   4.137 -0.0086 -0.1937  0.9951
 5149TIP3    H136938   1.095   3.657   4.189 -0.7249 -0.4415  1.6805
 5149TIP3    H236939   1.027   3.613   4.061 -0.4401  0.0380  1.3610
 5150TIP3   OH236940   5.450   3.624   4.266  0.2656  0.2848 -0.5105
 5150TIP3    H136941   5.488   3.550   4.313  0.8018 -0.5683 -2.2065
 5150TIP3    H236942   5.367   3.641   4.310 -0.0245 -1.5472 -0.2712
 5151TIP3   OH236943   0.930   1.866  15.871  0.3212 -0.3058  0.2230
 5151TIP3    H136944   0.869   1.892  15.802 -0.0877 -1.2456  0.2127
 5151TIP3    H236945   0.888   1.791  15.912  0.4109  0.4135  1.6972
 5152TIP3   OH236946   5.799   1.437   2.588  0.2856  0.3487  0.1547
 5152TIP3    H136947   5.893   1.453   2.580  0.1614  1.4170  0.5753
 5152TIP3    H236948   5.790   1.388   2.670  0.3929  1.2928  0.7516
 5153TIP3   OH236949   3.011   1.886   3.297  0.0946  0.0581 -0.5913
 5153TIP3    H136950   2.947   1.862   3.231 -0.5421  0.3913 -0.1012
 5153TIP3    H236951   2.961   1.898   3.377  0.6994  0.7702 -0.3028
 5154TIP3   OH236952   1.811   0.051   1.223 -0.3643  0.4585 -0.1161
 5154TIP3    H136953   1.869   0.123   1.198  0.0505  0.8042  1.7110
 5154TIP3    H236954   1.740   0.054   1.159  1.2817  0.4027 -2.0592
 5155TIP3   OH236955   4.766   0.761  11.947  0.7271 -0.2624 -0.0959
 5155TIP3    H136956   4.814   0.691  11.904  1.6746 -0.1511  0.7518
 5155TIP3    H236957   4.689   0.717  11.986  0.9786 -0.7203 -0.1100
 5156TIP3   OH236958   3.485   2.107   2.156  0.4694 -0.0355  0.3401
 5156TIP3    H136959   3.402   2.143   2.187  0.2166  2.1835 -2.4748
 5156TIP3    H236960   3.464   2.070   2.070  2.1596 -0.4715  0.0800
 5157TIP3   OH236961   3.999   0.623   4.151 -0.4986 -0.1794 -0.0975
 5157TIP3    H136962   4.067   0.671   4.198  1.2587  0.0042 -2.6393
 5157TIP3    H236963   3.920   0.675   4.164  0.6704  1.6965 -0.1221
 5158TIP3   OH236964   3.531   4.770  14.436 -0.0552 -0.2133  0.1962
 5158TIP3    H136965   3.601   4.756  14.372  0.3616  2.3512 -0.0115
 5158TIP3    H236966   3.451   4.764  14.385  0.1836  0.0123 -0.2167
 5159TIP3   OH236967   0.700   4.809  12.298  0.2582  0.3606  0.1849
 5159TIP3    H136968   0.783   4.833  12.339 -0.0266 -0.3548  1.2108
 5159TIP3    H236969   0.657   4.752  12.362 -0.8622  0.4228 -0.4879
 5160TIP3   OH236970   0.845   4.676   4.012 -0.1399  0.1560 -0.4232
 5160TIP3    H136971   0.876   4.713   4.095  0.0271  0.7329 -0.7386
 5160TIP3    H236972   0.807   4.750   3.966 -0.5304 -0.2333 -0.7259
 5161TIP3   OH236973   1.223   1.257  14.809  0.3198  0.4601 -0.5120
 5161TIP3    H136974   1.130   1.271  14.822  0.3900  1.3636 -0.9106
 5161TIP3    H236975   1.229   1.172  14.764 -0.2299 -0.1191  0.4664
 5162TIP3   OH236976   1.431   4.221   1.215  0.0576 -0.1538 -0.3079
 5162TIP3    H136977   1.395   4.301   1.254  0.2505 -0.0526 -0.3375
 5162TIP3    H236978   1.410   4.152   1.278  0.7684  0.0842  0.1959
 5163TIP3   OH236979   5.454   3.857   1.572 -0.1152  0.1216 -0.4042
 5163TIP3    H136980   5.512   3.835   1.644  2.1258  1.4463 -1.6759
 5163TIP3    H236981   5.406   3.935   1.601 -0.1994 -0.1309  0.1279
 5164TIP3   OH236982   1.929   4.418  12.681  0.0436 -0.6516 -0.4225
 5164TIP3    H136983   1.956   4.508  12.664 -2.4060  0.4849  1.1494
 5164TIP3    H236984   1.994   4.384  12.742 -0.1892  0.8461  0.7046
 5165TIP3   OH236985   5.105   1.667   0.452 -0.1942  0.3674 -0.3478
 5165TIP3    H136986   5.148   1.581   0.445  0.7061  0.8976 -1.8122
 5165TIP3    H236987   5.105   1.686   0.546  1.4529 -0.3500 -0.1571
 5166TIP3   OH236988   1.521   3.709  12.171  0.1706  0.2179  0.5565
 5166TIP3    H136989   1.491   3.800  12.177  1.6656  0.6670  2.2268
 5166TIP3    H236990   1.608   3.715  12.132  0.4647 -0.4309  1.0811
 5167TIP3   OH236991   1.702   4.934   3.083 -0.1208  0.1317  0.1674
 5167TIP3    H136992   1.759   4.901   3.013  0.8536  1.5817  0.2467
 5167TIP3    H236993   1.666   4.855   3.123  1.9389 -0.8588  0.1907
 5168TIP3   OH236994   2.216   6.685   4.166 -0.3837  0.0519 -0.5506
 5168TIP3    H136995   2.298   6.660   4.124  0.0989  1.3161 -0.4114
 5168TIP3    H236996   2.224   6.780   4.179 -0.6531 -0.2167  2.0636
 5169TIP3   OH236997   0.983   5.044   3.274 -0.1262  0.1800 -0.1269
 5169TIP3    H136998   0.978   4.955   3.308 -0.6437  0.7013  1.2468
 5169TIP3    H236999   1.074   5.055   3.248  0.1997 -0.4050  0.7161
 5170TIP3   OH237000   3.413   6.797  15.171 -0.1594  0.1791  0.5257
 5170TIP3    H137001   3.319   6.800  15.152  0.0242 -1.7600 -0.9994
 5170TIP3    H237002   3.455   6.838  15.096  0.2591 -0.5191  0.3622
 5171TIP3   OH237003   4.409   4.974   4.609  0.4872 -0.0591  0.0940
 5171TIP3    H137004   4.422   4.910   4.679 -0.8773  1.1850  1.5721
 5171TIP3    H237005   4.367   4.925   4.539  1.2193 -1.1836  0.4163
 5172TIP3   OH237006   2.247   4.918  13.859 -0.2800  0.2041  0.5419
 5172TIP3    H137007   2.202   4.965  13.789  0.5851  3.8065  2.1488
 5172TIP3    H237008   2.189   4.844  13.879 -2.6705  1.4791 -1.1167
 5173TIP3   OH237009   6.180   4.996   4.124  0.3939 -0.1487  0.0011
 5173TIP3    H137010   6.258   5.051   4.129  0.6480 -0.5071  0.0449
 5173TIP3    H237011   6.145   5.012   4.036  0.9503 -0.5642 -0.2984
 5174TIP3   OH237012   3.253   5.484   3.694  0.4216 -0.2318 -0.0921
 5174TIP3    H137013   3.275   5.548   3.762 -0.7868  0.6439 -0.4953
 5174TIP3    H237014   3.336   5.463   3.653  0.5657  3.5100 -2.0589
 5175TIP3   OH237015   4.284   2.968   3.789 -0.3738 -0.3574 -0.4317
 5175TIP3    H137016   4.227   2.950   3.864 -0.6844  2.1356  0.0212
 5175TIP3    H237017   4.243   2.922   3.716 -1.0609 -1.3874  0.5746
 5176TIP3   OH237018   3.831   1.796  14.762  0.8116  0.4572 -0.2716
 5176TIP3    H137019   3.817   1.805  14.667  1.3021  0.0477 -0.3892
 5176TIP3    H237020   3.746   1.767  14.795  1.1250 -1.2825 -0.8720
 5177TIP3   OH237021   0.885   3.031  16.956 -0.2005 -0.7110 -0.1981
 5177TIP3    H137022   0.842   3.023  16.871 -0.7785 -1.6423  0.1781
 5177TIP3    H237023   0.822   3.076  17.011  0.3265  0.2471 -0.3529
 5178TIP3   OH237024   5.738   4.576  13.550 -0.4058 -0.1242 -0.7029
 5178TIP3    H137025   5.832   4.594  13.543 -0.4540 -0.0531 -1.2537
 5178TIP3    H237026   5.723   4.559  13.643  0.2959 -0.8898 -0.7155
 5179TIP3   OH237027   5.328   3.709   5.433 -0.0990  0.1936 -0.0868
 5179TIP3    H137028   5.391   3.644   5.466 -0.7598  0.0797  1.0073
 5179TIP3    H237029   5.383   3.782   5.405  0.5663 -0.1541  0.2599
 5180TIP3   OH237030   5.436   6.439  13.732 -0.2058 -0.2531  0.2693
 5180TIP3    H137031   5.474   6.449  13.644  1.9081  1.8035  1.3316
 5180TIP3    H237032   5.350   6.481  13.725 -0.2463 -0.4875 -0.9114
 5181TIP3   OH237033   1.511   0.871   5.236  0.1204  0.3961  0.3333
 5181TIP3    H137034   1.582   0.897   5.178  0.1433  3.2591  1.4681
 5181TIP3    H237035   1.516   0.933   5.309 -0.9498 -1.9841  2.5818
 5182TIP3   OH237036   4.617   5.231  15.470  0.3926  0.0483 -0.3411
 5182TIP3    H137037   4.541   5.187  15.510  0.9423 -1.1135 -0.5125
 5182TIP3    H237038   4.675   5.251  15.544  0.3291  0.1039 -0.3063
 5183TIP3   OH237039   3.569   2.536   0.489 -0.0997  0.0517  0.4698
 5183TIP3    H137040   3.657   2.566   0.467 -0.7383  0.8508 -1.1421
 5183TIP3    H237041   3.554   2.461   0.432 -0.6223  0.1897  0.4210
 5184TIP3   OH237042   3.352   5.280  13.681 -0.2338 -0.1214 -0.5828
 5184TIP3    H137043   3.304   5.361  13.660 -1.4187 -0.1808  1.6054
 5184TIP3    H237044   3.333   5.222  13.607 -1.3104  0.8076 -1.0791
 5185TIP3   OH237045   4.472   3.953  12.343  0.0372  0.2994  0.5207
 5185TIP3    H137046   4.545   3.918  12.393  0.5268  0.6840  0.0843
 5185TIP3    H237047   4.400   3.892  12.360  0.3211  0.1685  1.3154
 5186TIP3   OH237048   1.840   1.465  16.264  0.0408 -0.3053  0.5443
 5186TIP3    H137049   1.911   1.403  16.282  1.7961  1.5083  0.2894
 5186TIP3    H237050   1.777   1.450  16.334  1.6158 -0.6880  1.9564
 5187TIP3   OH237051   2.994   5.009  14.975  0.5005 -0.0910  0.0968
 5187TIP3    H137052   3.041   5.079  14.930 -0.6286 -0.0644 -1.1173
 5187TIP3    H237053   3.060   4.967  15.030  1.6878  0.6072 -0.7445
 5188TIP3   OH237054   3.481   4.850  16.395  0.5208  0.4579 -0.5191
 5188TIP3    H137055   3.399   4.884  16.431  0.6430 -0.3504  0.5925
 5188TIP3    H237056   3.455   4.800  16.318 -0.1785 -0.7095  0.4487
 5189TIP3   OH237057   1.970   0.898   4.423 -0.5122  0.2643  0.4836
 5189TIP3    H137058   1.997   0.853   4.343 -0.2256 -1.2554  1.3908
 5189TIP3    H237059   2.017   0.981   4.422  2.1094 -1.1162  0.6386
 5190TIP3   OH237060   0.655   1.458  14.689  0.7974 -0.4581  0.2027
 5190TIP3    H137061   0.738   1.431  14.651  0.4901 -0.0565 -0.7994
 5190TIP3    H237062   0.606   1.377  14.700  0.4960 -0.5140 -1.2753
 5191TIP3   OH237063   5.407   6.268   1.796 -0.7069  0.1195  0.5155
 5191TIP3    H137064   5.318   6.269   1.831 -0.4717  2.5947  1.2139
 5191TIP3    H237065   5.452   6.337   1.844  0.9497  0.4680 -1.4362
 5192TIP3   OH237066   0.680   6.106   0.320 -0.3966 -0.5585  0.5250
 5192TIP3    H137067   0.665   6.184   0.372  2.2994 -0.8230  1.8890
 5192TIP3    H237068   0.594   6.083   0.285 -2.1259  0.3961  3.7879
 5193TIP3   OH237069   0.715   5.587  14.143 -0.4343  0.4323  0.2402
 5193TIP3    H137070   0.632   5.598  14.190 -1.3568 -2.1933 -0.6051
 5193TIP3    H237071   0.703   5.507  14.091  3.0140 -0.7093  0.9346
 5194TIP3   OH237072   4.810   1.384   1.426 -0.3531 -0.2428 -0.2903
 5194TIP3    H137073   4.726   1.343   1.405 -0.1051 -0.7294 -0.3679
 5194TIP3    H237074   4.825   1.363   1.518 -0.7782  0.6915 -0.0010
 5195TIP3   OH237075   1.140   2.633   2.494  0.1051 -0.2741 -0.2679
 5195TIP3    H137076   1.151   2.720   2.456 -0.0483  0.0997  0.5240
 5195TIP3    H237077   1.224   2.616   2.538  0.2387 -0.6542 -0.6584
 5196TIP3   OH237078   5.213   3.537  14.480 -0.7437  0.0625  0.0981
 5196TIP3    H137079   5.215   3.500  14.392  0.2923  0.0019  0.1424
 5196TIP3    H237080   5.130   3.585  14.483 -0.3804  0.8180 -1.2207
 5197TIP3   OH237081   1.836   1.494   4.642 -0.2698 -0.0200  0.0430
 5197TIP3    H137082   1.807   1.577   4.603  1.9266  0.8725  0.1356
 5197TIP3    H237083   1.871   1.520   4.728 -3.4535 -1.7030  2.0620
 5198TIP3   OH237084   4.691   3.663  13.356 -0.1761 -0.1102  0.5960
 5198TIP3    H137085   4.668   3.631  13.443 -1.3362 -0.3199  0.2242
 5198TIP3    H237086   4.701   3.758  13.367  0.3576 -0.2196  1.0897
 5199TIP3   OH237087   5.642   0.367   0.028  0.4294  0.4964 -0.5788
 5199TIP3    H137088   5.687   0.293   0.067  0.1426  0.1085 -0.9669
 5199TIP3    H237089   5.554   0.364   0.065  0.5511  0.9170 -0.2481
 5200TIP3   OH237090   3.740   2.191   0.531 -0.1767 -1.0215 -0.3913
 5200TIP3    H137091   3.678   2.238   0.475 -0.3238  0.6471  1.0838
 5200TIP3    H237092   3.826   2.228   0.509 -0.4551  1.3404  1.9098
 5201TIP3   OH237093   4.239   6.384  13.692  0.0212 -0.5046 -0.3282
 5201TIP3    H137094   4.284   6.396  13.608  2.4959 -0.1481  0.9763
 5201TIP3    H237095   4.193   6.467  13.707 -1.6086 -1.0403 -1.8933
 5202TIP3   OH237096   5.078   2.407  14.777  0.0080 -0.4004 -0.1723
 5202TIP3    H137097   5.100   2.443  14.691 -1.9615  0.5515 -0.3405
 5202TIP3    H237098   5.079   2.312  14.764  0.9299 -0.3034 -0.9161
 5203TIP3   OH237099   1.456   6.386  14.494 -0.1044  0.4444 -1.0459
 5203TIP3    H137100   1.445   6.365  14.587 -0.0902 -0.2827 -1.1982
 5203TIP3    H237101   1.550   6.381  14.479 -0.0092  1.5982 -0.8722
 5204TIP3   OH237102   3.233   2.001   0.836  0.0607 -0.0352 -0.1624
 5204TIP3    H137103   3.265   1.928   0.888 -1.1147 -0.6597 -0.2880
 5204TIP3    H237104   3.172   2.047   0.895 -1.2865 -0.7551 -0.9660
 5205TIP3   OH237105   1.077   4.407  13.957  0.3885 -0.0108 -0.2034
 5205TIP3    H137106   1.168   4.404  13.986  1.1815  1.0246 -2.4266
 5205TIP3    H237107   1.041   4.486  13.998  0.2650 -0.7222  1.1354
 5206TIP3   OH237108   1.274   1.110   0.718 -0.6870 -0.2472  0.2436
 5206TIP3    H137109   1.227   1.130   0.799 -2.0503  0.7603 -0.7617
 5206TIP3    H237110   1.213   1.132   0.648  1.3928  1.6152 -1.1628
 5207TIP3   OH237111   0.411   5.853  16.471 -0.2596 -0.2943  0.0652
 5207TIP3    H137112   0.395   5.853  16.565 -1.9750  1.7027 -0.1494
 5207TIP3    H237113   0.409   5.761  16.446 -0.9041 -0.7906  1.8102
 5208TIP3   OH237114   3.033   4.719   1.622  0.4950  0.1339 -0.5142
 5208TIP3    H137115   3.063   4.756   1.539 -1.5105 -1.8484 -2.2553
 5208TIP3    H237116   2.941   4.744   1.627  0.7845  0.9937  1.6526
 5209TIP3   OH237117   4.661   1.229  12.231 -0.2443 -0.2452  0.1169
 5209TIP3    H137118   4.730   1.196  12.288  2.5927 -0.2569 -2.9901
 5209TIP3    H237119   4.630   1.151  12.183  0.0617  0.2213 -0.8790
 5210TIP3   OH237120   1.490   4.603  11.199 -0.1622  0.1634  0.0195
 5210TIP3    H137121   1.512   4.530  11.256 -1.3471  1.6263  2.5355
 5210TIP3    H237122   1.398   4.622  11.219 -0.2268  1.5937 -1.4213
 5211TIP3   OH237123   2.109   6.689  10.886 -0.5256 -0.0029  0.2142
 5211TIP3    H137124   2.083   6.597  10.890 -0.8954  0.1495  1.6825
 5211TIP3    H237125   2.074   6.720  10.802 -1.2957 -0.9214  0.1859
 5212TIP3   OH237126   6.125   5.418  13.275 -0.4482  0.0174  0.1022
 5212TIP3    H137127   6.068   5.473  13.328 -0.9104  0.2122 -0.5784
 5212TIP3    H237128   6.127   5.462  13.189  2.6513  1.3708  0.7263
 5213TIP3   OH237129   2.151   6.641  12.341 -0.0111  0.2348 -0.2238
 5213TIP3    H137130   2.168   6.656  12.434 -0.6545 -1.0503  0.1255
 5213TIP3    H237131   2.066   6.681  12.324 -1.6633 -2.6399  0.6732
 5214TIP3   OH237132   0.671   5.200  15.213  0.3685 -0.6431  0.2280
 5214TIP3    H137133   0.644   5.148  15.289  0.8762  0.0147  0.8643
 5214TIP3    H237134   0.663   5.139  15.139  0.4754 -1.4811  0.8880
 5215TIP3   OH237135   4.673   4.509  13.017  0.1292 -0.3372 -0.5879
 5215TIP3    H137136   4.649   4.542  13.103  2.1072 -0.3309 -0.0119
 5215TIP3    H237137   4.594   4.463  12.987 -0.6558 -0.1956  1.1248
 5216TIP3   OH237138   1.527   0.630  12.930  0.3569 -0.1924 -0.1633
 5216TIP3    H137139   1.438   0.664  12.918  0.4095  0.6745  1.6368
 5216TIP3    H237140   1.569   0.643  12.844 -0.5080  1.7231 -0.3575
 5217TIP3   OH237141   4.453   6.474  12.794 -0.2135  0.3520  0.5335
 5217TIP3    H137142   4.498   6.514  12.869 -0.0983 -0.0147  0.6618
 5217TIP3    H237143   4.429   6.549  12.739 -1.0901  0.7047  1.3558
 5218TIP3   OH237144   5.530   6.114  16.225 -0.2797 -0.4017 -0.0098
 5218TIP3    H137145   5.450   6.096  16.176  0.7149 -3.3934 -0.7832
 5218TIP3    H237146   5.522   6.060  16.304  0.0828  0.9048  0.9480
 5219TIP3   OH237147   1.451   3.345   0.313  0.3000 -0.7791  0.1263
 5219TIP3    H137148   1.448   3.253   0.285 -0.4259 -0.3165 -1.4232
 5219TIP3    H237149   1.522   3.383   0.260 -0.4642 -0.0987 -0.4343
 5220TIP3   OH237150   0.218   5.253  12.195  0.5535  0.0716  0.2682
 5220TIP3    H137151   0.161   5.178  12.178  1.0467 -0.0630 -0.8418
 5220TIP3    H237152   0.182   5.292  12.275 -0.0691 -0.9902  0.5318
 5221TIP3   OH237153   3.169   6.013  15.646  0.1862  0.5764 -0.3718
 5221TIP3    H137154   3.242   6.061  15.686  0.0853 -0.2547  0.8647
 5221TIP3    H237155   3.166   5.930  15.694  0.3327 -0.6712 -2.4223
 5222TIP3   OH237156   3.549   6.390  16.523  0.3683 -0.3661 -0.3059
 5222TIP3    H137157   3.538   6.338  16.602  0.7120  0.1570  0.0888
 5222TIP3    H237158   3.471   6.371  16.470 -0.7640  0.6674  0.9357
 5223TIP3   OH237159   1.828   0.037  13.273 -0.5907  0.1287 -0.9667
 5223TIP3    H137160   1.750   0.066  13.225 -1.9458 -0.7442  0.6047
 5223TIP3    H237161   1.798   0.025  13.363  1.4110 -0.1051 -0.2788
 5224TIP3   OH237162   3.314   3.636  12.139  0.0435  0.6735 -0.0487
 5224TIP3    H137163   3.380   3.684  12.189 -1.2120  1.3722  0.9914
 5224TIP3    H237164   3.341   3.545  12.144 -0.7366  0.5012  3.1360
 5225TIP3   OH237165   5.613   0.255  10.588  0.6530 -0.2108  0.2577
 5225TIP3    H137166   5.528   0.292  10.613  0.9916  0.4087  0.4906
 5225TIP3    H237167   5.596   0.216  10.502  0.1502 -0.0123  0.2579
 5226TIP3   OH237168   0.839   6.203   5.366  0.4820 -0.0348 -0.2998
 5226TIP3    H137169   0.911   6.158   5.322  1.4117  0.3611  0.7509
 5226TIP3    H237170   0.871   6.292   5.378 -1.0630  0.7533 -1.7268
 5227TIP3   OH237171   1.708   5.301  11.708 -0.2283  0.3933 -0.3841
 5227TIP3    H137172   1.658   5.321  11.787 -0.1204  2.6395 -0.7999
 5227TIP3    H237173   1.700   5.207  11.697 -4.2923  0.5928 -0.3669
 5228TIP3   OH237174   1.645   4.355   0.688  0.3676  0.1972  0.2375
 5228TIP3    H137175   1.658   4.363   0.782  0.9198  1.2706  0.0935
 5228TIP3    H237176   1.725   4.392   0.650 -0.4482  1.1215 -0.6523
 5229TIP3   OH237177   0.934   0.884  14.664  0.3610 -0.1809  0.2979
 5229TIP3    H137178   0.858   0.860  14.717 -1.1834  1.7879 -0.9027
 5229TIP3    H237179   0.997   0.919  14.727 -1.2211  1.6082  0.9798
 5230TIP3   OH237180   4.141   1.323  14.440 -0.0259  0.6952  0.2341
 5230TIP3    H137181   4.047   1.302  14.440  0.1551 -0.2027  1.2689
 5230TIP3    H237182   4.151   1.389  14.508  0.4856 -1.3779  2.3120
 5231TIP3   OH237183   3.327   0.006   2.164  0.0460  0.4035  0.4705
 5231TIP3    H137184   3.312   0.077   2.226  0.1043 -0.0100  0.9665
 5231TIP3    H237185   3.373   0.047   2.091  2.3281  0.4374  1.8318
 5232TIP3   OH237186   6.250   3.929  14.967  0.2202  0.6734  0.2044
 5232TIP3    H137187   6.331   3.888  14.995  0.7873  0.3432 -1.7589
 5232TIP3    H237188   6.214   3.969  15.046  1.3388 -0.7628  1.4881
 5233TIP3   OH237189   2.876   6.516  10.925  0.0215  0.3217 -0.3632
 5233TIP3    H137190   2.813   6.446  10.939 -0.4289  0.9743  1.0239
 5233TIP3    H237191   2.830   6.577  10.867 -0.0472  0.0632 -0.5839
 5234TIP3   OH237192   3.493   1.870   1.492  0.0758 -0.3870 -0.0072
 5234TIP3    H137193   3.439   1.894   1.567  1.0447  1.3693  0.1688
 5234TIP3    H237194   3.511   1.777   1.504 -0.2523 -0.2645  1.6313
 5235TIP3   OH237195   3.420   1.184   5.076 -0.1154  0.3234  0.1285
 5235TIP3    H137196   3.433   1.135   4.995  1.9008 -0.6031  0.9390
 5235TIP3    H237197   3.444   1.274   5.053 -0.1977  0.1985 -0.4645
 5236TIP3   OH237198   2.796   1.612  14.910  0.0498  0.5803 -0.4497
 5236TIP3    H137199   2.875   1.617  14.964 -0.0705 -1.5519  0.0032
 5236TIP3    H237200   2.782   1.702  14.880  1.6077  1.3392  0.9310
 5237TIP3   OH237201   5.050   2.000   4.025  0.3749  0.2816 -0.1997
 5237TIP3    H137202   5.072   1.914   3.991 -1.8842 -1.1333  1.5708
 5237TIP3    H237203   5.102   2.008   4.105  0.1683  0.3247 -0.0703
 5238TIP3   OH237204   6.725   2.889   0.771 -0.0564  0.0718 -0.1696
 5238TIP3    H137205   6.733   2.893   0.867 -0.0801 -0.7475 -0.1217
 5238TIP3    H237206   6.780   2.960   0.739  0.2923  0.0819  0.4411
 5239TIP3   OH237207   4.842   6.662   3.363 -0.1729  0.2902  0.2225
 5239TIP3    H137208   4.807   6.607   3.432 -0.6125 -0.0786 -0.2855
 5239TIP3    H237209   4.812   6.750   3.385  0.2207  0.2769  0.8365
 5240TIP3   OH237210   1.939   4.908  14.641  0.0958  0.6461  0.1569
 5240TIP3    H137211   1.928   4.924  14.735 -0.4722 -1.6532  0.5286
 5240TIP3    H237212   2.008   4.841  14.636 -0.6131 -0.0228 -0.9919
 5241TIP3   OH237213   2.226   1.887   1.162 -0.0077 -0.2202  0.2457
 5241TIP3    H137214   2.280   1.811   1.137 -0.0333  0.1869 -1.1353
 5241TIP3    H237215   2.148   1.879   1.107 -0.7435 -0.0402  1.2354
 5242TIP3   OH237216   6.134   4.642   6.091 -0.0662 -0.2186  0.3944
 5242TIP3    H137217   6.159   4.687   6.172 -0.4546 -0.2748  0.5486
 5242TIP3    H237218   6.038   4.641   6.093 -0.0711 -0.4621  0.0678
 5243TIP3   OH237219   5.325   5.464  14.356 -0.3741  0.1663 -0.1538
 5243TIP3    H137220   5.338   5.486  14.264 -0.0970  0.2308 -0.1004
 5243TIP3    H237221   5.337   5.369  14.360 -0.4817  0.1498 -0.1975
 5244TIP3   OH237222   2.814   5.938  13.451 -0.5113 -1.0606 -0.4526
 5244TIP3    H137223   2.774   5.866  13.402 -0.4266 -0.1337 -1.9496
 5244TIP3    H237224   2.874   5.979  13.388  0.1860 -0.2865  0.6771
 5245TIP3   OH237225   3.644   0.711   4.928  0.3026  0.0173  0.0573
 5245TIP3    H137226   3.666   0.620   4.946  1.1798  0.2840  0.3981
 5245TIP3    H237227   3.585   0.708   4.853  0.8507 -0.7933 -0.3460
 5246TIP3   OH237228   5.227   4.692   5.684 -0.2879  0.1009  1.0105
 5246TIP3    H137229   5.143   4.648   5.701 -1.0210  0.0940 -2.0466
 5246TIP3    H237230   5.204   4.784   5.671  0.1958  0.1456  0.4310
 5247TIP3   OH237231   2.391   3.740  11.934 -0.1647  0.0599 -0.3223
 5247TIP3    H137232   2.367   3.832  11.939 -1.2178 -0.2221  0.1639
 5247TIP3    H237233   2.484   3.738  11.954  0.1831  1.1407 -1.6494
 5248TIP3   OH237234   1.727   5.170   0.936 -0.6387 -0.2768  0.6952
 5248TIP3    H137235   1.780   5.228   0.991  0.0103  0.8404 -1.0189
 5248TIP3    H237236   1.768   5.084   0.945  0.7572  0.3215  0.3477
 5249TIP3   OH237237   4.381   3.060   2.072 -0.1498  0.0245 -0.5371
 5249TIP3    H137238   4.317   2.990   2.084  2.1073 -1.8396  2.2265
 5249TIP3    H237239   4.331   3.141   2.082 -2.0796 -1.3322  1.9356
 5250TIP3   OH237240   1.480   4.003  15.151  0.2170  0.4076 -0.0013
 5250TIP3    H137241   1.562   4.043  15.180  1.4419 -1.2548 -0.9863
 5250TIP3    H237242   1.451   3.952  15.227  0.3077  0.6678  0.2112
 5251TIP3   OH237243   3.341   5.229  15.452  0.1891  0.0022 -0.0809
 5251TIP3    H137244   3.293   5.157  15.412 -0.5322 -0.2740  1.2274
 5251TIP3    H237245   3.283   5.262  15.520  0.4458  1.9447 -0.7463
 5252TIP3   OH237246   5.078   6.188   3.532 -0.1300  0.1981  0.1619
 5252TIP3    H137247   5.156   6.145   3.567 -0.5905 -0.5384  0.2982
 5252TIP3    H237248   5.092   6.281   3.551 -0.1574 -0.1166  1.9297
 5253TIP3   OH237249   5.856   2.590   5.402  0.1245 -0.0071  0.0762
 5253TIP3    H137250   5.913   2.663   5.427 -1.1023  1.1908 -0.4568
 5253TIP3    H237251   5.915   2.526   5.362  1.0635  1.3596 -0.8529
 5254TIP3   OH237252   5.472   1.274  13.335  0.6162  0.0477 -0.1586
 5254TIP3    H137253   5.565   1.264  13.354  0.7373  1.4062  0.0438
 5254TIP3    H237254   5.462   1.365  13.307 -0.7072  0.0293  0.1548
 5255TIP3   OH237255   0.918   5.564   5.073  0.2217  0.2616 -0.2352
 5255TIP3    H137256   0.850   5.557   5.140  0.3479  0.4446 -0.0857
 5255TIP3    H237257   0.871   5.584   4.992 -0.0538 -1.2920 -0.4793
 5256TIP3   OH237258   0.131   2.602   1.474 -0.1330  0.2519 -0.4395
 5256TIP3    H137259   0.051   2.561   1.508  0.5136 -1.4183 -0.8566
 5256TIP3    H237260   0.185   2.618   1.552  0.3777 -1.4320 -0.4186
 5257TIP3   OH237261   1.992   4.851   1.838  0.5823 -0.3861  0.3087
 5257TIP3    H137262   1.908   4.842   1.793  0.1130  1.0822  0.8181
 5257TIP3    H237263   2.031   4.929   1.800  2.0755 -1.4353 -0.4163
 5258TIP3   OH237264   3.377   1.843  11.163 -0.2540 -0.2189  0.5191
 5258TIP3    H137265   3.405   1.881  11.246 -2.3535 -0.0487  1.2054
 5258TIP3    H237266   3.376   1.917  11.102  3.0940 -0.6483 -0.2752
 5259TIP3   OH237267   1.513   0.915  15.334  0.1792 -0.1225  0.1382
 5259TIP3    H137268   1.422   0.946  15.340 -0.1784 -1.3759  1.9947
 5259TIP3    H237269   1.548   0.926  15.423  0.4686 -3.5759  0.5748
 5260TIP3   OH237270   3.585   6.645  16.275  0.7834  0.0280  0.2893
 5260TIP3    H137271   3.514   6.676  16.330  0.9434  0.3036  0.3420
 5260TIP3    H237272   3.663   6.688  16.310  0.9629 -0.2065  0.1799
 5261TIP3   OH237273   3.062   3.606  16.306  0.1945 -0.1302  0.8075
 5261TIP3    H137274   3.084   3.664  16.379  3.4860 -1.4665  1.0407
 5261TIP3    H237275   3.031   3.526  16.348  0.5868 -0.3422  0.6978
 5262TIP3   OH237276   2.882   2.504  17.272 -0.2803  0.1241  0.1223
 5262TIP3    H137277   2.947   2.483  17.338 -0.1931  0.6013  0.1930
 5262TIP3    H237278   2.803   2.526  17.321 -0.3250  0.1138  0.0555
 5263TIP3   OH237279   5.723   3.491  14.437 -1.0078 -0.2715 -1.2209
 5263TIP3    H137280   5.659   3.429  14.403 -1.6279  0.4126 -1.3309
 5263TIP3    H237281   5.671   3.556  14.484 -0.5755  1.2829 -2.8078
 5264TIP3   OH237282   4.368   5.871  17.221 -0.2808  0.0459 -0.2533
 5264TIP3    H137283   4.293   5.860  17.278 -1.1486  1.7487 -1.0145
 5264TIP3    H237284   4.398   5.960  17.236  1.5437 -0.5506 -0.0616
 5265TIP3   OH237285   2.344   0.270  17.259  0.6804 -0.2837 -0.0983
 5265TIP3    H137286   2.310   0.222  17.334 -0.1965  0.9414  0.3265
 5265TIP3    H237287   2.425   0.309  17.290  0.6153 -0.2474  0.0259
 5266TIP3   OH237288   5.305   1.237  11.356  0.3946  0.1399 -0.1090
 5266TIP3    H137289   5.377   1.268  11.300  0.4520  0.9304  0.3847
 5266TIP3    H237290   5.334   1.150  11.386  1.2150  0.5053  0.1932
 5267TIP3   OH237291   4.858   1.659  12.735 -0.4960 -0.3011 -0.9978
 5267TIP3    H137292   4.886   1.728  12.676 -0.5913  1.5946  1.0479
 5267TIP3    H237293   4.775   1.690  12.771  0.7299 -0.0854  1.9732
 5268TIP3   OH237294   6.428   6.287  16.320 -0.0606 -0.0925  0.6920
 5268TIP3    H137295   6.518   6.254  16.310 -0.3867 -1.4749  1.8323
 5268TIP3    H237296   6.395   6.296  16.231  0.1964 -2.6082  0.2762
 5269TIP3   OH237297   4.264   5.939  13.321 -0.4628 -0.1378 -0.3188
 5269TIP3    H137298   4.304   5.918  13.406  2.2931  3.3533 -0.4692
 5269TIP3    H237299   4.313   5.886  13.258 -1.0157 -1.1062  0.0383
 5270TIP3   OH237300   5.813   0.988  15.298 -0.9394 -0.2062 -0.2694
 5270TIP3    H137301   5.883   0.925  15.313  1.0634  1.7457 -0.7917
 5270TIP3    H237302   5.827   1.057  15.364 -2.0793  0.4841 -0.7009
 5271TIP3   OH237303   6.595   2.131   2.601  0.3064  0.8495  0.0552
 5271TIP3    H137304   6.569   2.120   2.510 -0.3993  1.6557  0.1519
 5271TIP3    H237305   6.563   2.053   2.645  1.2233  0.1407 -0.4960
 5272TIP3   OH237306   4.191   0.287   3.018  0.4157  0.6413  0.6084
 5272TIP3    H137307   4.256   0.276   2.948  0.8111  0.1228  1.0451
 5272TIP3    H237308   4.196   0.205   3.068  0.9755  1.4688  1.9372
 5273TIP3   OH237309   1.251   0.016  14.371  0.5537  0.7892  0.3125
 5273TIP3    H137310   1.278  -0.058  14.426 -1.2858 -1.8814 -2.1095
 5273TIP3    H237311   1.156   0.018  14.380  0.6182  3.8777  1.3467
 5274TIP3   OH237312   3.657   0.506   2.143 -0.5440  0.0364 -0.1484
 5274TIP3    H137313   3.679   0.520   2.235 -2.0347 -0.1128  0.2527
 5274TIP3    H237314   3.625   0.416   2.139  2.5519 -1.1732 -1.4543
 5275TIP3   OH237315   6.505   0.471   5.235 -0.4681  0.1926  0.3154
 5275TIP3    H137316   6.467   0.555   5.259 -0.0433  0.3456  0.4692
 5275TIP3    H237317   6.566   0.492   5.164 -0.4244  0.0022  0.2962
 5276TIP3   OH237318   0.317   2.898   0.859 -0.0651 -0.5557 -0.5857
 5276TIP3    H137319   0.276   2.841   0.924  2.6919 -1.1840  0.7649
 5276TIP3    H237320   0.361   2.837   0.799  2.9360 -0.0440  0.8835
 5277TIP3   OH237321   1.437   2.285  14.059  0.4843  0.1401  0.4860
 5277TIP3    H137322   1.500   2.332  14.005 -0.2668  0.0128 -0.5300
 5277TIP3    H237323   1.407   2.350  14.123  0.0653  0.8168 -0.3773
 5278TIP3   OH237324   5.013   6.646   3.161 -0.5041 -1.1404  0.3294
 5278TIP3    H137325   4.951   6.656   3.233 -0.6288 -0.4438  0.1345
 5278TIP3    H237326   4.989   6.562   3.120 -2.0600 -0.3819 -0.4294
 5279TIP3   OH237327   1.117   4.375   4.780  0.1234 -0.0761 -0.1917
 5279TIP3    H137328   1.116   4.307   4.712  1.1937  0.2061 -0.5183
 5279TIP3    H237329   1.210   4.391   4.795 -0.0834 -0.3615  1.5961
 5280TIP3   OH237330   1.560   1.397   5.754  0.7022  0.0847  0.6571
 5280TIP3    H137331   1.580   1.482   5.715  0.0961  0.5115  1.2481
 5280TIP3    H237332   1.470   1.406   5.785  0.5924 -0.8214  0.6024
 5281TIP3   OH237333   4.331   4.387  17.170  0.2364 -0.3731 -0.6293
 5281TIP3    H137334   4.309   4.309  17.222 -0.9427 -0.3590 -1.0714
 5281TIP3    H237335   4.255   4.444  17.180  1.3429  0.9955  0.1756
 5282TIP3   OH237336   3.104   3.127  11.252 -0.1532 -0.4586  0.8496
 5282TIP3    H137337   3.012   3.150  11.258 -0.3758 -0.3482 -1.9904
 5282TIP3    H237338   3.107   3.049  11.197  1.3871 -1.3921  2.1271
 5283TIP3   OH237339   0.405   6.216   3.592 -0.2208  0.2488 -0.0121
 5283TIP3    H137340   0.361   6.144   3.637  0.6428 -0.9149 -0.9797
 5283TIP3    H237341   0.458   6.174   3.524 -1.3590  1.9298 -2.0576
 5284TIP3   OH237342   0.811   6.379  14.114  0.1365  0.0925 -0.1170
 5284TIP3    H137343   0.867   6.344  14.184 -1.3357 -0.0779  1.0420
 5284TIP3    H237344   0.777   6.461  14.150 -0.0166  0.4122 -0.9781
 5285TIP3   OH237345   6.304   6.596   0.451 -0.0607  0.0237 -0.4744
 5285TIP3    H137346   6.345   6.556   0.375  1.6055 -0.1858  0.4770
 5285TIP3    H237347   6.375   6.644   0.494 -0.9528  0.1345  0.9531
 5286TIP3   OH237348   1.425   4.610   2.566  0.1284 -0.3692  0.2227
 5286TIP3    H137349   1.362   4.540   2.586  0.7872 -1.7556 -2.1728
 5286TIP3    H237350   1.429   4.662   2.646 -2.8274 -1.1585  1.0264
 5287TIP3   OH237351   4.465   0.575   0.964 -0.0655  0.5829  0.2475
 5287TIP3    H137352   4.431   0.495   1.004 -0.1951  0.1814 -0.6436
 5287TIP3    H237353   4.522   0.544   0.893  0.1207  1.2778  0.0821
 5288TIP3   OH237354   3.821   1.770   4.742  0.1792  0.0965  0.1343
 5288TIP3    H137355   3.834   1.708   4.814  0.3369 -3.2655 -2.5224
 5288TIP3    H237356   3.909   1.796   4.716  0.1109  1.7509  1.3412
 5289TIP3   OH237357   1.646   4.366   4.553  0.2511 -0.7001 -0.0648
 5289TIP3    H137358   1.566   4.314   4.541 -0.3058 -0.4130  2.0363
 5289TIP3    H237359   1.614   4.453   4.576  1.1936  0.0099 -1.3869
 5290TIP3   OH237360   5.769   6.534   1.861  0.1313  0.3046 -0.4464
 5290TIP3    H137361   5.685   6.524   1.905  0.4305 -0.7967 -0.0922
 5290TIP3    H237362   5.766   6.472   1.789  1.4835 -1.4355  0.9127
 5291TIP3   OH237363   3.510   2.668  17.099 -0.1665  0.4742 -0.7304
 5291TIP3    H137364   3.429   2.711  17.070 -1.1805 -0.9632 -0.1369
 5291TIP3    H237365   3.574   2.739  17.104 -1.0959  1.4743 -2.2444
 5292TIP3   OH237366   0.628   1.740  13.197  0.2871 -0.0072 -0.6928
 5292TIP3    H137367   0.678   1.658  13.201  0.6765  0.2633  0.2054
 5292TIP3    H237368   0.695   1.809  13.192  0.0329  0.3554  0.4950
 5293TIP3   OH237369   0.772   2.809  16.512  0.0583 -0.4864 -0.2231
 5293TIP3    H137370   0.754   2.796  16.605 -0.0999 -0.2202 -0.2145
 5293TIP3    H237371   0.694   2.776  16.467  0.0517 -0.4320 -0.2513
 5294TIP3   OH237372   5.736   6.058   4.368 -0.0619  0.1559 -0.0011
 5294TIP3    H137373   5.791   6.035   4.293  0.0517 -1.5221  0.5602
 5294TIP3    H237374   5.646   6.053   4.334  0.0342  0.6956 -0.3466
 5295TIP3   OH237375   4.041   0.392   1.942 -0.0259 -0.5376  0.2244
 5295TIP3    H137376   4.013   0.373   2.032 -2.5575 -1.6331 -0.6920
 5295TIP3    H237377   4.078   0.310   1.911  1.6061  0.0733  0.4764
 5296TIP3   OH237378   0.668   1.994  13.279 -0.4575 -0.2688  0.0562
 5296TIP3    H137379   0.609   2.048  13.331 -0.2447 -0.1490  0.1742
 5296TIP3    H237380   0.754   2.005  13.320  0.0774  1.2475 -1.3743
 5297TIP3   OH237381   4.170   3.108   3.331 -0.0013  0.2928 -0.6764
 5297TIP3    H137382   4.133   3.185   3.375 -0.8152 -0.1578 -0.5541
 5297TIP3    H237383   4.258   3.135   3.307 -0.5179  1.5349 -1.2990
 5298TIP3   OH237384   0.026   3.167   4.343 -0.0576 -0.1936 -0.0173
 5298TIP3    H137385   0.053   3.255   4.369  0.4285 -0.4244  0.2763
 5298TIP3    H237386   0.047   3.112   4.418 -0.9815 -0.4569  0.0560
 5299TIP3   OH237387   3.975   1.050   4.809  0.3549  0.8449 -0.0830
 5299TIP3    H137388   3.956   0.957   4.823 -1.3957  1.0593 -0.8359
 5299TIP3    H237389   4.071   1.054   4.807  0.6473 -0.4112  3.3149
 5300TIP3   OH237390   5.491   2.832  13.835 -0.2315 -0.7304  0.5889
 5300TIP3    H137391   5.501   2.926  13.818  0.5952 -0.6882  1.2180
 5300TIP3    H237392   5.399   2.822  13.858 -0.2672 -0.0223  0.7988
 5301TIP3   OH237393   2.561   1.150   3.919 -0.6582 -0.1919 -0.1532
 5301TIP3    H137394   2.529   1.219   3.976  0.5934 -0.0360  0.4010
 5301TIP3    H237395   2.490   1.086   3.916 -0.8333 -0.0995  1.3967
 5302TIP3   OH237396   4.406   1.946  13.820  0.1182  0.4107  0.3864
 5302TIP3    H137397   4.332   1.944  13.881  0.5845  0.9090  0.9723
 5302TIP3    H237398   4.410   2.038  13.791  1.1868  0.6418  1.2061
 5303TIP3   OH237399   5.116   5.874  12.555 -0.1944  0.1866  0.5034
 5303TIP3    H137400   5.083   5.955  12.594  2.5681  1.3927  0.5032
 5303TIP3    H237401   5.069   5.867  12.472 -2.6648  0.1086  1.8162
 5304TIP3   OH237402   5.729   4.595   4.192  0.0624  0.1341 -0.2128
 5304TIP3    H137403   5.676   4.521   4.163  0.2987 -1.6324  3.2958
 5304TIP3    H237404   5.818   4.561   4.196  0.6004  1.4026 -0.8874
 5305TIP3   OH237405   3.946   1.613   3.965 -0.2584  0.9535 -0.0852
 5305TIP3    H137406   3.993   1.669   4.027  0.4759  0.9310 -0.6101
 5305TIP3    H237407   3.938   1.667   3.886 -3.0212  1.7713  0.6522
 5306TIP3   OH237408   6.231   5.774   1.950 -0.1024  0.1129 -0.4776
 5306TIP3    H137409   6.245   5.816   2.035 -3.4204 -1.3382  0.9919
 5306TIP3    H237410   6.291   5.700   1.949  0.8740  0.8767  0.0178
 5307TIP3   OH237411   2.744   5.985   1.894  0.2883 -0.3416  0.4522
 5307TIP3    H137412   2.682   5.928   1.849 -0.6186  0.1650  1.0215
 5307TIP3    H237413   2.689   6.054   1.933  1.3599  1.0620 -0.4057
 5308TIP3   OH237414   3.684   4.661   2.911 -0.5802 -0.1862 -0.1372
 5308TIP3    H137415   3.676   4.571   2.878  2.3460 -1.1325  1.4183
 5308TIP3    H237416   3.724   4.709   2.838 -1.0338 -0.4111 -0.5454
 5309TIP3   OH237417   0.345   3.534   2.765  0.1625 -0.7547 -0.1872
 5309TIP3    H137418   0.373   3.613   2.719  2.1879 -0.8728  0.7256
 5309TIP3    H237419   0.272   3.563   2.819  0.9874  0.5736  0.2703
 5310TIP3   OH237420   2.888   1.919   4.964  0.0719 -0.2021 -0.2264
 5310TIP3    H137421   2.869   1.957   4.878  1.9525  0.8428 -0.2342
 5310TIP3    H237422   2.980   1.894   4.959 -0.1571 -1.4435  1.0370
 5311TIP3   OH237423   4.096   5.979   3.185 -0.4941  0.3235 -0.1957
 5311TIP3    H137424   4.100   5.991   3.280  0.2742 -0.0781 -0.1658
 5311TIP3    H237425   4.128   5.889   3.171 -1.0472  0.2136 -0.7962
 5312TIP3   OH237426   0.222   3.125  14.859 -0.2250 -0.0681  0.7402
 5312TIP3    H137427   0.175   3.109  14.777  1.1462  0.9147 -0.2849
 5312TIP3    H237428   0.293   3.061  14.859 -0.6785 -0.5936  1.5748
 5313TIP3   OH237429   2.777   4.887  16.103  0.2418 -0.0181 -0.5743
 5313TIP3    H137430   2.794   4.871  16.010 -0.8399  0.0967 -0.8045
 5313TIP3    H237431   2.850   4.940  16.132  0.4966  0.0976 -1.4095
 5314TIP3   OH237432   0.379   2.632  14.445 -0.2213 -0.5556  0.1240
 5314TIP3    H137433   0.320   2.646  14.372  0.1099 -1.9963 -0.4513
 5314TIP3    H237434   0.466   2.623  14.406  0.7603  3.0961  1.0575
 5315TIP3   OH237435   0.881   2.770   2.982  0.4156 -0.8124 -0.5868
 5315TIP3    H137436   0.880   2.703   3.050  2.3478 -1.2341 -0.9296
 5315TIP3    H237437   0.852   2.724   2.903  0.9779 -1.0693 -0.6518
 5316TIP3   OH237438   1.483   0.242   3.870 -0.0201 -0.2594  0.0469
 5316TIP3    H137439   1.486   0.327   3.826  0.7610  0.1523  0.8547
 5316TIP3    H237440   1.516   0.260   3.958 -0.1321 -1.3475  0.3203
 5317TIP3   OH237441   3.134   6.680   4.736 -0.2018  0.3487 -0.5545
 5317TIP3    H137442   3.051   6.715   4.768 -0.4929  0.9261 -1.8545
 5317TIP3    H237443   3.180   6.757   4.702  1.5747  0.2860  1.5636
 5318TIP3   OH237444   2.053   0.935  14.831  0.4092 -0.1518 -0.0836
 5318TIP3    H137445   1.985   0.879  14.869 -0.6091 -0.2800 -1.9749
 5318TIP3    H237446   2.038   1.021  14.870 -0.8187 -0.1866 -0.4445
 5319TIP3   OH237447   2.848   6.613   3.317  0.1578 -0.0908 -0.5046
 5319TIP3    H137448   2.782   6.600   3.249  0.0408 -1.6510 -0.1227
 5319TIP3    H237449   2.861   6.526   3.355  1.6909  0.3788  0.1177
 5320TIP3   OH237450   5.707   6.064   5.229  0.3327  0.1813 -0.0541
 5320TIP3    H137451   5.767   6.112   5.172  1.1213  0.0064  0.6180
 5320TIP3    H237452   5.715   5.972   5.202  0.0713  0.2023 -0.2160
 5321TIP3   OH237453   1.700   0.237  12.124  0.1557  0.3091 -0.1922
 5321TIP3    H137454   1.760   0.195  12.062  1.0138 -0.4108  1.0806
 5321TIP3    H237455   1.753   0.253  12.202 -0.6262  2.1601  0.0079
 5322TIP3   OH237456   4.325   0.194  13.622  0.5317  0.3275 -0.1167
 5322TIP3    H137457   4.361   0.141  13.550  3.2833  2.4216 -0.4698
 5322TIP3    H237458   4.276   0.264  13.579  2.2431  1.6270 -0.0620
 5323TIP3   OH237459   5.752   0.212  15.504 -0.4277  0.1434 -0.2218
 5323TIP3    H137460   5.809   0.285  15.527 -0.9117  0.8340 -1.1542
 5323TIP3    H237461   5.674   0.225  15.557 -0.6379  0.4812 -0.6108
 5324TIP3   OH237462   6.170   5.344  13.855 -0.2505  0.0125  0.0755
 5324TIP3    H137463   6.209   5.316  13.938 -2.0584 -0.9290  0.6597
 5324TIP3    H237464   6.178   5.439  13.855  0.0250  0.0005  1.1906
 5325TIP3   OH237465   1.057   3.066  14.952  0.4765  0.4824 -0.0708
 5325TIP3    H137466   1.133   3.011  14.970 -0.4056 -0.7156  0.1167
 5325TIP3    H237467   1.094   3.148  14.918  1.9791  0.9025  2.3287
 5326TIP3   OH237468   1.841   3.527  15.428  0.1284  0.0605 -0.8504
 5326TIP3    H137469   1.926   3.551  15.465 -0.0094 -1.6367  0.6860
 5326TIP3    H237470   1.843   3.564  15.339  1.5803  1.8843 -0.1426
 5327TIP3   OH237471   5.779   3.615  17.062  0.0215 -0.8246 -0.3035
 5327TIP3    H137472   5.832   3.555  17.115  1.7973  1.1346  0.2683
 5327TIP3    H237473   5.841   3.650  16.997 -1.1382 -0.1082 -1.0552
 5328TIP3   OH237474   2.107   6.721   1.134 -0.0444 -0.5555 -0.0425
 5328TIP3    H137475   2.034   6.783   1.130  1.1464  1.0360  1.3651
 5328TIP3    H237476   2.066   6.637   1.154 -1.6193 -0.0867 -1.0547
 5329TIP3   OH237477   4.894   5.977   0.535 -0.1147 -0.3882  0.0375
 5329TIP3    H137478   4.920   6.068   0.551 -0.0260 -0.5409  0.8195
 5329TIP3    H237479   4.801   5.982   0.511  0.0043 -0.0568 -0.3645
 5330TIP3   OH237480   4.490   0.329   1.090 -0.0052  0.3065  0.4125
 5330TIP3    H137481   4.422   0.315   1.156 -0.6738  0.1703 -0.2924
 5330TIP3    H237482   4.548   0.253   1.100 -0.9979 -0.5707 -0.2206
 5331TIP3   OH237483   6.455   4.035  13.894  0.1918  0.0123  0.2417
 5331TIP3    H137484   6.529   3.983  13.862  0.1806 -0.1701  0.5099
 5331TIP3    H237485   6.426   4.085  13.818  2.0047  1.7845  0.6583
 5332TIP3   OH237486   2.055   3.679   2.785 -0.2557  0.3650  0.2320
 5332TIP3    H137487   2.025   3.646   2.869  2.1107 -1.1289  0.5886
 5332TIP3    H237488   2.121   3.745   2.807  0.0695  0.2731 -0.4353
 5333TIP3   OH237489   1.287   1.012   6.207  0.5816 -0.1226  0.6524
 5333TIP3    H137490   1.215   0.992   6.267  0.0402  0.8291  0.3403
 5333TIP3    H237491   1.276   0.951   6.134  0.0437  0.0593  0.5773
 5334TIP3   OH237492   4.503   5.851   1.652 -0.1189 -0.2911 -0.3031
 5334TIP3    H137493   4.408   5.849   1.650 -0.1806 -0.8415  1.2590
 5334TIP3    H237494   4.524   5.871   1.744  1.2724  2.5708 -1.1296
 5335TIP3   OH237495   0.856   1.789   5.632 -0.0153 -0.1831  0.5112
 5335TIP3    H137496   0.876   1.859   5.694  0.0720 -0.9778  1.4129
 5335TIP3    H237497   0.764   1.769   5.648  0.0597 -0.5216  0.5300
 5336TIP3   OH237498   1.623   3.818  12.774  0.3188  0.1308  0.2014
 5336TIP3    H137499   1.567   3.770  12.834  1.8345  0.1036  1.6573
 5336TIP3    H237500   1.692   3.756  12.751  0.4336  0.5440 -0.6089
 5337TIP3   OH237501   2.261   4.643   3.334  0.0888 -0.5085  0.0159
 5337TIP3    H137502   2.187   4.624   3.277  1.0217  0.3921 -1.5721
 5337TIP3    H237503   2.338   4.623   3.281  1.0517  2.4005  0.1293
 5338TIP3   OH237504   6.445   5.355  10.388  0.2892 -0.4649  0.6783
 5338TIP3    H137505   6.432   5.419  10.318 -0.3473 -3.0372 -1.7407
 5338TIP3    H237506   6.533   5.373  10.421  0.5488  0.9335 -0.6679
 5339TIP3   OH237507   5.337   4.835  13.045 -0.1945 -0.2152  0.4801
 5339TIP3    H137508   5.324   4.914  12.993 -1.3271  0.2569  1.4325
 5339TIP3    H237509   5.307   4.859  13.133  3.0589 -0.4713  1.7990
 5340TIP3   OH237510   1.127   1.430   0.801 -0.4172  0.0699  0.0773
 5340TIP3    H137511   1.160   1.516   0.829  0.4918 -0.1711 -0.2546
 5340TIP3    H237512   1.114   1.382   0.883 -0.0548  0.1986  0.2096
 5341TIP3   OH237513   3.408   5.218  16.450  0.5815  0.5813 -0.2253
 5341TIP3    H137514   3.486   5.264  16.419  1.2139  2.0350  3.1087
 5341TIP3    H237515   3.348   5.287  16.478 -0.8098 -0.5723 -0.2386
 5342TIP3   OH237516   1.117   4.118  15.248  0.8016 -0.2336  0.2644
 5342TIP3    H137517   1.124   4.071  15.331 -0.6886 -0.0827  0.4985
 5342TIP3    H237518   1.119   4.210  15.272 -2.4200 -0.1286  0.4959
 5343TIP3   OH237519   2.661   1.546  11.730 -0.5684  0.1157  0.2386
 5343TIP3    H137520   2.748   1.583  11.716 -0.7175  1.2313  2.0552
 5343TIP3    H237521   2.654   1.478  11.662  1.1849  0.8599 -0.7744
 5344TIP3   OH237522   0.868   6.799  12.980 -0.0890 -0.5648 -0.0576
 5344TIP3    H137523   0.882   6.893  12.987 -0.3306 -0.4803 -0.6527
 5344TIP3    H237524   0.935   6.769  12.919 -0.8258 -0.5705 -0.8758
 5345TIP3   OH237525   4.302   0.936  15.409 -0.1672 -0.3072 -0.6326
 5345TIP3    H137526   4.232   0.907  15.467  1.0419 -0.4607  0.7803
 5345TIP3    H237527   4.274   1.023  15.380 -1.0255 -0.4409 -0.2305
 5346TIP3   OH237528   4.530   4.258  15.302  0.2913  0.0994 -0.3335
 5346TIP3    H137529   4.585   4.183  15.283  0.6725  0.7537 -1.9432
 5346TIP3    H237530   4.555   4.324  15.237 -1.7954  0.7140 -0.5986
 5347TIP3   OH237531   6.394   3.364   0.211  0.4568 -0.3907 -0.1553
 5347TIP3    H137532   6.440   3.445   0.231  0.1117 -0.6258  1.9153
 5347TIP3    H237533   6.432   3.334   0.129  2.2835  0.6538  0.2422
 5348TIP3   OH237534   4.453   6.246  14.568 -0.7487 -0.8273 -0.3266
 5348TIP3    H137535   4.378   6.205  14.525 -1.6222 -1.4127  1.6773
 5348TIP3    H237536   4.504   6.173  14.603  1.6384 -0.5619 -2.8648
 5349TIP3   OH237537   1.587   5.521   2.720  0.1596  0.2679 -0.3468
 5349TIP3    H137538   1.522   5.591   2.726 -0.7966 -0.5919 -0.3200
 5349TIP3    H237539   1.648   5.549   2.653 -0.9257  0.5664 -1.2278
 5350TIP3   OH237540   3.783   5.071   3.959 -0.5607  0.0281  0.0396
 5350TIP3    H137541   3.802   5.016   3.883  1.5290  2.3633 -1.2440
 5350TIP3    H237542   3.697   5.109   3.939 -0.5714 -0.2877 -0.5547
 5351TIP3   OH237543   1.872   0.935   2.637 -0.6185 -0.2869  0.0200
 5351TIP3    H137544   1.925   0.889   2.702  0.1000  1.1839  0.5045
 5351TIP3    H237545   1.888   0.887   2.556 -1.0271 -1.7570  0.7660
 5352TIP3   OH237546   2.025   0.489  12.250  0.6584 -0.1884  0.2387
 5352TIP3    H137547   1.951   0.547  12.229  0.2033 -1.3246 -1.5098
 5352TIP3    H237548   2.098   0.549  12.267  0.1465  0.9441 -1.3050
 5353TIP3   OH237549   4.937   6.663  15.407  0.9163  0.2780  0.9929
 5353TIP3    H137550   4.896   6.669  15.493 -2.5822 -0.8336 -0.4303
 5353TIP3    H237551   4.928   6.750  15.369  0.7627  0.2794  1.0347
 5354TIP3   OH237552   2.828   3.683   3.041  0.0635  0.2108  0.2387
 5354TIP3    H137553   2.863   3.682   2.952 -3.2063  2.4364 -1.2838
 5354TIP3    H237554   2.837   3.592   3.071 -0.6619 -1.1874 -3.2715
 5355TIP3   OH237555   0.453   2.055  16.697  0.1545  0.5694  0.4792
 5355TIP3    H137556   0.372   2.105  16.683  1.0940  2.2931  0.8505
 5355TIP3    H237557   0.488   2.090  16.779  1.1977 -0.2413  0.3918
 5356TIP3   OH237558   4.506   6.344  16.376 -0.1220 -0.1641  0.1211
 5356TIP3    H137559   4.496   6.288  16.300  1.1883  1.4793 -1.3331
 5356TIP3    H237560   4.543   6.287  16.444 -1.6841 -1.7377 -0.2962
 5357TIP3   OH237561   2.397   3.745  11.219  0.4857 -0.2393 -0.1780
 5357TIP3    H137562   2.475   3.718  11.267 -0.3825  1.1826  2.1784
 5357TIP3    H237563   2.403   3.840  11.213 -0.4265 -0.2180 -1.1545
 5358TIP3   OH237564   2.390   5.479  13.905  0.3946  0.0499  0.6815
 5358TIP3    H137565   2.390   5.569  13.872  1.0422 -0.5103 -1.0000
 5358TIP3    H237566   2.340   5.482  13.986 -0.1290  1.8032  0.3291
 5359TIP3   OH237567   3.234   0.772   3.647 -0.0465  0.1694 -0.5225
 5359TIP3    H137568   3.190   0.788   3.731 -2.3701  1.0496 -1.8241
 5359TIP3    H237569   3.305   0.836   3.644 -1.2564  1.5740 -0.1049
 5360TIP3   OH237570   5.557   0.647   1.291 -0.2432  0.1846 -0.4338
 5360TIP3    H137571   5.570   0.557   1.320  1.7546  0.8643  0.9754
 5360TIP3    H237572   5.616   0.657   1.216  2.2727  1.2102  1.5274
 5361TIP3   OH237573   2.523   2.417   2.523 -0.5380  0.4308  0.0009
 5361TIP3    H137574   2.562   2.413   2.610  0.3905 -0.7055 -0.4429
 5361TIP3    H237575   2.573   2.485   2.477  0.7755 -0.8101 -0.4680
 5362TIP3   OH237576   0.607   6.291  15.864 -0.1468 -0.1096  0.2662
 5362TIP3    H137577   0.626   6.310  15.955 -1.9214 -0.8386  0.8333
 5362TIP3    H237578   0.563   6.369  15.832 -1.9053 -0.8179  0.8350
 5363TIP3   OH237579   4.775   4.305  13.205 -0.1677  0.2674 -0.4479
 5363TIP3    H137580   4.700   4.247  13.208 -0.0203  0.0380 -1.1555
 5363TIP3    H237581   4.761   4.360  13.128 -0.2917  1.1661  0.1851
 5364TIP3   OH237582   3.758   3.873  12.314  0.1930  0.4960 -0.2939
 5364TIP3    H137583   3.759   3.965  12.339 -1.0504  0.7505 -1.0795
 5364TIP3    H237584   3.851   3.850  12.302  0.4667  2.0137 -1.3704
 5365TIP3   OH237585   1.179   1.393   0.007  0.3387  0.2735  0.1349
 5365TIP3    H137586   1.251   1.401   0.069 -0.1992  0.6460  0.7176
 5365TIP3    H237587   1.214   1.426  -0.076  1.0393 -0.1691  0.2459
 5366TIP3   OH237588   3.157   0.540   2.024  0.5028  0.1640 -0.5478
 5366TIP3    H137589   3.231   0.521   1.967  0.8895 -0.7855  0.2534
 5366TIP3    H237590   3.195   0.547   2.111 -0.0892  1.5680 -0.3815
 5367TIP3   OH237591   1.056   5.651  14.855  0.0207 -0.5306 -0.0594
 5367TIP3    H137592   1.121   5.663  14.924 -0.4517 -0.0171  0.3045
 5367TIP3    H237593   1.075   5.721  14.792  0.1822 -0.7378 -0.2432
 5368TIP3   OH237594   0.509   2.054  11.681  0.1265  0.1646 -0.1906
 5368TIP3    H137595   0.532   2.146  11.669 -0.7049  0.2288 -1.5021
 5368TIP3    H237596   0.440   2.055  11.747  1.4557  0.2759  1.2460
 5369TIP3   OH237597   5.018   5.605   5.233  0.0414  0.2175  0.3697
 5369TIP3    H137598   5.055   5.632   5.149 -1.7422  1.1805 -0.1569
 5369TIP3    H237599   5.067   5.526   5.257  1.4038  0.6211 -0.9599
 5370TIP3   OH237600   6.378   0.410  17.246 -0.0809  0.8148  0.1332
 5370TIP3    H137601   6.387   0.367  17.160  0.1201  0.0654  0.5207
 5370TIP3    H237602   6.462   0.454  17.259  0.8120 -1.0471  0.9873
 5371TIP3   OH237603   5.454   3.753   2.011  0.0634 -0.5486  0.3007
 5371TIP3    H137604   5.440   3.846   2.030 -0.7973 -0.4694 -0.6565
 5371TIP3    H237605   5.374   3.710   2.040  0.2645 -0.9329  0.2926
 5372TIP3   OH237606   2.560   1.509  13.480  0.0713 -0.3693 -0.1105
 5372TIP3    H137607   2.528   1.496  13.390  2.2146 -0.1443 -0.9734
 5372TIP3    H237608   2.582   1.420  13.510 -1.3159 -0.5302  0.4997
 5373TIP3   OH237609   5.008   6.464  16.513 -0.4201 -0.2089  0.2632
 5373TIP3    H137610   5.013   6.461  16.418  1.0092 -0.4987  0.3244
 5373TIP3    H237611   4.980   6.376  16.539  0.0398 -0.3926  0.1468
 5374TIP3   OH237612   4.152   3.183  11.157  0.2195 -0.3530 -0.3030
 5374TIP3    H137613   4.131   3.161  11.066  0.0349 -2.8263  0.2767
 5374TIP3    H237614   4.238   3.146  11.172  0.8529  1.2247  0.1955
 5375TIP3   OH237615   0.407   6.781   1.352  0.2157  0.4122 -0.1995
 5375TIP3    H137616   0.339   6.847   1.340 -1.0363 -0.8233 -0.1039
 5375TIP3    H237617   0.454   6.779   1.268 -0.0770  1.0286 -0.3812
 5376TIP3   OH237618   3.269   1.314  15.195  0.3388  0.4203  0.6976
 5376TIP3    H137619   3.196   1.253  15.185  1.4233 -0.7796 -0.0996
 5376TIP3    H237620   3.346   1.266  15.166  1.3907  1.8418  0.9927
 5377TIP3   OH237621   0.059   6.805  12.833 -0.3515  0.3233 -0.0027
 5377TIP3    H137622  -0.036   6.804  12.841 -0.3029  0.1244  0.6255
 5377TIP3    H237623   0.086   6.889  12.870 -0.3031  0.5108 -0.4601
 5378TIP3   OH237624   6.365   2.743   5.264  0.2308  0.1079 -0.1952
 5378TIP3    H137625   6.287   2.768   5.213  0.5113 -0.1060 -0.7401
 5378TIP3    H237626   6.378   2.815   5.325  1.4417  1.7038 -2.1858
 5379TIP3   OH237627   3.805   5.232   4.649  0.1425 -0.0267 -0.4628
 5379TIP3    H137628   3.889   5.192   4.628  0.4023  0.3403 -0.1341
 5379TIP3    H237629   3.749   5.158   4.675  0.2385 -0.3164 -1.0622
 5380TIP3   OH237630   2.922   4.311  11.019  0.0769 -0.3346 -0.0809
 5380TIP3    H137631   2.988   4.253  10.982  0.2734  1.1309 -2.2013
 5380TIP3    H237632   2.972   4.374  11.071  0.5350  1.1747 -2.2104
 5381TIP3   OH237633   2.307   6.038  15.806 -0.0733  0.5799 -0.0234
 5381TIP3    H137634   2.341   6.055  15.718  0.1433  2.2077  0.3591
 5381TIP3    H237635   2.272   5.949  15.801  1.3738  0.0376 -1.3123
 5382TIP3   OH237636   5.644   4.332  12.204 -0.1867  0.4418 -0.1669
 5382TIP3    H137637   5.699   4.377  12.268 -0.7061  0.7848  0.0413
 5382TIP3    H237638   5.564   4.309  12.252  0.1053 -0.8110 -0.2368
 5383TIP3   OH237639   6.596   0.517  13.680 -0.1859 -0.2589  0.0664
 5383TIP3    H137640   6.501   0.524  13.687 -0.2284 -1.6625  1.2689
 5383TIP3    H237641   6.610   0.457  13.607 -0.2861 -1.5293  1.0762
 5384TIP3   OH237642   5.692   5.016  14.556  0.7016  0.7185 -0.5924
 5384TIP3    H137643   5.679   4.964  14.636 -0.1497  1.2951 -0.3463
 5384TIP3    H237644   5.741   5.093  14.585  2.1594 -0.0149 -0.9957
 5385TIP3   OH237645   4.501   4.583   5.582 -0.1331 -0.2392  0.1964
 5385TIP3    H137646   4.474   4.635   5.658  2.7514  0.7694  0.6661
 5385TIP3    H237647   4.517   4.496   5.616  1.4834  0.2973  0.8699
 5386TIP3   OH237648   5.639   3.051   0.875  0.2427 -0.6270 -1.2480
 5386TIP3    H137649   5.550   3.065   0.909  0.3107 -1.4292 -0.6826
 5386TIP3    H237650   5.696   3.068   0.951  0.5808 -0.0670 -1.6209
 5387TIP3   OH237651   0.799   6.755   5.293  0.7459 -0.3629  0.1539
 5387TIP3    H137652   0.860   6.793   5.357 -1.2276  1.9096  0.8438
 5387TIP3    H237653   0.716   6.749   5.340 -0.4221 -0.0465 -1.7595
 5388TIP3   OH237654   0.817   0.210   1.605 -0.0377  0.2367 -0.4997
 5388TIP3    H137655   0.788   0.266   1.677  1.4225 -1.9065  1.9281
 5388TIP3    H237656   0.737   0.164   1.579 -0.4254  0.2928  0.5073
 5389TIP3   OH237657   5.389   6.614  12.591 -0.4571 -0.1520  0.2234
 5389TIP3    H137658   5.360   6.633  12.680 -0.4107 -0.6530  0.3501
 5389TIP3    H237659   5.473   6.570  12.602 -1.2041 -1.7303  0.0412
 5390TIP3   OH237660   4.822   4.192   3.056  0.1563  0.2533 -0.1921
 5390TIP3    H137661   4.786   4.275   3.086  0.6824 -0.2156  1.9608
 5390TIP3    H237662   4.913   4.212   3.033  0.7934  0.0651  1.8899
 5391TIP3   OH237663   4.637   4.137  16.850 -0.1700  0.3360  0.3641
 5391TIP3    H137664   4.600   4.050  16.860 -0.0538  0.2789  0.2988
 5391TIP3    H237665   4.598   4.189  16.921 -1.1613  0.5402 -0.3024
 5392TIP3   OH237666   5.854   5.180   3.131  0.0146  0.2375  0.8320
 5392TIP3    H137667   5.834   5.239   3.203  0.9171 -0.9487  2.1227
 5392TIP3    H237668   5.937   5.212   3.096  0.5849 -0.3214  1.6341
 5393TIP3   OH237669   5.015   0.493  14.904  0.1996 -0.1963 -0.2869
 5393TIP3    H137670   4.920   0.490  14.916  0.1130  1.5901 -0.3099
 5393TIP3    H237671   5.038   0.405  14.874 -1.4539 -0.6150 -0.4228
 5394TIP3   OH237672   0.062   0.807  12.175  0.5773 -0.1685 -0.2461
 5394TIP3    H137673   0.145   0.771  12.207 -0.2829 -0.0877  2.3165
 5394TIP3    H237674   0.081   0.898  12.155  1.4372 -0.5361 -1.1820
 5395TIP3   OH237675   3.467   5.380  16.122  0.4176  0.0236 -0.3852
 5395TIP3    H137676   3.544   5.352  16.074 -1.1327 -4.4589 -0.7704
 5395TIP3    H237677   3.491   5.370  16.214  0.4225 -1.3154 -0.5053
 5396TIP3   OH237678   1.533   0.360  13.027 -0.2648 -0.2763 -0.3406
 5396TIP3    H137679   1.503   0.392  13.112 -0.4763  1.0225 -0.8735
 5396TIP3    H237680   1.546   0.440  12.975 -0.8808 -1.0717 -1.7679
 5397TIP3   OH237681   2.923   3.109   5.732  0.2341 -0.4999 -0.2983
 5397TIP3    H137682   2.980   3.166   5.679  0.2973 -0.4406 -0.1674
 5397TIP3    H237683   2.904   3.161   5.810  2.2568 -1.5435  0.9802
 5398TIP3   OH237684   5.553   1.521   0.939  0.5353  0.0679 -0.4135
 5398TIP3    H137685   5.594   1.542   1.022  2.3530 -2.5817 -0.5052
 5398TIP3    H237686   5.581   1.590   0.879  0.2351  1.3103  0.8423
 5399TIP3   OH237687   0.502   5.584  12.899  0.2020  0.5600 -0.1957
 5399TIP3    H137688   0.422   5.575  12.950  0.7013  2.0129  0.9082
 5399TIP3    H237689   0.565   5.527  12.942  0.2168  0.6843 -0.0505
 5400TIP3   OH237690   5.345   6.644   3.620 -0.6413  0.0925  0.4483
 5400TIP3    H137691   5.355   6.707   3.691 -1.0719  0.8768 -0.1710
 5400TIP3    H237692   5.273   6.679   3.568 -0.9879 -1.0021  0.1811
 5401TIP3   OH237693   0.194   2.190  17.108 -0.0163  0.4521 -0.4626
 5401TIP3    H137694   0.226   2.100  17.114 -1.1332  0.1635  1.7715
 5401TIP3    H237695   0.256   2.241  17.160  0.2816  0.9114 -1.2441
 5402TIP3   OH237696   1.565   6.399   2.406  0.1263 -0.0102 -0.1792
 5402TIP3    H137697   1.530   6.488   2.409 -1.4120 -0.4988 -2.1021
 5402TIP3    H237698   1.577   6.376   2.498  0.1018  1.9806  0.3824
 5403TIP3   OH237699   0.622   1.423   3.722 -0.0053 -0.3403  0.2244
 5403TIP3    H137700   0.714   1.407   3.746  0.4121  0.6791 -0.6410
 5403TIP3    H237701   0.609   1.370   3.643 -0.2772 -0.7689  0.5532
 5404TIP3   OH237702   2.586   3.263   3.346 -0.7508  0.4236  0.2080
 5404TIP3    H137703   2.634   3.262   3.428 -0.5538 -0.6289  0.0889
 5404TIP3    H237704   2.517   3.198   3.357 -1.4862  1.1511 -0.0163
 5405TIP3   OH237705   2.239   6.221  13.114 -0.4799 -0.0966 -0.2334
 5405TIP3    H137706   2.153   6.246  13.148 -0.0540  0.6184  0.3633
 5405TIP3    H237707   2.235   6.242  13.020 -1.6961 -2.1698 -0.6947
 5406TIP3   OH237708   0.623   6.613   3.698  0.4279  0.3238 -0.0069
 5406TIP3    H137709   0.669   6.634   3.780  3.2461 -0.0330 -1.3830
 5406TIP3    H237710   0.541   6.661   3.704  0.0636 -0.4082  3.4089
 5407TIP3   OH237711   0.740   2.769  14.918  0.3096  0.4249  0.4274
 5407TIP3    H137712   0.669   2.713  14.888 -0.1520  0.8468  0.7160
 5407TIP3    H237713   0.772   2.728  14.998  1.3340 -0.5322 -0.4594
 5408TIP3   OH237714   3.408   3.818  12.862  0.9909 -0.5945 -0.4591
 5408TIP3    H137715   3.425   3.909  12.837  0.3221  0.1264  1.5252
 5408TIP3    H237716   3.314   3.806  12.846  1.2441 -1.2448 -1.5523
 5409TIP3   OH237717   5.432   0.429  14.471  0.8797  0.8082 -0.2215
 5409TIP3    H137718   5.468   0.340  14.470 -0.4847  0.2269  0.1227
 5409TIP3    H237719   5.372   0.431  14.397  0.3043  1.1784  0.2462
 5410TIP3   OH237720   0.330   3.010  15.711  0.3606  0.2989 -0.1911
 5410TIP3    H137721   0.240   3.000  15.679  0.6208  1.0310 -1.2067
 5410TIP3    H237722   0.360   3.092  15.671  1.6597 -0.2230 -0.3026
 5411TIP3   OH237723   0.825   5.853   1.904 -0.2106 -0.2671  0.3823
 5411TIP3    H137724   0.731   5.841   1.911 -0.4731  1.3261  0.0713
 5411TIP3    H237725   0.844   5.841   1.811  0.2208 -2.4558  0.7139
 5412TIP3   OH237726   2.254   0.642  17.029 -0.4856  0.1501 -0.8933
 5412TIP3    H137727   2.239   0.673  16.939 -0.1234  0.7261 -0.7571
 5412TIP3    H237728   2.231   0.717  17.084 -0.1421 -0.0125 -0.5291
 5413TIP3   OH237729   6.499   5.876   1.392 -0.2276 -0.1715 -0.6689
 5413TIP3    H137730   6.438   5.948   1.408  0.5788  0.6054 -1.0262
 5413TIP3    H237731   6.462   5.802   1.441 -1.0934  0.4630 -0.3395
 5414TIP3   OH237732   1.574   4.339  10.672 -0.1034 -0.1841 -0.2810
 5414TIP3    H137733   1.488   4.376  10.651 -1.1160 -1.4543  1.3324
 5414TIP3    H237734   1.555   4.267  10.732  2.0513 -1.0329 -0.5164
 5415TIP3   OH237735   0.033   5.358   4.074  0.3004  0.0495  0.0053
 5415TIP3    H137736   0.009   5.445   4.106  1.4509  0.2702  0.3025
 5415TIP3    H237737  -0.003   5.297   4.139 -0.4665  0.2933 -0.1790
 5416TIP3   OH237738   1.055   4.358   0.581 -1.1521  0.2807  0.2211
 5416TIP3    H137739   1.121   4.291   0.599 -0.2457  1.1307  0.1133
 5416TIP3    H237740   0.983   4.310   0.541  0.5395 -0.2904 -2.3208
 5417TIP3   OH237741   1.861   2.971   3.012 -0.0979  0.4348 -0.1708
 5417TIP3    H137742   1.931   3.026   3.047  0.1937 -0.1977  0.2444
 5417TIP3    H237743   1.906   2.907   2.957 -0.5078  1.1353 -1.3638
 5418TIP3   OH237744   1.932   0.613   4.461 -0.2544  0.3095  0.0426
 5418TIP3    H137745   2.008   0.627   4.405  1.7699 -2.7507  1.6766
 5418TIP3    H237746   1.908   0.700   4.492  0.2581  1.7858 -3.2636
 5419TIP3   OH237747   5.053   0.291  10.821 -0.4925 -0.3384 -0.6152
 5419TIP3    H137748   4.991   0.254  10.884 -0.6055 -0.0010 -0.5242
 5419TIP3    H237749   5.049   0.232  10.746 -2.0989  0.5126 -1.2572
 5420TIP3   OH237750   2.663   1.663   4.987  0.5406  0.3898 -0.1235
 5420TIP3    H137751   2.591   1.666   5.050 -0.2822 -0.5403 -0.9758
 5420TIP3    H237752   2.734   1.618   5.034  1.5525  3.5373  1.5991
 5421TIP3   OH237753   2.061   3.711  13.286 -0.6796 -0.0782  0.0587
 5421TIP3    H137754   2.017   3.660  13.355  0.1916 -0.6561  0.1965
 5421TIP3    H237755   2.112   3.776  13.334 -0.3681 -0.2377 -0.0572
 5422TIP3   OH237756   2.448   2.954  11.404  0.2538 -0.3208  0.9665
 5422TIP3    H137757   2.415   2.876  11.359 -0.6119 -0.4779  1.8208
 5422TIP3    H237758   2.383   3.021  11.385  1.3187  0.3952 -0.2792
 5423TIP3   OH237759   1.672   5.168   4.441 -0.3150 -0.0269 -0.2121
 5423TIP3    H137760   1.651   5.150   4.350 -0.2877 -1.3118  0.0134
 5423TIP3    H237761   1.690   5.082   4.479 -0.5026  0.4616  1.0483
 5424TIP3   OH237762   0.396   3.463  11.728 -0.0504  0.1323 -0.4500
 5424TIP3    H137763   0.300   3.460  11.731 -0.0448  0.4269  0.2001
 5424TIP3    H237764   0.418   3.440  11.637 -0.6701 -1.4870 -0.2375
 5425TIP3   OH237765   4.616   0.195  11.088 -0.3654  0.4003 -0.2002
 5425TIP3    H137766   4.521   0.200  11.076 -0.4394 -0.3903  0.0311
 5425TIP3    H237767   4.628   0.137  11.163  0.3379 -0.3437 -0.8700
 5426TIP3   OH237768   3.281   2.751  11.500 -0.6754 -0.1076 -0.0593
 5426TIP3    H137769   3.224   2.828  11.512 -0.7625 -0.2508  0.4476
 5426TIP3    H237770   3.369   2.788  11.493 -0.5458 -0.0341  1.5414
 5427TIP3   OH237771   2.205   5.551  11.707  0.0876 -0.0410  0.1044
 5427TIP3    H137772   2.231   5.489  11.639  2.6321 -0.2555  1.1519
 5427TIP3    H237773   2.206   5.636  11.664  0.9116 -0.2584 -0.3192
 5428TIP3   OH237774   6.539   0.096   4.888  0.1922 -0.4727 -0.3498
 5428TIP3    H137775   6.567   0.187   4.880 -1.1927  0.0328  0.3937
 5428TIP3    H237776   6.451   0.094   4.851 -0.2722 -1.2564  0.7622
 5429TIP3   OH237777   2.515   2.773   6.599  0.5069  0.1694  0.0243
 5429TIP3    H137778   2.564   2.714   6.656 -0.7584  0.9258  1.9867
 5429TIP3    H237779   2.440   2.721   6.570  0.5232  0.1596 -0.0006
 5430TIP3   OH237780   3.326   0.192   5.402  0.0663 -0.4895 -0.2999
 5430TIP3    H137781   3.272   0.230   5.333 -1.9149 -0.9025  0.9480
 5430TIP3    H237782   3.287   0.106   5.418  0.3553 -0.3207  1.4638
 5431TIP3   OH237783   0.896   5.982  11.516  0.0332  0.0429  0.1202
 5431TIP3    H137784   0.976   6.015  11.475 -0.6797 -0.7670 -2.1054
 5431TIP3    H237785   0.840   5.958  11.442 -0.9414 -2.5686  1.5784
 5432TIP3   OH237786   0.661   3.974   2.074  0.0415  0.0881 -0.2745
 5432TIP3    H137787   0.570   3.999   2.059 -0.5074 -0.7071  1.4526
 5432TIP3    H237788   0.676   3.902   2.012 -1.4910 -1.7482  1.3169
 5433TIP3   OH237789   2.333   1.164   1.970  0.4289 -0.3665  0.0471
 5433TIP3    H137790   2.294   1.236   2.021  0.4571 -0.3784  0.0853
 5433TIP3    H237791   2.419   1.150   2.010 -0.9221 -2.8589  2.4615
 5434TIP3   OH237792   2.643   6.005   5.026 -0.1980  0.3076  0.2732
 5434TIP3    H137793   2.733   5.974   5.035 -0.1422  0.0412 -0.9524
 5434TIP3    H237794   2.602   5.943   4.966 -0.8624  1.0710 -0.0895
 5435TIP3   OH237795   3.944   2.539   2.234 -0.0742 -0.7468 -0.6357
 5435TIP3    H137796   3.888   2.603   2.190 -0.6385 -1.5795 -1.1644
 5435TIP3    H237797   3.914   2.539   2.325  1.0384  0.9186 -0.2301
 5436TIP3   OH237798   1.979   5.701   0.603  0.5330 -0.3377  0.0679
 5436TIP3    H137799   1.915   5.693   0.532  1.0132 -0.8782 -0.3104
 5436TIP3    H237800   1.959   5.786   0.643  1.2836  0.7628 -1.7384
 5437TIP3   OH237801   3.962   2.178   2.149  0.4966 -0.2128  0.1288
 5437TIP3    H137802   4.025   2.169   2.077  0.6942  0.0642  0.2630
 5437TIP3    H237803   4.016   2.195   2.226  0.2443  0.4364  0.1740
 5438TIP3   OH237804   5.122   4.998  13.279 -0.0479  0.7176  0.6584
 5438TIP3    H137805   5.061   4.958  13.218 -0.5707  1.4047  0.7121
 5438TIP3    H237806   5.138   5.086  13.243  0.9501  0.5291  0.6160
 5439TIP3   OH237807   6.018   6.068   3.081 -0.6125  0.0007  0.6878
 5439TIP3    H137808   6.037   5.979   3.110 -1.7058 -1.2298 -2.0658
 5439TIP3    H237809   6.069   6.079   3.001  0.4666  2.3692  1.5905
 5440TIP3   OH237810   5.832   4.706   1.320  0.3764 -0.2321 -0.3790
 5440TIP3    H137811   5.830   4.614   1.344 -0.4323 -0.1656 -0.1486
 5440TIP3    H237812   5.751   4.720   1.271  0.6361  0.2849 -0.6725
 5441TIP3   OH237813   6.789   1.425   3.491 -0.1917  0.3259 -0.2028
 5441TIP3    H137814   6.843   1.388   3.560 -1.2871 -0.3911  0.3110
 5441TIP3    H237815   6.768   1.513   3.522 -0.8833 -0.0791  0.5282
 5442TIP3   OH237816   2.571   3.125  12.495  0.6441 -0.0209  0.5251
 5442TIP3    H137817   2.535   3.176  12.422 -0.6135 -0.3653  0.8674
 5442TIP3    H237818   2.494   3.102  12.547  1.2112 -1.9948  0.5455
 5443TIP3   OH237819   3.872   2.005  14.040 -0.2915  0.0585  0.1884
 5443TIP3    H137820   3.847   2.036  14.127 -1.0159 -0.9250  0.3381
 5443TIP3    H237821   3.895   1.913  14.053  0.3268  0.0991 -0.5359
 5444TIP3   OH237822   4.065   2.451  16.203  0.1952 -0.8387  0.0352
 5444TIP3    H137823   4.056   2.546  16.196 -1.3579 -0.8242  1.6738
 5444TIP3    H237824   4.147   2.438  16.251  0.6992 -0.3681 -0.6745
 5445TIP3   OH237825   2.911   3.828   1.947  0.3986 -0.5232  0.6563
 5445TIP3    H137826   2.975   3.814   2.017  2.7245 -1.2425 -1.5120
 5445TIP3    H237827   2.915   3.749   1.894 -3.0467 -1.0289  0.8988
 5446TIP3   OH237828   3.634   3.266   3.499  0.4366 -0.6406 -0.1413
 5446TIP3    H137829   3.606   3.261   3.590 -0.8524  2.8412 -0.2123
 5446TIP3    H237830   3.554   3.256   3.449  1.1549 -2.6948 -1.0096
 5447TIP3   OH237831   0.641   5.855   0.429  0.1915  0.1029  0.1214
 5447TIP3    H137832   0.676   5.904   0.354  0.6020  0.6554  0.6725
 5447TIP3    H237833   0.718   5.814   0.469  0.3008  1.6149  1.5555
 5448TIP3   OH237834   4.287   0.694   3.072  0.3372 -0.2553 -0.3665
 5448TIP3    H137835   4.308   0.743   3.151  0.0549 -0.8038  0.0488
 5448TIP3    H237836   4.316   0.605   3.090  2.0182 -0.0173 -1.5851
 5449TIP3   OH237837   6.365   1.391  14.271 -0.1243  0.1903  0.1942
 5449TIP3    H137838   6.329   1.475  14.245 -0.1440  1.2748  3.2837
 5449TIP3    H237839   6.460   1.403  14.268 -0.1288  0.4446  0.9154
 5450TIP3   OH237840   4.095   6.160   5.551 -0.4762  0.1929 -0.4763
 5450TIP3    H137841   4.172   6.125   5.595  0.4296  0.8355 -1.4926
 5450TIP3    H237842   4.067   6.233   5.606 -2.1489 -1.7833  1.4524
 5451TIP3   OH237843   4.475   4.139   2.545 -0.0395 -0.0689 -0.2666
 5451TIP3    H137844   4.542   4.085   2.586 -0.6872 -0.7883 -0.1321
 5451TIP3    H237845   4.511   4.228   2.547  0.8962 -0.4376 -0.1920
 5452TIP3   OH237846   3.172   6.761  13.436 -0.7508 -0.3210  0.5162
 5452TIP3    H137847   3.124   6.738  13.516 -0.3964  0.2718  0.9098
 5452TIP3    H237848   3.105   6.794  13.376 -0.6694  2.6317  1.8350
 5453TIP3   OH237849   5.240   3.663   2.343  0.0987 -0.0798 -0.0033
 5453TIP3    H137850   5.146   3.673   2.363 -0.1198 -1.4147 -0.3036
 5453TIP3    H237851   5.283   3.663   2.428  0.1906  3.3838  0.0938
 5454TIP3   OH237852   0.856   0.147   1.161 -0.1581  0.2223  0.3886
 5454TIP3    H137853   0.805   0.144   1.242  0.8301  1.6124  1.0989
 5454TIP3    H237854   0.831   0.067   1.115 -1.4714 -0.1207  1.6129
 5455TIP3   OH237855   2.297   4.888  11.262 -0.7169  0.3956 -0.0366
 5455TIP3    H137856   2.226   4.888  11.327 -2.2780  0.1701 -1.6501
 5455TIP3    H237857   2.319   4.980  11.250 -0.3626  0.4372  0.8241
 5456TIP3   OH237858   5.284   1.553  11.341  0.1012  0.1304  0.2033
 5456TIP3    H137859   5.379   1.540  11.342  0.2165  0.7892  1.8533
 5456TIP3    H237860   5.248   1.469  11.368  0.3279  0.3291  1.1830
 5457TIP3   OH237861   4.960   2.916  15.063  0.0405 -0.4089 -0.0674
 5457TIP3    H137862   5.040   2.876  15.098  0.2675  1.0997  1.2719
 5457TIP3    H237863   4.903   2.925  15.139 -0.4478  0.7217 -0.5522
 5458TIP3   OH237864   3.661   0.649  11.932  0.0939  0.3846  0.1084
 5458TIP3    H137865   3.648   0.565  11.887  3.7318 -1.3482  1.8338
 5458TIP3    H237866   3.619   0.638  12.017  0.9908  0.0332  0.5254
 5459TIP3   OH237867   2.333   2.179  16.721  0.0123 -0.0650  0.0950
 5459TIP3    H137868   2.396   2.216  16.784  0.7724 -0.4365 -0.4353
 5459TIP3    H237869   2.374   2.191  16.636 -1.6472  1.7445 -0.5193
 5460TIP3   OH237870   1.213   5.646   4.632 -0.4881 -0.0636  0.7754
 5460TIP3    H137871   1.269   5.569   4.640 -0.0262  0.2456  0.5461
 5460TIP3    H237872   1.256   5.712   4.687 -0.0197  0.5222 -0.2775
 5461TIP3   OH237873   2.337   4.195  16.191  0.1028  0.3200  0.1806
 5461TIP3    H137874   2.380   4.233  16.115 -0.8516  0.0333 -0.5206
 5461TIP3    H237875   2.243   4.202  16.172 -0.1408 -2.8148 -0.2358
 5462TIP3   OH237876   1.253   5.680  10.956 -0.1937 -0.2189 -0.5943
 5462TIP3    H137877   1.187   5.619  10.989  1.1426 -2.8607 -2.4217
 5462TIP3    H237878   1.212   5.721  10.880 -0.1896 -0.9559 -1.0075
 5463TIP3   OH237879   1.793   3.321  10.623 -0.7100 -0.0750  0.1505
 5463TIP3    H137880   1.841   3.239  10.632  0.7063  0.9737  3.4371
 5463TIP3    H237881   1.844   3.372  10.560  0.7341 -0.2027  1.1899
 5464TIP3   OH237882   3.676   0.301  12.794 -0.4192 -0.1359 -0.3221
 5464TIP3    H137883   3.664   0.360  12.868  0.7327 -1.0079  0.5871
 5464TIP3    H237884   3.627   0.222  12.817  2.2507 -1.5805  0.9537
 5465TIP3   OH237885   4.473   5.114  12.065 -0.6436 -0.2871  0.1126
 5465TIP3    H137886   4.445   5.032  12.024 -3.1513  0.5047  0.0491
 5465TIP3    H237887   4.469   5.096  12.159 -1.2204 -0.2420  0.1001
 5466TIP3   OH237888   6.045   5.175   5.107 -0.1880 -0.5986 -0.5307
 5466TIP3    H137889   6.040   5.126   5.025 -0.2165 -0.8910 -0.3542
 5466TIP3    H237890   6.061   5.265   5.080 -0.8910 -0.5747 -0.8865
 5467TIP3   OH237891   4.192   4.364  11.275 -0.1388 -0.2082  0.4232
 5467TIP3    H137892   4.188   4.269  11.265  2.6733 -0.2479 -1.6269
 5467TIP3    H237893   4.124   4.397  11.216  0.3739 -0.9489 -0.6100
 5468TIP3   OH237894   3.933   5.293   3.288 -0.0477 -0.0324  0.1519
 5468TIP3    H137895   3.922   5.313   3.381 -0.0146  2.0212 -0.2470
 5468TIP3    H237896   3.845   5.269   3.259 -0.3729  0.8631  0.3783
 5469TIP3   OH237897   2.009   0.271  16.348  0.3683 -0.8073  0.2986
 5469TIP3    H137898   1.977   0.316  16.270  3.5777 -0.5311 -1.0361
 5469TIP3    H237899   1.985   0.328  16.421  0.0957  0.5833 -0.8459
 5470TIP3   OH237900   5.811   3.207   1.871  0.6379 -0.0377 -0.1422
 5470TIP3    H137901   5.900   3.174   1.886  0.0200 -1.7159  0.0467
 5470TIP3    H237902   5.761   3.130   1.844 -0.3610  1.2275 -2.1242
 5471TIP3   OH237903   1.465   3.895  16.533 -0.5355 -0.3759  0.1400
 5471TIP3    H137904   1.374   3.914  16.556 -0.5034  0.4663 -0.3633
 5471TIP3    H237905   1.509   3.883  16.616 -1.0396 -0.4512  0.4001
 5472TIP3   OH237906   0.738   1.226   0.599  0.2320 -0.2565  0.3299
 5472TIP3    H137907   0.725   1.307   0.647 -0.1020  0.1377 -0.4132
 5472TIP3    H237908   0.745   1.159   0.667  0.1261  0.3356  0.9367
 5473TIP3   OH237909   5.321   0.729  15.371 -0.1058 -0.0939 -0.2573
 5473TIP3    H137910   5.383   0.763  15.307  0.4078 -1.6706 -0.6377
 5473TIP3    H237911   5.243   0.705  15.320 -0.0488 -0.4958 -0.1577
 5474TIP3   OH237912   1.442   5.511   5.440 -0.0405 -0.0973  0.0928
 5474TIP3    H137913   1.357   5.475   5.415  0.7655 -2.0780 -0.0070
 5474TIP3    H237914   1.502   5.481   5.372  1.3521 -1.6939  1.9122
 5475TIP3   OH237915   3.330   6.304  15.934 -0.1480 -0.1954  0.2739
 5475TIP3    H137916   3.241   6.335  15.915 -0.1364 -0.5976 -0.4683
 5475TIP3    H237917   3.321   6.255  16.015 -0.7155 -0.7066 -0.0911
 5476TIP3   OH237918   5.903   1.751   1.702 -0.6860  0.2125  0.6109
 5476TIP3    H137919   5.989   1.709   1.695 -1.6109 -1.8394  0.8889
 5476TIP3    H237920   5.900   1.786   1.791  0.9975  3.1221 -0.3339
 5477TIP3   OH237921   3.969   4.600   0.080  0.2877  0.4445  0.1933
 5477TIP3    H137922   3.899   4.645   0.033 -0.3319 -1.1934 -0.5317
 5477TIP3    H237923   3.962   4.509   0.052  1.9138  0.0013  1.0886
 5478TIP3   OH237924   2.375   3.380  13.492 -0.1730 -0.0648 -0.2123
 5478TIP3    H137925   2.350   3.393  13.400  0.1977 -0.7220 -0.4180
 5478TIP3    H237926   2.331   3.450  13.539 -1.3461 -0.4241 -0.7336
 5479TIP3   OH237927   3.829   0.458   0.509  0.2740 -0.0110  0.4100
 5479TIP3    H137928   3.862   0.526   0.451 -1.4119  1.8844  1.5329
 5479TIP3    H237929   3.790   0.506   0.582  0.6865 -2.2423  2.2210
 5480TIP3   OH237930   6.273   1.613  12.039  0.1772  0.1208  0.0529
 5480TIP3    H137931   6.313   1.655  12.115  3.1987 -2.2485 -0.0426
 5480TIP3    H237932   6.308   1.661  11.963  2.6571 -1.6329 -0.0083
 5481TIP3   OH237933   3.648   6.250  12.882  0.2906 -0.2855  0.3117
 5481TIP3    H137934   3.562   6.258  12.924  0.4861 -1.3038  0.9350
 5481TIP3    H237935   3.695   6.328  12.911 -1.5642  2.3222 -2.9667
 5482TIP3   OH237936   6.035   5.315   1.864 -0.4056 -0.0552  0.0382
 5482TIP3    H137937   6.035   5.307   1.959 -1.4160  0.5768  0.1151
 5482TIP3    H237938   6.025   5.409   1.848 -0.4552 -0.1748 -0.6860
 5483TIP3   OH237939   1.593   0.003  11.145  0.1609 -0.1115 -0.1791
 5483TIP3    H137940   1.601   0.099  11.142 -0.8784 -0.0362 -1.4775
 5483TIP3    H237941   1.628  -0.027  11.061  1.3405 -0.9749  0.5905
 5484TIP3   OH237942   3.458   0.405  12.015  0.4951  0.5155 -0.4518
 5484TIP3    H137943   3.456   0.485  12.068  0.8238  0.5173 -0.4454
 5484TIP3    H237944   3.502   0.340  12.069  0.0852  0.2797 -0.3944
 5485TIP3   OH237945   3.971   3.754  17.163 -0.3091 -0.2384  0.3486
 5485TIP3    H137946   3.906   3.811  17.121 -0.4787  0.8423  1.9964
 5485TIP3    H237947   3.979   3.680  17.103 -2.4789 -0.0297 -0.3031
 5486TIP3   OH237948   5.458   2.771  16.480 -0.0358 -0.1719 -0.5143
 5486TIP3    H137949   5.405   2.733  16.410 -0.8403  0.1392 -0.0898
 5486TIP3    H237950   5.396   2.787  16.551  0.5864  0.4199 -0.0904
 5487TIP3   OH237951   1.277   0.381  11.076  0.1409  0.1582  0.3532
 5487TIP3    H137952   1.294   0.374  10.982  0.4811 -0.9655  0.4759
 5487TIP3    H237953   1.357   0.419  11.112 -0.1191  0.9108  0.1619
 5488TIP3   OH237954   2.054   3.047  13.307 -0.1481  0.0559 -0.0181
 5488TIP3    H137955   2.104   3.006  13.378 -0.0895 -1.6107 -0.9739
 5488TIP3    H237956   2.094   3.134  13.297 -1.7845  1.4458  3.6259
 5489TIP3   OH237957   2.757   5.422  15.840 -0.5319 -0.6640  0.0232
 5489TIP3    H137958   2.742   5.392  15.929 -0.9202 -0.7776 -0.0771
 5489TIP3    H237959   2.849   5.449  15.839 -0.6664 -0.1614  0.6003
 5490TIP3   OH237960   1.972   1.107  13.184  0.2559 -1.2150  0.0468
 5490TIP3    H137961   1.966   1.016  13.212  0.6372 -1.3616 -0.3491
 5490TIP3    H237962   2.016   1.104  13.099  3.3866 -0.4250  1.5020
 5491TIP3   OH237963   5.698   6.626  12.077 -0.1465  0.4918 -0.1639
 5491TIP3    H137964   5.605   6.609  12.086  0.3645 -1.6582  2.3123
 5491TIP3    H237965   5.738   6.540  12.067  1.5665  1.4139 -2.4342
 5492TIP3   OH237966   2.478   0.522  13.735 -0.1102 -0.0872  0.1791
 5492TIP3    H137967   2.498   0.615  13.734 -1.2736  0.1807  0.2759
 5492TIP3    H237968   2.403   0.513  13.794  1.8336 -1.5266  2.6366
 5493TIP3   OH237969   2.368   3.202   4.730  0.0488  1.1592 -0.2727
 5493TIP3    H137970   2.403   3.277   4.682 -0.6878  1.0174 -1.0505
 5493TIP3    H237971   2.370   3.130   4.667 -2.5412  1.3743 -0.7283
 5494TIP3   OH237972   2.615   1.025   0.607  0.1122 -0.4319 -0.4719
 5494TIP3    H137973   2.683   1.027   0.674  0.1563  0.4520 -0.5369
 5494TIP3    H237974   2.597   1.117   0.588 -2.3488 -0.5625  0.8160
 5495TIP3   OH237975   1.817   5.390  12.575  0.5144  0.2107  0.1693
 5495TIP3    H137976   1.790   5.326  12.641  1.5554  0.5908  1.0030
 5495TIP3    H237977   1.744   5.452  12.571  0.7102  0.5688  1.5140
 5496TIP3   OH237978   2.837   2.568   6.292  0.0378 -0.0830  0.5157
 5496TIP3    H137979   2.923   2.608   6.276 -0.6059  0.9448 -0.5431
 5496TIP3    H237980   2.857   2.479   6.319  1.4203 -0.6706 -2.1001
 5497TIP3   OH237981   2.994   3.413   6.135  0.3068  0.4477  0.8165
 5497TIP3    H137982   2.973   3.471   6.062 -2.6482 -1.3245  0.0844
 5497TIP3    H237983   2.966   3.462   6.213  1.0427  1.3019  0.5664
 5498TIP3   OH237984   3.594   4.962  13.546  0.0463  0.0013  0.3868
 5498TIP3    H137985   3.614   5.012  13.625  0.8723 -1.3375  1.0681
 5498TIP3    H237986   3.521   5.008  13.506 -1.2186  0.0333  2.5880
 5499TIP3   OH237987   2.435   3.870   5.978  0.2089 -0.3533 -0.2485
 5499TIP3    H137988   2.377   3.944   5.998  0.7118  0.2738 -1.0890
 5499TIP3    H237989   2.382   3.813   5.922  0.0034 -0.3824 -0.0293
 5500TIP3   OH237990   1.697   2.523   2.859 -0.3928  0.2772 -0.3496
 5500TIP3    H137991   1.603   2.527   2.837 -1.1944  1.6322  2.7256
 5500TIP3    H237992   1.728   2.612   2.845 -0.0672  0.2866  0.3760
 5501TIP3   OH237993   0.639   1.624   2.362 -0.5205 -0.4496 -0.5350
 5501TIP3    H137994   0.677   1.539   2.387 -0.3950 -1.0651 -2.6747
 5501TIP3    H237995   0.714   1.679   2.341 -0.6794 -0.4597 -1.1272
 5502TIP3   OH237996   2.005   4.065  12.321 -0.0809 -0.2870 -0.4287
 5502TIP3    H137997   2.039   4.016  12.247 -1.6406 -0.8848 -0.7897
 5502TIP3    H237998   1.963   3.999  12.377  0.3717  0.2591  0.5773
 5503TIP3   OH237999   5.044   0.905   4.935 -0.6527  0.1717  0.1135
 5503TIP3    H138000   5.093   0.857   5.002 -1.2469  1.5818  1.6111
 5503TIP3    H238001   5.004   0.977   4.982 -0.4518  1.6826 -1.9175
 5504TIP3   OH238002   6.158   4.782   2.366 -0.5387  0.2176 -0.0730
 5504TIP3    H138003   6.123   4.744   2.285  1.4916  0.6287 -1.2337
 5504TIP3    H238004   6.088   4.772   2.430 -2.1214 -0.3856 -1.8055
 5505TIP3   OH238005   2.961   1.123  14.755 -0.2637 -0.2253 -0.9882
 5505TIP3    H138006   2.936   1.212  14.781  1.1941 -0.6425  2.3211
 5505TIP3    H238007   2.900   1.067  14.803  1.6155 -1.0451  0.5309
 5506TIP3   OH238008   5.679   1.072  13.553 -0.6962 -0.2909  0.3933
 5506TIP3    H138009   5.706   1.089  13.644 -0.7279 -0.0088  0.3532
 5506TIP3    H238010   5.584   1.066  13.558 -0.5800 -3.2494  0.8602
 5507TIP3   OH238011   5.776   5.794  10.445 -0.0764  0.0168  0.4374
 5507TIP3    H138012   5.801   5.883  10.421  0.0075  0.2352  1.3243
 5507TIP3    H238013   5.846   5.763  10.502 -0.3508 -0.4447  0.5306
 5508TIP3   OH238014   2.285   4.093   5.866  1.1074 -0.1492 -0.1678
 5508TIP3    H138015   2.360   4.045   5.831  1.7686  1.5068 -1.1619
 5508TIP3    H238016   2.317   4.183   5.877 -0.8886  0.7826 -1.2691
 5509TIP3   OH238017   1.582   1.362   0.291  0.0723 -0.3229  0.4227
 5509TIP3    H138018   1.586   1.269   0.310  1.2325 -0.1109  1.3056
 5509TIP3    H238019   1.520   1.369   0.218  0.9190 -1.9078 -0.5028
 5510TIP3   OH238020   5.145   3.743   0.648 -0.3945  0.3538  0.2553
 5510TIP3    H138021   5.067   3.768   0.598  0.1739  0.1541 -0.7481
 5510TIP3    H238022   5.135   3.789   0.732 -1.2576  0.8579 -0.1052
 5511TIP3   OH238023   1.135   2.357  14.489 -0.5222 -0.5558 -0.4850
 5511TIP3    H138024   1.136   2.403  14.405  0.3701 -0.2819 -0.3368
 5511TIP3    H238025   1.075   2.408  14.543  0.0521  0.1520 -0.4942
 5512TIP3   OH238026   1.162   5.080  16.245 -0.3512 -0.0667  0.1234
 5512TIP3    H138027   1.175   5.165  16.204 -0.1700  0.0120  0.3419
 5512TIP3    H238028   1.133   5.023  16.174  1.1454 -0.2426 -0.3936
 5513TIP3   OH238029   3.593   1.607  12.557 -0.4265 -0.1137 -0.0637
 5513TIP3    H138030   3.639   1.661  12.493 -1.9458 -0.8427 -1.8220
 5513TIP3    H238031   3.518   1.660  12.584  0.3212  0.2909  1.3858
 5514TIP3   OH238032   1.950   1.468   5.949  0.4232 -0.0285  0.6180
 5514TIP3    H138033   1.921   1.558   5.965 -0.5991 -0.4045  0.9689
 5514TIP3    H238034   1.919   1.419   6.025  1.3372 -0.6077  0.6273
 5515TIP3   OH238035   6.043   4.012  13.065  0.6600 -0.8568  0.6431
 5515TIP3    H138036   6.072   3.997  12.976  2.4426 -1.1660  1.2487
 5515TIP3    H238037   5.994   4.094  13.061  0.3428 -1.0947 -0.6762
 5516TIP3   OH238038   0.072   3.067  14.645 -0.0025 -0.2036 -0.0306
 5516TIP3    H138039  -0.018   3.082  14.674  0.1246 -0.2949  0.4093
 5516TIP3    H238040   0.084   3.129  14.573 -0.1559  0.3649  0.4267
 5517TIP3   OH238041   1.302   6.245   1.617  0.1939 -0.0785  0.5335
 5517TIP3    H138042   1.307   6.238   1.712  0.6525 -3.3217  0.3846
 5517TIP3    H238043   1.392   6.230   1.587 -0.0247  0.4414 -0.4346
 5518TIP3   OH238044   0.658   2.803   3.303  0.2494 -0.2736 -0.1978
 5518TIP3    H138045   0.608   2.728   3.337  0.4559 -0.0163  0.6930
 5518TIP3    H238046   0.749   2.773   3.305  0.3588  0.0804  0.4005
 5519TIP3   OH238047   5.952   2.272   3.796 -0.3062  0.4995 -0.1447
 5519TIP3    H138048   6.009   2.219   3.741 -0.1832  1.4004 -0.9277
 5519TIP3    H238049   5.864   2.238   3.780 -0.1228 -0.1028  0.1236
 5520TIP3   OH238050   6.471   2.393   4.363 -0.2906 -0.3430  0.2107
 5520TIP3    H138051   6.407   2.446   4.315 -0.3261  1.1791  1.8326
 5520TIP3    H238052   6.538   2.371   4.298 -0.9372  0.6322 -0.8146
 5521TIP3   OH238053   6.293   2.965  17.311 -0.1822  0.1981 -0.3083
 5521TIP3    H138054   6.256   3.015  17.238 -2.3804  0.5506  0.9433
 5521TIP3    H238055   6.268   3.015  17.389  0.3438 -1.1948  0.7972
 5522TIP3   OH238056   0.147   6.250   3.829 -0.0197  0.7208  0.1639
 5522TIP3    H138057   0.223   6.296   3.867  0.3619  1.1065 -1.0081
 5522TIP3    H238058   0.088   6.236   3.903  0.5566  1.7178  0.8414
 5523TIP3   OH238059   6.639   5.825   5.421  0.2763  0.3579 -0.2208
 5523TIP3    H138060   6.568   5.866   5.372 -0.7594  0.6870  1.4750
 5523TIP3    H238061   6.695   5.898   5.449 -0.5361  0.4528  1.2089
 5524TIP3   OH238062   0.262   3.591   4.862 -0.0416 -0.6260  0.0106
 5524TIP3    H138063   0.306   3.517   4.903  1.7400 -0.1426 -0.9193
 5524TIP3    H238064   0.286   3.666   4.917  0.8425 -0.2708 -0.8117
 5525TIP3   OH238065   3.006   2.673   4.259  0.0283 -0.2594 -0.7106
 5525TIP3    H138066   2.957   2.625   4.191 -0.0985 -1.8322  0.4361
 5525TIP3    H238067   3.080   2.711   4.212 -0.6824 -0.3402 -1.9460
 5526TIP3   OH238068   2.559   2.319  17.141  0.2961 -0.1574  0.2280
 5526TIP3    H138069   2.644   2.325  17.096  0.6628  2.9083  1.1059
 5526TIP3    H238070   2.581   2.290  17.229  0.6152  1.4076  0.7022
 5527TIP3   OH238071   2.180   6.129   0.858 -0.5290 -0.8549 -0.6093
 5527TIP3    H138072   2.086   6.114   0.872 -0.4699 -4.6308 -3.0774
 5527TIP3    H238073   2.183   6.193   0.787 -1.1649 -0.1098  0.0084
 5528TIP3   OH238074   4.667   5.062  17.247  0.2645  0.3238  0.5048
 5528TIP3    H138075   4.725   5.098  17.180  0.7182  0.8624  1.1800
 5528TIP3    H238076   4.672   5.124  17.319 -0.5434 -0.0389  0.8847
 5529TIP3   OH238077   0.665   2.274   5.128 -0.8699  0.5491  0.4695
 5529TIP3    H138078   0.636   2.198   5.079  0.6303 -0.0364  0.4207
 5529TIP3    H238079   0.590   2.334   5.128 -2.8858 -1.7896  2.4017
 5530TIP3   OH238080   5.669   2.721   5.025 -0.0862  0.7529 -0.2689
 5530TIP3    H138081   5.677   2.710   4.930  0.4803 -2.5145  0.0577
 5530TIP3    H238082   5.748   2.770   5.049  0.2216  0.8312 -1.3559
 5531TIP3   OH238083   4.531   0.330  13.364 -0.1372  0.5989 -0.0976
 5531TIP3    H138084   4.563   0.389  13.296  0.9489  0.2499  0.0846
 5531TIP3    H238085   4.607   0.314  13.420 -1.4076  2.4102  2.3793
 5532TIP3   OH238086   4.943   0.729  17.204 -0.3513  0.2115  0.4903
 5532TIP3    H138087   4.927   0.819  17.235 -0.5274  0.6225 -0.7175
 5532TIP3    H238088   5.037   0.718  17.212 -0.3323  0.5026  0.6957
 5533TIP3   OH238089   6.553   0.502   4.656  0.2350  0.1127  0.3827
 5533TIP3    H138090   6.514   0.584   4.687  0.9128  0.1508  1.1459
 5533TIP3    H238091   6.593   0.524   4.572 -0.5871  0.2847  0.0263
 5534TIP3   OH238092   3.896   0.280  12.610  0.2188 -0.1943 -0.8436
 5534TIP3    H138093   3.962   0.332  12.656  0.3919 -2.7213  2.0902
 5534TIP3    H238094   3.827   0.267  12.675 -0.2630 -2.6921 -1.7456
 5535TIP3   OH238095   5.987   2.933   2.455  0.2365  0.3960  0.2514
 5535TIP3    H138096   5.895   2.943   2.432  0.2226  1.4424  0.6946
 5535TIP3    H238097   5.989   2.860   2.516 -0.2378  0.0699 -0.1227
 5536TIP3   OH238098   6.613   2.788  11.264  0.9572  0.1703 -0.0523
 5536TIP3    H138099   6.531   2.796  11.312  0.0714 -1.7209 -1.1284
 5536TIP3    H238100   6.677   2.761  11.329 -0.2007 -2.2555  0.1802
 5537TIP3   OH238101   1.054   4.730  12.662 -0.9604 -0.2773  0.4286
 5537TIP3    H138102   1.107   4.732  12.742 -0.1770  1.2629 -0.0885
 5537TIP3    H238103   1.106   4.679  12.600  0.6473  2.2753 -0.4856
 5538TIP3   OH238104   0.578   2.472  11.392  0.2869  0.3002  0.3749
 5538TIP3    H138105   0.670   2.468  11.415  0.9691  0.8171 -1.9821
 5538TIP3    H238106   0.562   2.391  11.342 -0.1356  0.8656 -0.4403
 5539TIP3   OH238107   3.585   2.658   2.364  0.3288  1.0044 -0.4090
 5539TIP3    H138108   3.621   2.667   2.276  1.2513  3.0785  0.1094
 5539TIP3    H238109   3.654   2.690   2.422 -0.7907  1.0538  0.9722
 5540TIP3   OH238110   2.174   4.696  16.442 -0.5670 -0.1290 -0.5676
 5540TIP3    H138111   2.222   4.677  16.361 -1.1505  0.7616 -1.1339
 5540TIP3    H238112   2.242   4.704  16.509 -0.0582 -0.5986 -1.0136
 5541TIP3   OH238113   6.433   5.395  13.029  0.2089  0.3904 -0.5316
 5541TIP3    H138114   6.482   5.426  12.953  0.6301  1.2506  0.0658
 5541TIP3    H238115   6.457   5.456  13.099  1.1013 -1.3243  0.7341
 5542TIP3   OH238116   5.714   4.516   3.615 -0.0989  0.3536 -0.1822
 5542TIP3    H138117   5.678   4.591   3.662 -0.4292  0.6305 -0.8651
 5542TIP3    H238118   5.649   4.447   3.627 -1.6700  1.2901 -2.6647
 5543TIP3   OH238119   5.315   5.899   2.741 -0.0432  0.1794  0.0827
 5543TIP3    H138120   5.281   5.988   2.737 -1.8534 -0.3849  1.5599
 5543TIP3    H238121   5.355   5.893   2.828 -1.9974 -1.0735  0.9631
 5544TIP3   OH238122   0.929   2.367   5.894  0.0120 -0.3949 -0.1308
 5544TIP3    H138123   0.951   2.429   5.824 -0.6266  0.5440  0.4643
 5544TIP3    H238124   0.980   2.289   5.875  0.9116  0.3535 -0.8644
 5545TIP3   OH238125   5.050   5.162  16.214 -0.3100 -0.0442 -0.1464
 5545TIP3    H138126   5.001   5.142  16.293 -1.4196 -0.4640 -0.9085
 5545TIP3    H238127   4.985   5.201  16.155  0.4197 -0.0480 -0.9655
 5546TIP3   OH238128   6.016   3.671   4.275  0.4834  0.2185  0.3907
 5546TIP3    H138129   5.978   3.587   4.251 -1.1587  0.4537  1.9518
 5546TIP3    H238130   6.004   3.727   4.199 -0.4670 -0.3170  0.1403
 5547TIP3   OH238131   0.961   1.898   5.323 -0.1262  0.0563  0.1883
 5547TIP3    H138132   0.969   1.850   5.405 -1.0790  0.4038  0.4964
 5547TIP3    H238133   0.889   1.959   5.338 -1.3938 -0.9537 -1.4201
 5548TIP3   OH238134   4.971   0.453   3.861 -0.3028 -0.2216  0.0592
 5548TIP3    H138135   4.998   0.541   3.889  0.0942 -0.3095 -0.0302
 5548TIP3    H238136   5.031   0.395   3.907  1.0563 -0.3225 -1.7316
 5549TIP3   OH238137   6.654   0.344   4.863 -0.9175  0.2999  0.1576
 5549TIP3    H138138   6.611   0.382   4.786  1.6333  1.0051 -1.0475
 5549TIP3    H238139   6.673   0.418   4.920  0.0252  0.2347 -0.0548
 5550TIP3   OH238140   0.596   6.395  13.226 -0.3696  0.1549  0.7592
 5550TIP3    H138141   0.647   6.343  13.164 -0.2706  0.8549  0.2484
 5550TIP3    H238142   0.639   6.480  13.227 -0.3888  0.1621  1.7662
 5551TIP3   OH238143   5.606   1.670   4.004  0.1690 -0.0335 -0.1549
 5551TIP3    H138144   5.548   1.598   4.027 -0.0048 -0.2588 -1.2736
 5551TIP3    H238145   5.630   1.654   3.913  0.0854  1.3492 -0.4412
 5552TIP3   OH238146   4.769   4.561   5.337 -0.7410  0.3047  0.4689
 5552TIP3    H138147   4.818   4.547   5.417 -1.5248  0.3211  0.9643
 5552TIP3    H238148   4.822   4.623   5.287  0.3458 -0.6375  0.4216
 5553TIP3   OH238149   2.869   3.829  15.389 -0.5634  0.5518  0.1731
 5553TIP3    H138150   2.879   3.879  15.308  0.9422  0.2768  0.1596
 5553TIP3    H238151   2.880   3.893  15.459 -1.5038  0.7238  0.1796
 5554TIP3   OH238152   0.576   4.064   2.733  0.4252 -0.0521  0.3502
 5554TIP3    H138153   0.508   4.118   2.774 -0.3103 -1.5176  1.1830
 5554TIP3    H238154   0.641   4.050   2.802 -0.3418 -1.7418  0.7892
 5555TIP3   OH238155   2.381   0.474  16.487  0.4394  0.0402 -0.3856
 5555TIP3    H138156   2.446   0.545  16.484  0.5557 -0.0658 -0.3532
 5555TIP3    H238157   2.382   0.444  16.577  1.8882 -1.3965 -0.8339
 5556TIP3   OH238158   3.015   2.575  12.323  0.5728  0.0979  0.0578
 5556TIP3    H138159   2.966   2.647  12.285  0.0533  0.2842  1.0446
 5556TIP3    H238160   2.949   2.508  12.341  0.7383  0.1609  0.9561
 5557TIP3   OH238161   2.029   4.051  13.316  0.2245  0.0041 -0.0186
 5557TIP3    H138162   2.001   4.112  13.248  0.4478  0.9033  0.6742
 5557TIP3    H238163   1.950   4.004  13.341 -0.0213  0.2644 -0.3128
 5558TIP3   OH238164   6.007   4.658   2.163  0.0896  0.2953  0.4962
 5558TIP3    H138165   6.012   4.671   2.068 -3.4381  3.0841  0.4945
 5558TIP3    H238166   5.944   4.587   2.174  0.5365 -0.0628  0.8057
 5559TIP3   OH238167   1.934   4.233   3.142 -0.2598  0.2671 -0.5289
 5559TIP3    H138168   1.933   4.309   3.200 -1.9245  0.6156 -0.9789
 5559TIP3    H238169   1.956   4.269   3.056  1.3694 -0.1371 -0.3302
 5560TIP3   OH238170   1.157   2.621   1.590  0.5645 -0.6644  1.1027
 5560TIP3    H138171   1.182   2.535   1.624  0.0036 -1.2264  0.1327
 5560TIP3    H238172   1.075   2.642   1.634  1.2681 -0.0876  2.1914
 5561TIP3   OH238173   0.800   0.427  11.134 -0.3784  0.3463  0.1718
 5561TIP3    H138174   0.781   0.334  11.146  0.1894  0.2645  0.4937
 5561TIP3    H238175   0.895   0.432  11.127 -0.4657  0.7973 -0.8943
 5562TIP3   OH238176   6.165   5.264   0.132 -0.2492 -0.2042  0.2446
 5562TIP3    H138177   6.207   5.335   0.084  0.1283 -0.9761 -0.5909
 5562TIP3    H238178   6.142   5.303   0.216  2.9544  0.0204  1.1439
 5563TIP3   OH238179   4.091   0.833  11.868  0.0116  0.1832 -0.1764
 5563TIP3    H138180   4.105   0.796  11.781  0.9890  0.0611  0.0252
 5563TIP3    H238181   3.996   0.842  11.875 -0.1032  4.4519 -3.0821
 5564TIP3   OH238182   0.738   4.880  11.608  0.2657  0.3143 -0.3133
 5564TIP3    H138183   0.648   4.847  11.608 -0.4998  2.2965 -0.7906
 5564TIP3    H238184   0.791   4.804  11.635 -1.2247 -1.6952 -2.5939
 5565TIP3   OH238185   4.718   4.925   3.427  0.2220 -0.2470  0.3318
 5565TIP3    H138186   4.720   5.001   3.486 -0.7404 -0.1938  0.3188
 5565TIP3    H238187   4.808   4.892   3.426  0.2538 -0.2697  1.8568
 5566TIP3   OH238188   5.958   0.892  16.267  0.2259 -0.5119 -0.2138
 5566TIP3    H138189   5.897   0.952  16.308 -0.6026 -1.0318 -0.6622
 5566TIP3    H238190   5.934   0.805  16.300  1.5176 -0.5926  0.5608
 5567TIP3   OH238191   3.953   2.662  13.474 -0.1494  0.0128  0.6107
 5567TIP3    H138192   3.883   2.724  13.495 -2.2865 -2.0707  0.1082
 5567TIP3    H238193   3.939   2.589  13.534 -0.7612 -2.0355 -1.8248
 5568TIP3   OH238194   2.650   1.928   3.876 -0.0483  0.3737 -0.0565
 5568TIP3    H138195   2.613   1.885   3.953 -1.7784  0.0761 -1.0004
 5568TIP3    H238196   2.620   2.019   3.882 -0.7226  0.2024 -0.6772
 5569TIP3   OH238197   5.612   5.639   0.673  0.3349  0.3441 -0.0679
 5569TIP3    H138198   5.598   5.733   0.684  1.8381  0.5893  0.0193
 5569TIP3    H238199   5.627   5.606   0.762  0.2728  0.1101 -0.1429
 5570TIP3   OH238200   5.357   6.490  15.902 -0.0033  0.0987  0.3353
 5570TIP3    H138201   5.287   6.454  15.848 -0.2243  1.3685 -0.2514
 5570TIP3    H238202   5.436   6.446  15.872 -0.3305 -0.2278 -0.0522
 5571TIP3   OH238203   6.814   6.636  15.029  0.1748  0.2270 -0.3586
 5571TIP3    H138204   6.721   6.657  15.028  0.5778  2.2333 -1.2912
 5571TIP3    H238205   6.834   6.622  15.121 -0.8468  0.8289 -0.0266
 5572TIP3   OH238206   0.641   0.392   3.699 -0.0509 -0.2192 -0.2761
 5572TIP3    H138207   0.585   0.423   3.770 -1.7120 -2.1423 -0.6461
 5572TIP3    H238208   0.595   0.418   3.619  1.7410  1.8176 -0.7283
 5573TIP3   OH238209   6.326   6.574   5.451  0.0432 -0.0259  0.4528
 5573TIP3    H138210   6.327   6.607   5.361 -0.2627 -2.5602 -0.5409
 5573TIP3    H238211   6.258   6.626   5.495  2.1670  3.3425  0.1683
 5574TIP3   OH238212   5.383   1.894  13.097  0.3765 -0.5585 -0.0457
 5574TIP3    H138213   5.444   1.833  13.056 -1.0518 -0.3804 -2.6391
 5574TIP3    H238214   5.349   1.947  13.025 -1.4747  0.5679  1.5425
 5575TIP3   OH238215   5.729   3.873   4.364 -0.4161 -0.6896  0.6318
 5575TIP3    H138216   5.734   3.780   4.384  0.8251 -1.7530 -3.7438
 5575TIP3    H238217   5.820   3.901   4.354 -0.8159  0.7237  0.7051
 5576TIP3   OH238218   1.953   0.078   0.631  0.0510 -0.6129  0.6853
 5576TIP3    H138219   2.034   0.040   0.596  0.0458 -0.5826  0.6398
 5576TIP3    H238220   1.983   0.139   0.699  0.0283 -1.1204  1.1549
 5577TIP3   OH238221   0.006   1.777  16.015 -0.2125  0.0062 -0.3572
 5577TIP3    H138222   0.096   1.755  16.037 -1.0761 -2.0708  1.5127
 5577TIP3    H238223  -0.008   1.863  16.054  0.9741  0.3968 -0.7533
 5578TIP3   OH238224   0.338   5.980   2.391 -0.1143 -0.5831 -0.3863
 5578TIP3    H138225   0.402   5.922   2.349  0.7220 -0.5811  0.8257
 5578TIP3    H238226   0.304   5.929   2.465  0.6124  0.4239  0.6826
 5579TIP3   OH238227   2.188   4.037  17.270  0.0890  0.2267  0.5940
 5579TIP3    H138228   2.124   4.017  17.201 -0.9490 -2.6383  2.2290
 5579TIP3    H238229   2.242   3.958  17.276  1.0089  0.9296  2.1523
 5580TIP3   OH238230   1.478   1.569   6.523  0.4540 -0.3569 -0.3283
 5580TIP3    H138231   1.409   1.599   6.583 -0.0887 -1.1355 -0.5544
 5580TIP3    H238232   1.556   1.562   6.578  0.3718  0.5635 -0.0758
 5581TIP3   OH238233   6.132   4.601  13.843 -0.2570 -0.0964 -0.0398
 5581TIP3    H138234   6.094   4.688  13.853 -0.4775 -0.1562 -0.3472
 5581TIP3    H238235   6.134   4.566  13.932 -1.3153 -0.2524 -0.0650
 5582TIP3   OH238236   2.277   2.458   5.217  1.1337 -0.1219  0.2179
 5582TIP3    H138237   2.356   2.463   5.271  0.9617  0.8482  0.3908
 5582TIP3    H238238   2.231   2.541   5.233  0.3275 -0.4641 -0.2606
 5583TIP3   OH238239   5.936   4.511  13.240 -0.3073 -0.2082  0.2631
 5583TIP3    H138240   5.988   4.431  13.231 -2.7862 -1.9161  0.1803
 5583TIP3    H238241   5.902   4.508  13.329 -0.2193  0.9163  0.3510
 5584TIP3   OH238242   5.228   6.382  10.728 -0.3506  0.2761  0.8705
 5584TIP3    H138243   5.272   6.436  10.794  0.2744  0.4627  0.3203
 5584TIP3    H238244   5.144   6.360  10.767 -1.3947  3.1237  0.4276
 5585TIP3   OH238245   3.391   1.213   4.628 -0.5915 -0.8960  0.0392
 5585TIP3    H138246   3.369   1.153   4.557 -1.7067  0.3765 -0.7341
 5585TIP3    H238247   3.420   1.293   4.584 -0.5138 -0.3582  1.0320
 5586TIP3   OH238248   3.006   1.842   1.561  0.1535 -0.2953  0.0930
 5586TIP3    H138249   3.073   1.808   1.502 -1.7090 -1.4097 -1.5312
 5586TIP3    H238250   2.965   1.914   1.513  0.7152  0.9726  1.4311
 5587TIP3   OH238251   5.223   3.031  15.377  0.2270  0.8563 -0.1727
 5587TIP3    H138252   5.268   3.056  15.458  0.8793  2.3122 -0.9544
 5587TIP3    H238253   5.277   3.068  15.307 -0.0684 -0.7638 -1.3244
 5588TIP3   OH238254   1.314   1.216  13.520 -0.1248  0.5278  0.2017
 5588TIP3    H138255   1.229   1.258  13.504 -0.5783 -0.8144 -1.1256
 5588TIP3    H238256   1.292   1.130  13.556  0.5718 -0.4205 -1.5326
 5589TIP3   OH238257   2.637   3.613   4.082 -0.1768  0.6761  0.3672
 5589TIP3    H138258   2.673   3.535   4.124  0.8972  0.1339 -1.4216
 5589TIP3    H238259   2.542   3.599   4.083  0.0285 -1.3758 -1.0813
 5590TIP3   OH238260   5.278   5.194   1.236 -0.2452 -0.1871 -0.0584
 5590TIP3    H138261   5.222   5.262   1.272  0.3203  0.2825 -0.0379
 5590TIP3    H238262   5.366   5.233   1.237 -0.0010 -0.7075 -0.5767
 5591TIP3   OH238263   5.560   2.352   0.039 -0.2692 -0.6701 -0.0853
 5591TIP3    H138264   5.538   2.444   0.048 -1.5347 -0.7214 -2.0313
 5591TIP3    H238265   5.501   2.306   0.099  0.7470 -0.2163  1.3058
 5592TIP3   OH238266   0.952   0.206   2.819 -0.1047  0.1374 -0.0332
 5592TIP3    H138267   0.876   0.149   2.814  0.1148 -0.6910  3.3317
 5592TIP3    H238268   1.026   0.149   2.795 -0.2933  0.3188 -1.0908
 5593TIP3   OH238269   0.647   6.306   0.543 -0.5673  0.1907  0.1799
 5593TIP3    H138270   0.735   6.272   0.559 -0.3592  0.5305 -0.2205
 5593TIP3    H238271   0.661   6.396   0.515 -1.1184  0.6892  1.4139
 5594TIP3   OH238272   3.224   3.347   0.078  0.1018  1.0427  0.5895
 5594TIP3    H138273   3.146   3.293   0.089  0.6060  0.0497 -0.5324
 5594TIP3    H238274   3.237   3.353  -0.017 -0.0562  3.3478  0.6423
 5595TIP3   OH238275   4.875   0.501   4.269 -0.5328  0.1449  0.8145
 5595TIP3    H138276   4.909   0.413   4.283 -1.0600 -0.0481  0.9002
 5595TIP3    H238277   4.786   0.488   4.234  0.3973  0.5924 -1.9833
 5596TIP3   OH238278   6.587   3.067  13.158  0.1133 -0.1429 -0.0494
 5596TIP3    H138279   6.555   3.024  13.079  1.0901 -1.1997  0.1025
 5596TIP3    H238280   6.624   2.997  13.211  1.1981  0.7949  0.4976
 5597TIP3   OH238281   3.873   4.263  16.976  0.1902 -0.0891 -0.6994
 5597TIP3    H138282   3.899   4.192  16.917  1.7661  0.3520 -0.6021
 5597TIP3    H238283   3.866   4.340  16.919  0.7487  0.1327 -0.4810
 5598TIP3   OH238284   6.600   0.463  11.342 -0.6009 -0.4770 -0.2912
 5598TIP3    H138285   6.606   0.376  11.382 -0.6234 -0.3370  0.0166
 5598TIP3    H238286   6.556   0.447  11.258 -0.5691 -0.7682 -0.2554
 5599TIP3   OH238287   4.322   1.314  15.284  0.6596 -0.2146 -0.3566
 5599TIP3    H138288   4.344   1.335  15.374 -2.2686  1.1085  0.1589
 5599TIP3    H238289   4.361   1.385  15.232 -1.6116  1.7440  0.4523
 5600TIP3   OH238290   2.882   4.664   4.222  0.2971  0.0588  0.1302
 5600TIP3    H138291   2.852   4.651   4.312 -0.0965  0.7434  0.0973
 5600TIP3    H238292   2.954   4.726   4.229  0.7326 -0.4255  0.0409
 5601TIP3   OH238293   1.699   3.170  16.319  0.9084 -0.5265  0.1098
 5601TIP3    H138294   1.677   3.240  16.258 -1.4159 -0.1949  1.2145
 5601TIP3    H238295   1.790   3.187  16.344  0.7887  1.3678 -0.6054
 5602TIP3   OH238296   4.846   2.377  16.916 -0.5741 -0.0512  0.0400
 5602TIP3    H138297   4.832   2.311  16.984  1.1428 -2.7969 -2.0461
 5602TIP3    H238298   4.777   2.362  16.852 -0.2629  0.2969 -0.3877
 5603TIP3   OH238299   5.856   5.458   4.077 -0.1685 -0.0691 -0.5269
 5603TIP3    H138300   5.897   5.545   4.083 -1.5248  0.4985  1.3796
 5603TIP3    H238301   5.795   5.465   4.004 -1.0355  0.9753  0.2541
 5604TIP3   OH238302   3.067   3.497   2.412 -0.8103 -0.1356 -0.2441
 5604TIP3    H138303   3.083   3.560   2.341  1.0970  1.6358  1.6023
 5604TIP3    H238304   3.144   3.441   2.412 -0.5570  0.1921  0.6908
 5605TIP3   OH238305   2.762   3.199   0.589  0.7773  0.6708 -0.5792
 5605TIP3    H138306   2.828   3.134   0.565  1.2684  0.7461  0.4868
 5605TIP3    H238307   2.683   3.148   0.606  1.0326  0.3894 -0.2145
 5606TIP3   OH238308   0.792   4.219  13.814 -0.1141 -0.6652  0.3391
 5606TIP3    H138309   0.878   4.185  13.839 -0.0714 -0.3480  0.6358
 5606TIP3    H238310   0.741   4.141  13.794 -1.0822 -1.2827  4.2900
 5607TIP3   OH238311   4.250   2.226  16.884 -0.6315 -0.2030 -0.4352
 5607TIP3    H138312   4.159   2.255  16.883 -1.3968 -2.4451 -0.6803
 5607TIP3    H238313   4.282   2.245  16.796 -1.0662  0.0014 -0.5531
 5608TIP3   OH238314   4.043   4.601   0.842  0.2773  0.5498 -0.4113
 5608TIP3    H138315   4.027   4.531   0.778 -1.1400  1.3037 -0.9249
 5608TIP3    H238316   4.057   4.555   0.925  0.8751 -0.3949 -1.0136
 5609TIP3   OH238317   0.467   0.865  11.215  0.3003 -0.4803 -0.2303
 5609TIP3    H138318   0.472   0.953  11.253 -3.2964  0.1896 -0.9131
 5609TIP3    H238319   0.405   0.818  11.271 -0.0870 -1.5868 -1.5378
 5610TIP3   OH238320   0.829   6.324   5.691  0.2524 -0.0985 -0.3122
 5610TIP3    H138321   0.793   6.319   5.602  1.4855 -1.4526 -0.7615
 5610TIP3    H238322   0.917   6.358   5.680 -0.2243  1.5380  0.6149
 5611TIP3   OH238323   3.627   1.632   4.619  0.2187 -0.0641 -0.0838
 5611TIP3    H138324   3.691   1.668   4.680 -0.5287  1.8703 -0.3788
 5611TIP3    H238325   3.631   1.690   4.543 -0.8589 -0.7673 -0.7018
 5612TIP3   OH238326   4.051   0.280   4.663  0.2005 -0.8620  0.0340
 5612TIP3    H138327   4.077   0.259   4.573  0.9575 -0.3469  0.1213
 5612TIP3    H238328   4.061   0.199   4.711 -0.6168 -1.2493 -0.4350
 5613TIP3   OH238329   6.102   5.955  12.177  0.0242 -0.0380  0.0757
 5613TIP3    H138330   6.066   5.873  12.144  0.4801 -0.2300  0.0476
 5613TIP3    H238331   6.163   5.928  12.246  1.5098  0.1565 -1.1123
 5614TIP3   OH238332   5.781   6.780   2.393  0.0270 -0.2727 -0.3761
 5614TIP3    H138333   5.790   6.692   2.429 -0.7407 -0.1543  0.1228
 5614TIP3    H238334   5.705   6.775   2.335  1.3258 -0.5019 -2.1635
 5615TIP3   OH238335   0.316   5.718   3.607 -0.6227 -0.0443 -0.2468
 5615TIP3    H138336   0.256   5.792   3.596 -0.5484 -0.1047 -1.1411
 5615TIP3    H238337   0.328   5.711   3.702  1.2689  2.6137 -0.1643
 5616TIP3   OH238338   1.593   0.330  11.839  1.0268  0.0315  0.1575
 5616TIP3    H138339   1.505   0.318  11.802 -1.3726  2.0515  4.3633
 5616TIP3    H238340   1.619   0.242  11.866 -0.3817 -0.4584  0.0373
 5617TIP3   OH238341   1.000   6.763   5.489  0.3744 -0.0430 -0.1631
 5617TIP3    H138342   1.093   6.755   5.466  0.6033  1.4384  0.1637
 5617TIP3    H238343   0.986   6.695   5.555  1.1785 -0.4108 -0.3581
 5618TIP3   OH238344   0.232   3.711  11.193 -0.3976 -0.5361 -0.6818
 5618TIP3    H138345   0.188   3.796  11.190 -0.5737 -0.5984 -0.0002
 5618TIP3    H238346   0.312   3.723  11.140 -1.3434 -0.5004 -2.1665
 5619TIP3   OH238347   1.571   5.032   0.756 -0.0730 -0.0638  0.2290
 5619TIP3    H138348   1.516   5.057   0.682  0.1812 -1.0049 -0.2998
 5619TIP3    H238349   1.619   5.112   0.779 -0.6723  0.4157 -0.1633
 5620TIP3   OH238350   1.336   2.299  11.719 -0.3580  0.6196  0.2587
 5620TIP3    H138351   1.335   2.383  11.673 -0.2054  0.5455  0.1161
 5620TIP3    H238352   1.312   2.320  11.809 -2.7332  0.4942 -0.2785
 5621TIP3   OH238353   4.915   6.557  12.385 -0.2005  0.4431  0.1512
 5621TIP3    H138354   4.821   6.552  12.402  0.0157  0.4205  1.4065
 5621TIP3    H238355   4.954   6.580  12.469  0.9644  0.0196 -0.2492
 5622TIP3   OH238356   2.299   1.366   1.122  0.6182 -0.2773 -0.1285
 5622TIP3    H138357   2.261   1.293   1.171  1.3635 -1.5451 -1.3796
 5622TIP3    H238358   2.387   1.377   1.158  0.4380  0.1554  0.1929
 5623TIP3   OH238359   6.438   2.374  11.297 -0.5491  0.4158 -0.5985
 5623TIP3    H138360   6.523   2.332  11.284 -1.0413 -0.5744 -0.7636
 5623TIP3    H238361   6.429   2.382  11.392 -1.2666 -1.6719 -0.4474
 5624TIP3   OH238362   2.599   1.881   4.812  0.0395 -0.1539 -0.5967
 5624TIP3    H138363   2.622   1.808   4.869 -0.1890  0.4696  0.3241
 5624TIP3    H238364   2.682   1.923   4.791  0.2974 -1.3058 -2.0493
 5625TIP3   OH238365   3.413   3.844   0.338 -0.3007  0.3876 -0.6613
 5625TIP3    H138366   3.473   3.770   0.324  0.3787  1.0473 -1.3674
 5625TIP3    H238367   3.354   3.841   0.263 -1.7065 -0.7419  0.4414
 5626TIP3   OH238368   5.881   0.585  13.877 -0.0893  0.3990  0.0851
 5626TIP3    H138369   5.787   0.566  13.877  0.2170 -1.6356  2.3160
 5626TIP3    H238370   5.893   0.644  13.951  0.3917  0.6212 -0.1724
 5627TIP3   OH238371   6.094   0.702   4.581 -0.1679  0.3844  0.5092
 5627TIP3    H138372   6.052   0.783   4.552 -0.9800 -0.1905  0.0414
 5627TIP3    H238373   6.127   0.723   4.668  2.5260  2.2203 -0.8042
 5628TIP3   OH238374   4.780   2.368  16.297 -0.0683 -0.8771  0.5071
 5628TIP3    H138375   4.860   2.372  16.349 -0.7702  0.7339  1.5164
 5628TIP3    H238376   4.772   2.276  16.273  2.2787 -1.0426  0.0398
 5629TIP3   OH238377   5.190   2.602   1.484  0.5678  0.1519 -0.0019
 5629TIP3    H138378   5.226   2.663   1.420  0.2665  1.1473  0.7432
 5629TIP3    H238379   5.096   2.623   1.486 -0.0874 -2.2419 -1.7634
 5630TIP3   OH238380   6.644   4.569  12.018  0.0155  0.0958  0.0366
 5630TIP3    H138381   6.630   4.637  12.083 -0.7862 -1.4280  1.5457
 5630TIP3    H238382   6.735   4.541  12.032 -0.8573 -1.9643  2.3877
 5631TIP3   OH238383   3.253   6.180   1.997 -0.2201 -0.5825 -0.3350
 5631TIP3    H138384   3.319   6.210   1.934 -0.2609  2.8106  1.0620
 5631TIP3    H238385   3.302   6.163   2.077 -0.7505 -0.3167  0.0479
 5632TIP3   OH238386   0.861   1.512  11.626  0.0747  0.0529  0.2505
 5632TIP3    H138387   0.784   1.489  11.574  0.9843 -0.3392 -0.9804
 5632TIP3    H238388   0.916   1.563  11.566  0.4781  0.9059  1.3131
 5633TIP3   OH238389   2.769   5.517  15.443  0.1045 -0.8137  0.7406
 5633TIP3    H138390   2.829   5.480  15.507 -0.3324 -0.9865  1.0562
 5633TIP3    H238391   2.683   5.485  15.469 -0.2268  0.0500  0.7549
 5634TIP3   OH238392   0.115   1.608  15.744  0.2341 -0.4374 -0.1232
 5634TIP3    H138393   0.175   1.670  15.785  1.3173 -0.2335 -1.8730
 5634TIP3    H238394   0.028   1.633  15.777  0.9354  0.2585  1.2742
 5635TIP3   OH238395   3.574   4.946   2.274 -0.0784  0.1514  0.3742
 5635TIP3    H138396   3.560   4.978   2.363 -0.1246 -1.4659  0.9777
 5635TIP3    H238397   3.629   4.868   2.285  0.8576  0.5668 -1.1209
 5636TIP3   OH238398   3.325   3.127   5.195  0.3999  0.8846  0.0645
 5636TIP3    H138399   3.345   3.219   5.213 -0.9386  0.9219  1.5981
 5636TIP3    H238400   3.232   3.127   5.172  0.6882  0.0426 -1.1976
 5637TIP3   OH238401   4.891   3.440   4.478  0.2945  0.0048  0.4440
 5637TIP3    H138402   4.813   3.494   4.487  0.4274  0.1008  1.0541
 5637TIP3    H238403   4.948   3.467   4.550  1.4912  0.9194 -0.7864
 5638TIP3   OH238404   3.636   4.896  15.510  0.7016  0.4414  0.1403
 5638TIP3    H138405   3.548   4.933  15.502  0.6699  0.3433  0.0401
 5638TIP3    H238406   3.655   4.900  15.604 -0.2793 -1.5228  0.4713
 5639TIP3   OH238407   6.429   1.526   5.472 -0.1140  0.1961 -0.5608
 5639TIP3    H138408   6.417   1.578   5.392  1.3373 -1.9115 -2.3079
 5639TIP3    H238409   6.523   1.507   5.473 -0.3562 -1.0957  0.8204
 5640TIP3   OH238410   5.611   1.067   5.829  0.1519 -0.7038 -0.3581
 5640TIP3    H138411   5.651   1.125   5.893 -1.7369  1.3116 -0.8591
 5640TIP3    H238412   5.644   0.980   5.851  1.6713  0.2860  1.6087
 5641TIP3   OH238413   1.286   3.494   1.274 -0.4987  0.5446 -0.6793
 5641TIP3    H138414   1.242   3.466   1.194 -1.3232 -0.5361  0.1211
 5641TIP3    H238415   1.231   3.460   1.345  2.4323 -2.3944  0.4456
 5642TIP3   OH238416   6.032   1.909  14.893  0.0054  0.1821 -0.2496
 5642TIP3    H138417   5.975   1.848  14.846  0.0570  0.6429 -0.9297
 5642TIP3    H238418   6.114   1.907  14.843  0.5609 -0.4010  0.6638
 5643TIP3   OH238419   5.422   3.413   0.832 -0.2175 -0.5617  0.1132
 5643TIP3    H138420   5.496   3.367   0.791  0.0970 -0.3103  0.3907
 5643TIP3    H238421   5.463   3.471   0.897 -0.4808  1.3707 -1.3856
 5644TIP3   OH238422   5.188   0.914   5.909 -0.4186 -0.1355 -0.5524
 5644TIP3    H138423   5.214   1.004   5.927  0.0183 -0.1859 -0.8985
 5644TIP3    H238424   5.093   0.913   5.919 -0.5040  0.5200 -1.2086
 5645TIP3   OH238425   6.453   6.200  16.599  0.1847 -0.5669  0.4625
 5645TIP3    H138426   6.444   6.260  16.525  1.5574 -2.4313 -1.3474
 5645TIP3    H238427   6.366   6.162  16.611 -0.0374 -0.2829 -0.2472
 5646TIP3   OH238428   6.001   4.172  11.811 -0.1721 -0.0774 -0.1138
 5646TIP3    H138429   6.007   4.226  11.890  0.0675  0.8506 -0.7418
 5646TIP3    H238430   5.994   4.082  11.843  2.2286  0.0448  0.9549
 5647TIP3   OH238431   0.252   5.382  16.573 -0.1754  0.0648 -0.6291
 5647TIP3    H138432   0.269   5.359  16.664 -1.4195  2.3277  0.2583
 5647TIP3    H238433   0.158   5.368  16.562 -0.4318  1.7185 -0.8964
 5648TIP3   OH238434   3.891   3.895  14.227  0.0799  0.0340 -0.0958
 5648TIP3    H138435   3.846   3.849  14.156  0.6333 -0.7336  0.0441
 5648TIP3    H238436   3.974   3.923  14.188 -0.8885  2.3283 -0.6575
 5649TIP3   OH238437   5.715   0.639   6.788  0.1434 -0.4571  0.4629
 5649TIP3    H138438   5.761   0.555   6.798  1.4673  0.0860 -0.7438
 5649TIP3    H238439   5.783   0.700   6.761 -1.1227  0.6206 -0.4034
 5650TIP3   OH238440   2.577   0.559  10.724 -0.2319 -0.1369  0.6490
 5650TIP3    H138441   2.620   0.501  10.786  0.9070  1.6836  1.6473
 5650TIP3    H238442   2.641   0.628  10.708 -1.1625  0.3462 -1.2489
 5651TIP3   OH238443   5.845   3.457   1.204 -0.0652  0.0624  0.0461
 5651TIP3    H138444   5.803   3.530   1.248  1.0243 -0.2363  1.6602
 5651TIP3    H238445   5.886   3.495   1.127 -2.4393  0.5075 -1.0919
 5652TIP3   OH238446   4.468   1.785   0.809  0.7039  0.7051  0.6245
 5652TIP3    H138447   4.481   1.877   0.832 -1.1084  1.8957 -2.6396
 5652TIP3    H238448   4.375   1.770   0.821  0.9596 -0.7010  0.9926
 5653TIP3   OH238449   6.577   2.117  10.811 -0.2088 -0.3910  0.2570
 5653TIP3    H138450   6.491   2.157  10.798  0.1424  0.7374  1.2528
 5653TIP3    H238451   6.564   2.025  10.790 -1.4077 -0.0517 -0.6052
 5654TIP3   OH238452   0.384   1.063  12.592 -0.0628  0.3120 -0.3660
 5654TIP3    H138453   0.430   1.041  12.512 -1.5014  0.3156 -1.2222
 5654TIP3    H238454   0.420   1.148  12.618  0.2320  0.4332 -1.1480
 5655TIP3   OH238455   2.681   0.644   3.274 -0.6308  0.6588  0.1464
 5655TIP3    H138456   2.630   0.609   3.347 -0.9561  1.8478  0.4985
 5655TIP3    H238457   2.700   0.567   3.220  0.9423 -0.5318  2.2492
 5656TIP3   OH238458   6.780   3.949  14.592  0.1453  0.0239  0.0775
 5656TIP3    H138459   6.751   3.967  14.682 -0.5822 -1.0396  0.0766
 5656TIP3    H238460   6.732   3.870  14.567  2.2244 -1.1580 -0.3551
 5657TIP3   OH238461   3.327   5.860   4.734 -0.1019  0.2339 -0.3126
 5657TIP3    H138462   3.320   5.806   4.813 -1.5321 -0.6788 -1.0220
 5657TIP3    H238463   3.393   5.816   4.681 -2.6010 -2.0862 -1.7484
 5658TIP3   OH238464   1.120   6.646   4.325 -0.2919 -0.1811 -0.5322
 5658TIP3    H138465   1.206   6.604   4.321  0.4127  1.2486 -1.2729
 5658TIP3    H238466   1.058   6.574   4.330  1.0091 -1.2265  1.5546
 5659TIP3   OH238467   6.348   4.787   5.998 -0.1227  0.4402  0.3215
 5659TIP3    H138468   6.350   4.786   6.094  1.5537 -0.4885  0.3229
 5659TIP3    H238469   6.280   4.723   5.975 -0.0474  0.1380  0.9007
 5660TIP3   OH238470   3.114   3.345   4.970 -0.2560 -0.5239 -0.1975
 5660TIP3    H138471   3.140   3.434   4.995 -1.1383 -0.0419 -0.9173
 5660TIP3    H238472   3.053   3.318   5.038  1.3695 -1.3096  1.0071
 5661TIP3   OH238473   4.475   2.266   3.796  0.1772  0.4626 -0.3551
 5661TIP3    H138474   4.388   2.276   3.834  0.6820  0.0439  0.9906
 5661TIP3    H238475   4.503   2.355   3.776 -0.7445  0.5628 -1.2771
 5662TIP3   OH238476   2.324   0.105  12.305 -0.0599 -0.9489  0.4820
 5662TIP3    H138477   2.244   0.155  12.289  0.5695 -0.2319 -0.5068
 5662TIP3    H238478   2.328   0.043  12.233  1.0822  0.0881 -0.3857
 5663TIP3   OH238479   0.914   3.160   1.893  0.1583  0.2438  0.1788
 5663TIP3    H138480   0.898   3.067   1.908 -0.1638  0.2071 -0.3777
 5663TIP3    H238481   0.827   3.197   1.876 -0.1423  1.1888  3.2108
 5664TIP3   OH238482   2.208   4.218  11.434  0.2403  0.0214 -0.2102
 5664TIP3    H138483   2.190   4.212  11.340 -1.3420  0.2972  0.0434
 5664TIP3    H238484   2.173   4.303  11.460 -0.8789 -0.7549  0.9181
 5665TIP3   OH238485   3.043   5.666  12.763  0.5210  0.3015  0.5419
 5665TIP3    H138486   2.947   5.675  12.761  0.6064  1.2019 -0.3574
 5665TIP3    H238487   3.062   5.605  12.691  0.6311  0.1994  0.6583
 5666TIP3   OH238488   3.168   5.707   3.237  0.1338 -0.7282 -1.1714
 5666TIP3    H138489   3.106   5.639   3.212 -3.0990  1.8505 -0.8648
 5666TIP3    H238490   3.168   5.705   3.333 -0.8128  0.2885 -1.1261
 5667TIP3   OH238491   5.302   4.207   4.078  0.0684 -0.4001  0.0913
 5667TIP3    H138492   5.338   4.176   4.161  0.5730  0.1611  0.0879
 5667TIP3    H238493   5.312   4.133   4.018  1.0286 -0.3257  0.1496
 5668TIP3   OH238494   2.447   0.067   0.381 -0.9000 -0.1305  0.7634
 5668TIP3    H138495   2.529   0.083   0.429 -0.9975 -0.1112  0.9251
 5668TIP3    H238496   2.469  -0.003   0.319 -0.7411 -0.0741  0.7559
 5669TIP3   OH238497   5.770   6.096  11.219  0.4310  0.1564  0.3011
 5669TIP3    H138498   5.856   6.054  11.226  1.3158  1.9385  0.8709
 5669TIP3    H238499   5.763   6.148  11.299 -0.6604  0.9698 -0.3040
 5670TIP3   OH238500   3.770   1.597   5.994 -0.5955 -0.5510  0.1648
 5670TIP3    H138501   3.693   1.632   6.039 -1.3320 -1.2791 -0.4764
 5670TIP3    H238502   3.841   1.656   6.017 -1.2432 -0.1378  1.1708
 5671TIP3   OH238503   0.349   2.688  16.551  0.7258 -0.3636 -0.1637
 5671TIP3    H138504   0.276   2.655  16.602  1.4342  0.3515  1.3687
 5671TIP3    H238505   0.372   2.771  16.592  1.7772 -0.1008 -1.2204
 5672TIP3   OH238506   1.771   4.078   5.256  0.1678 -0.3062  0.0831
 5672TIP3    H138507   1.810   4.147   5.309  0.3402 -0.9283  0.7977
 5672TIP3    H238508   1.836   4.059   5.189 -0.2628  0.8315 -0.6710
 5673TIP3   OH238509   2.389   2.301  16.007 -0.0627  0.5320 -0.5343
 5673TIP3    H138510   2.367   2.221  15.959 -0.2347  0.6222 -0.6051
 5673TIP3    H238511   2.485   2.306  16.003 -0.1304  1.4058 -2.2804
 5674TIP3   OH238512   0.150   5.886  13.843  0.2360  0.2096 -0.0216
 5674TIP3    H138513   0.142   5.923  13.931  1.5845  0.0981  0.1687
 5674TIP3    H238514   0.079   5.823  13.837  1.0147 -0.8862  1.5741
 5675TIP3   OH238515   1.752   5.274   1.445 -0.2180  0.1382  0.2633
 5675TIP3    H138516   1.733   5.204   1.507 -2.8421  1.3523  0.9747
 5675TIP3    H238517   1.819   5.238   1.386 -0.0711 -2.2084  1.7799
 5676TIP3   OH238518   0.007   6.005  13.149  0.4530 -0.0622  0.4870
 5676TIP3    H138519  -0.073   6.042  13.185  0.3389 -0.9861  1.2482
 5676TIP3    H238520   0.071   6.076  13.153 -0.2451  0.5908  0.1514
 5677TIP3   OH238521   5.651   0.978   0.265  0.2769  0.0981 -0.5562
 5677TIP3    H138522   5.684   1.068   0.255 -0.3050  0.2657 -0.9774
 5677TIP3    H238523   5.728   0.923   0.254  0.6971  0.5545 -0.0016
 5678TIP3   OH238524   0.666   5.437   1.982 -0.1227  0.8794 -0.2956
 5678TIP3    H138525   0.629   5.348   1.984 -0.0829  0.8694  0.1930
 5678TIP3    H238526   0.644   5.470   1.895 -0.7643  0.6485 -0.2313
 5679TIP3   OH238527   0.778   1.543  16.885 -0.2925 -0.3195 -0.1261
 5679TIP3    H138528   0.687   1.543  16.856  0.2066 -0.8805 -1.8449
 5679TIP3    H238529   0.787   1.621  16.939 -1.9877 -0.7009  0.7591
 5680TIP3   OH238530   4.814   3.503   2.335 -0.0527  0.0962  0.3804
 5680TIP3    H138531   4.762   3.480   2.258 -1.7661  0.8965  1.2302
 5680TIP3    H238532   4.881   3.435   2.340  0.0136 -0.0499 -1.7161
 5681TIP3   OH238533   4.752   6.462  17.196  0.1255  0.2949 -0.1322
 5681TIP3    H138534   4.827   6.460  17.256  0.0275  1.2344  0.0432
 5681TIP3    H238535   4.789   6.443  17.110  0.5137  0.3926  0.0109
 5682TIP3   OH238536   0.670   3.070   0.778 -0.7912 -0.1792 -0.0663
 5682TIP3    H138537   0.654   2.987   0.822 -1.9562  0.3992  0.6265
 5682TIP3    H238538   0.764   3.086   0.790 -0.8055 -0.7678  0.8805
 5683TIP3   OH238539   3.885   1.351   4.478 -0.1612  0.5051  0.3132
 5683TIP3    H138540   3.831   1.430   4.472  0.1051  0.6855  0.3144
 5683TIP3    H238541   3.887   1.331   4.572  1.2043  1.4889  0.5152
 5684TIP3   OH238542   5.948   3.139  14.070 -0.1518  0.1956  0.3386
 5684TIP3    H138543   5.946   3.235  14.065  0.3096  0.1635 -0.9112
 5684TIP3    H238544   5.864   3.112  14.035 -0.0010  0.1368  0.0146
 5685TIP3   OH238545   6.377   2.801   6.277 -0.1816  0.1025  0.3898
 5685TIP3    H138546   6.288   2.823   6.248 -0.5872 -1.6799  0.1690
 5685TIP3    H238547   6.415   2.885   6.304 -1.4247  1.1078 -0.8535
 5686TIP3   OH238548   5.393   0.982   3.375 -0.2736 -0.1643 -0.4571
 5686TIP3    H138549   5.400   0.939   3.460  0.6043 -0.6470 -0.7587
 5686TIP3    H238550   5.317   0.941   3.333 -0.7984  0.1844  0.1485
 5687TIP3   OH238551   6.735   1.049   4.628  0.1875 -0.4719  0.2794
 5687TIP3    H138552   6.703   1.015   4.545 -0.8071  0.6287  0.1875
 5687TIP3    H238553   6.831   1.047   4.620  0.1411 -1.9626 -0.2141
 5688TIP3   OH238554   3.618   5.797   0.903 -0.3038 -0.4218  0.0028
 5688TIP3    H138555   3.545   5.751   0.946  0.2934 -1.7261 -0.3316
 5688TIP3    H238556   3.577   5.845   0.831 -0.8233 -1.2657 -0.2789
 5689TIP3   OH238557   4.832   1.989  15.161 -0.2603 -0.4533 -0.3669
 5689TIP3    H138558   4.870   1.992  15.249  1.8506 -2.1308 -1.1119
 5689TIP3    H238559   4.884   2.052  15.111 -1.2672  0.2881 -0.4979
 5690TIP3   OH238560   2.481   5.299  11.453  0.3088  0.1276  0.3401
 5690TIP3    H138561   2.537   5.368  11.418 -0.2779  0.8949  0.8921
 5690TIP3    H238562   2.395   5.340  11.462  0.2503 -0.2742  1.9079
 5691TIP3   OH238563   1.605   2.305   2.475  0.0858  0.4058  0.4769
 5691TIP3    H138564   1.550   2.251   2.418 -0.3412 -0.4496  1.6649
 5691TIP3    H238565   1.576   2.395   2.458 -1.0157  0.0437  0.3769
 5692TIP3   OH238566   2.579   0.435  12.203  0.2476 -0.4568 -0.1081
 5692TIP3    H138567   2.672   0.454  12.190  0.1038  1.4532  1.2250
 5692TIP3    H238568   2.577   0.344  12.233  1.8287 -0.1857  0.9679
 5693TIP3   OH238569   3.735   4.797  14.866  0.7688 -0.0978 -0.2289
 5693TIP3    H138570   3.771   4.804  14.955  0.8732  0.5960 -0.3194
 5693TIP3    H238571   3.737   4.704  14.847 -1.2193 -0.5179  1.3014
 5694TIP3   OH238572   5.265   2.630   2.207 -0.4513 -0.0124  0.1494
 5694TIP3    H138573   5.183   2.675   2.226 -0.4768  0.0453 -0.0909
 5694TIP3    H238574   5.251   2.593   2.120 -1.1776 -2.1824  1.1239
 5695TIP3   OH238575   4.590   3.164  12.150  0.0774  0.2984  0.1156
 5695TIP3    H138576   4.595   3.241  12.207  0.5855 -1.0016  1.9080
 5695TIP3    H238577   4.523   3.109  12.190  1.7740 -1.5090  0.6308
 5696TIP3   OH238578   4.104   5.156  13.789  0.3680  0.2158  0.3160
 5696TIP3    H138579   4.054   5.103  13.726  0.9675  0.6830 -0.5813
 5696TIP3    H238580   4.194   5.125  13.779  0.3361 -0.3757  1.6619
 5697TIP3   OH238581   1.913   5.841  15.670  0.6024 -0.1208 -0.0600
 5697TIP3    H138582   1.838   5.877  15.718  0.9573  1.2309 -0.4876
 5697TIP3    H238583   1.885   5.841  15.578  0.8820 -0.2339 -0.1461
 5698TIP3   OH238584   1.932   3.967   4.580 -0.5942  0.0422 -0.4741
 5698TIP3    H138585   1.854   3.922   4.612  0.1529 -0.5198  0.6122
 5698TIP3    H238586   1.915   4.060   4.599 -0.4882 -0.1983  0.9510
 5699TIP3   OH238587   2.345   3.395  13.221  0.0452 -0.2439  0.9894
 5699TIP3    H138588   2.400   3.351  13.156 -1.0073 -0.1517  0.0136
 5699TIP3    H238589   2.367   3.488  13.212  1.8903 -0.4423  2.6969
 5700TIP3   OH238590   4.090   6.270  15.832 -0.1904  0.0658  0.0223
 5700TIP3    H138591   4.033   6.235  15.901  0.8747 -1.1079  0.3525
 5700TIP3    H238592   4.030   6.303  15.765 -1.2511  0.9333  1.3535
 5701TIP3   OH238593   1.947   4.404   2.353  0.0341  0.2690 -0.0907
 5701TIP3    H138594   2.007   4.371   2.286  0.2097  0.6628 -0.1339
 5701TIP3    H238595   1.870   4.348   2.346 -0.0071  0.3935 -0.7280
 5702TIP3   OH238596   5.192   1.225   0.086 -0.2832  0.2508  0.1491
 5702TIP3    H138597   5.131   1.280   0.135  0.9305 -0.7284  2.9952
 5702TIP3    H238598   5.263   1.283   0.062 -0.2645  0.4802  0.7495
 5703TIP3   OH238599   2.971   6.393   1.862 -0.4134 -0.6538  0.4245
 5703TIP3    H138600   2.969   6.481   1.825 -1.8667 -0.6985  0.3279
 5703TIP3    H238601   2.889   6.353   1.831  0.0265 -1.8902  0.8160
 5704TIP3   OH238602   5.488   5.263   4.677 -0.1411  0.3001  0.3990
 5704TIP3    H138603   5.472   5.169   4.688 -1.5452  0.5943  1.0323
 5704TIP3    H238604   5.566   5.267   4.621 -1.4650 -1.2349 -1.6829
 5705TIP3   OH238605   6.019   4.412   0.609 -0.3149  0.1209  0.0047
 5705TIP3    H138606   6.110   4.434   0.587 -0.6219 -0.0315 -1.5845
 5705TIP3    H238607   5.985   4.491   0.652  0.4353  0.3527  0.1840
 5706TIP3   OH238608   2.842   1.532  13.111  0.5674 -0.0171 -0.2594
 5706TIP3    H138609   2.921   1.478  13.107  0.2583 -0.7721  2.1483
 5706TIP3    H238610   2.771   1.472  13.091  0.3628 -0.1325  0.7642
 5707TIP3   OH238611   3.479   4.908   4.131 -0.2116  0.3636  0.3318
 5707TIP3    H138612   3.563   4.923   4.173 -0.7735 -0.5851  1.8649
 5707TIP3    H238613   3.442   4.995   4.118  0.6279  0.7375  0.4173
 5708TIP3   OH238614   1.353   0.449   2.949  0.0523  0.6050  0.1023
 5708TIP3    H138615   1.351   0.544   2.956  0.2922  0.7206 -1.1214
 5708TIP3    H238616   1.338   0.431   2.856 -0.3236 -0.5708  0.3594
 5709TIP3   OH238617   5.885   2.594   2.081  0.8629 -0.3801  0.3391
 5709TIP3    H138618   5.882   2.680   2.124 -0.7800 -0.2157 -0.0514
 5709TIP3    H238619   5.848   2.610   1.994 -3.4263 -2.1799  1.6036
 5710TIP3   OH238620   5.237   1.416   0.425  0.1443 -0.2313  0.8790
 5710TIP3    H138621   5.292   1.368   0.363  0.1943  0.5366  0.3189
 5710TIP3    H238622   5.294   1.429   0.501  0.6150  0.2054  0.4590
 5711TIP3   OH238623   0.449   0.090   0.364 -0.3321  0.6322  0.0042
 5711TIP3    H138624   0.430   0.013   0.418 -0.1296 -0.1376 -0.9834
 5711TIP3    H238625   0.536   0.072   0.327  1.1635  2.7950  2.2221
 5712TIP3   OH238626   3.594   0.477  12.987  0.3405 -0.0092 -0.3046
 5712TIP3    H138627   3.683   0.500  13.014  1.2424 -1.4123 -1.9016
 5712TIP3    H238628   3.541   0.487  13.066  2.1283 -0.2759  0.9750
 5713TIP3   OH238629   5.022   1.017  13.228 -0.0129 -0.3995  0.3502
 5713TIP3    H138630   5.026   1.111  13.249 -0.8042 -0.5266  1.1318
 5713TIP3    H238631   5.111   0.986  13.245  1.0275  0.6728 -2.4530
 5714TIP3   OH238632   1.885   2.724  16.441 -0.1123 -0.1085  0.3538
 5714TIP3    H138633   1.938   2.712  16.362 -1.7117 -0.8678 -0.6468
 5714TIP3    H238634   1.898   2.643  16.491  0.6299  0.2321  0.7410
 5715TIP3   OH238635   5.522   2.290   3.402  0.1628  0.0772 -0.1936
 5715TIP3    H138636   5.440   2.338   3.395 -0.5849 -1.0161  0.6581
 5715TIP3    H238637   5.577   2.344   3.458  0.4538  1.3411 -1.6476
 5716TIP3   OH238638   4.812   6.015  14.788  0.2841 -0.1237 -0.0701
 5716TIP3    H138639   4.783   6.035  14.699 -2.9935 -2.6533  0.2710
 5716TIP3    H238640   4.805   5.920  14.795 -1.8880  0.1060  3.5407
 5717TIP3   OH238641   5.575   4.676  13.367 -0.0538 -0.1017 -0.2876
 5717TIP3    H138642   5.619   4.653  13.285  1.8914  2.0923  0.0387
 5717TIP3    H238643   5.636   4.648  13.435 -1.2866 -1.1600  0.4233
 5718TIP3   OH238644   4.132   5.912  11.570  0.0721 -0.1764  0.1863
 5718TIP3    H138645   4.044   5.946  11.553 -0.0452  0.1588  1.3363
 5718TIP3    H238646   4.156   5.866  11.490 -1.5831 -1.1779  0.2007
 5719TIP3   OH238647   4.982   2.529   0.648  0.3578 -0.8714 -0.0432
 5719TIP3    H138648   5.014   2.592   0.712 -2.0840 -0.9941  1.4565
 5719TIP3    H238649   4.918   2.578   0.596  0.5981 -1.3744 -0.8331
 5720TIP3   OH238650   2.218   0.261   1.155  0.0463 -0.3811  0.4656
 5720TIP3    H138651   2.290   0.314   1.190  0.9302 -1.2068 -0.0695
 5720TIP3    H238652   2.256   0.214   1.080 -0.8460 -1.4059  0.6273
 5721TIP3   OH238653   4.966   3.124  16.339  0.3113 -0.2101 -0.3741
 5721TIP3    H138654   4.900   3.185  16.374  1.4214 -0.0832  1.6743
 5721TIP3    H238655   4.920   3.076  16.271 -1.3077  1.2541 -0.3938
 5722TIP3   OH238656   6.615   3.946   4.363 -0.3035  0.9940  0.5159
 5722TIP3    H138657   6.597   3.908   4.277 -1.5733 -1.3854  1.7322
 5722TIP3    H238658   6.708   3.929   4.378 -0.2862  0.5958 -0.0131
 5723TIP3   OH238659   0.705   4.911  16.282  1.0095 -0.4106  0.0461
 5723TIP3    H138660   0.736   4.992  16.321  2.2626  0.7385 -3.0158
 5723TIP3    H238661   0.656   4.938  16.204  1.5937 -2.5473 -1.1610
 5724TIP3   OH238662   2.186   5.271   4.288 -0.3071  0.0572 -0.2710
 5724TIP3    H138663   2.106   5.243   4.333 -0.1751  0.2971  0.1089
 5724TIP3    H238664   2.257   5.240   4.343 -0.1494  0.5661 -0.1801
 5725TIP3   OH238665   5.587   5.826   2.867  0.0383  0.7787  0.2836
 5725TIP3    H138666   5.679   5.844   2.846  0.2007  0.7733  0.9484
 5725TIP3    H238667   5.583   5.834   2.962 -0.2172 -1.2010  0.4712
 5726TIP3   OH238668   1.528   2.240   5.762  0.2531  0.5098  0.4219
 5726TIP3    H138669   1.593   2.171   5.778  1.1207  0.7901 -1.5695
 5726TIP3    H238670   1.545   2.305   5.831  1.5132  0.1645  0.4697
 5727TIP3   OH238671   5.485   5.324  12.841 -0.0970 -0.2295 -0.2598
 5727TIP3    H138672   5.536   5.242  12.844 -0.6569 -0.5671  0.8000
 5727TIP3    H238673   5.491   5.353  12.750  0.3725 -1.2888 -0.5864
 5728TIP3   OH238674   1.096   2.784   5.288 -0.0342  0.2189  0.0126
 5728TIP3    H138675   1.037   2.752   5.220 -0.1862 -1.2840  0.8048
 5728TIP3    H238676   1.154   2.709   5.306  0.4494  0.8255  1.0476
 5729TIP3   OH238677   6.482   4.704  11.473 -0.1369 -0.2380  0.6437
 5729TIP3    H138678   6.570   4.671  11.453  0.4496  1.1477  0.8251
 5729TIP3    H238679   6.459   4.660  11.555  0.0080 -1.2825  0.1379
 5730TIP3   OH238680   3.442   6.282  17.002 -0.2343  0.5986  0.1861
 5730TIP3    H138681   3.461   6.344  17.072 -2.1136 -0.5648  1.8146
 5730TIP3    H238682   3.360   6.314  16.963  0.2811  0.6853 -0.8688
 5731TIP3   OH238683   2.441   2.971   0.469 -0.3737  0.7169  0.1505
 5731TIP3    H138684   2.393   2.895   0.501 -0.5700  1.1336  0.8646
 5731TIP3    H238685   2.526   2.966   0.513  0.0830  0.2536 -0.7337
 5732TIP3   OH238686   3.094   3.121  12.354  0.3452  0.2107  0.8053
 5732TIP3    H138687   3.050   3.174  12.420  0.7938  1.4266  0.1521
 5732TIP3    H238688   3.175   3.092  12.396  1.4896  2.4254  0.2817
 5733TIP3   OH238689   1.484   2.022  13.492 -0.1469 -0.1242 -0.2144
 5733TIP3    H138690   1.491   1.930  13.464 -1.9001  0.5234 -3.3151
 5733TIP3    H238691   1.558   2.065  13.451  1.4156 -0.2453  2.2811
 5734TIP3   OH238692   5.392   3.540  16.670  0.2114 -0.2170 -0.0728
 5734TIP3    H138693   5.446   3.505  16.600  0.6244 -0.0584  0.1666
 5734TIP3    H238694   5.348   3.464  16.707 -0.6229 -0.2070 -1.0202
 5735TIP3   OH238695   4.396   1.016   3.472 -0.1215  0.2313  0.5237
 5735TIP3    H138696   4.473   1.021   3.416 -0.2510 -0.9981  0.2193
 5735TIP3    H238697   4.429   1.039   3.559 -0.2506  3.9253 -0.2308
 5736TIP3   OH238698   5.685   1.868   3.310  0.0921  0.2414  0.1026
 5736TIP3    H138699   5.760   1.809   3.314  1.5371  1.8274 -1.5675
 5736TIP3    H238700   5.724   1.954   3.291 -1.9216  1.7272  2.2093
 5737TIP3   OH238701   2.310   0.690   1.948  0.4538 -0.8929 -0.0313
 5737TIP3    H138702   2.335   0.684   1.856  2.0795 -2.4613  0.4558
 5737TIP3    H238703   2.277   0.779   1.958 -1.3104 -1.1941 -2.4678
 5738TIP3   OH238704   4.345   5.843   3.588  0.0841  0.0259 -0.2844
 5738TIP3    H138705   4.333   5.920   3.532  0.2520  0.8476  0.7769
 5738TIP3    H238706   4.265   5.791   3.576  0.5894 -0.4210 -2.1496
 5739TIP3   OH238707   5.690   6.088  13.878  0.1153 -0.1831 -0.3379
 5739TIP3    H138708   5.605   6.128  13.897 -0.5799 -1.8792  0.2669
 5739TIP3    H238709   5.671   6.018  13.817  0.7566 -1.8056  1.2390
 5740TIP3   OH238710   2.048   3.198  10.968 -0.5879 -0.1300  0.2721
 5740TIP3    H138711   2.138   3.170  10.983 -0.3202  0.7606  0.3435
 5740TIP3    H238712   2.037   3.274  11.024 -0.9534  0.5999 -0.7721
 5741TIP3   OH238713   4.264   1.589   4.885 -0.2041  0.1641 -0.3692
 5741TIP3    H138714   4.217   1.506   4.888  0.6646 -0.3162  1.2227
 5741TIP3    H238715   4.230   1.638   4.960  2.2712 -0.4940  1.3064
 5742TIP3   OH238716   3.993   4.298  17.237  0.1490 -0.6297 -0.9247
 5742TIP3    H138717   4.042   4.223  17.203  1.4986 -0.1015 -0.2137
 5742TIP3    H238718   3.964   4.345  17.159  1.9965 -0.1960 -1.3786
 5743TIP3   OH238719   0.319   2.122   1.128  0.3564  0.3869  0.5020
 5743TIP3    H138720   0.263   2.068   1.072  0.0965  1.4784 -0.3355
 5743TIP3    H238721   0.268   2.134   1.209 -0.7940  1.5999 -0.3550
 5744TIP3   OH238722   4.728   1.166   0.424 -0.3450  0.2283  0.5083
 5744TIP3    H138723   4.672   1.103   0.470  0.3246 -0.4644  0.3952
 5744TIP3    H238724   4.679   1.188   0.345 -0.0827 -1.0573 -0.0342
 5745TIP3   OH238725   4.902   4.601   1.470  0.2013 -0.4799  0.2117
 5745TIP3    H138726   4.807   4.604   1.473  0.1135 -1.6929 -0.4947
 5745TIP3    H238727   4.925   4.636   1.384  0.3982 -0.0211  0.4521
 5746TIP3   OH238728   2.614   1.346   4.995  0.3568 -0.4500 -0.0232
 5746TIP3    H138729   2.656   1.411   5.051 -0.8486 -0.2300  0.6467
 5746TIP3    H238730   2.530   1.327   5.037 -0.6371 -0.2111 -1.7919
 5747TIP3   OH238731   6.695   0.244   3.715  0.1026 -0.2042 -0.3102
 5747TIP3    H138732   6.703   0.150   3.733  0.3205 -0.2103 -0.4371
 5747TIP3    H238733   6.601   0.261   3.719 -0.1125 -0.7708 -2.0003
 5748TIP3   OH238734   2.344   1.833  13.217 -0.2718 -0.0492  0.0183
 5748TIP3    H138735   2.318   1.743  13.238 -0.3151 -0.2126 -0.7050
 5748TIP3    H238736   2.405   1.823  13.145 -0.6935  0.5344 -0.4230
 5749TIP3   OH238737   1.016   1.989  12.145 -0.2446 -0.1495  0.2949
 5749TIP3    H138738   1.051   2.031  12.224 -0.5967 -0.5595  0.6710
 5749TIP3    H238739   0.937   2.039  12.124  1.5962  2.1243 -1.7611
 5750TIP3   OH238740   0.789   2.440  11.650 -0.1028  0.0705  0.6126
 5750TIP3    H138741   0.707   2.427  11.698 -0.8362 -1.0144 -0.8294
 5750TIP3    H238742   0.837   2.358  11.661 -1.9878 -1.9052 -3.4514
 5751TIP3   OH238743   5.485   2.643   3.274 -0.6523 -0.2111 -0.0627
 5751TIP3    H138744   5.532   2.560   3.261  1.7471  1.0457  0.0938
 5751TIP3    H238745   5.418   2.643   3.206  1.0156 -1.1268 -1.8085
 5752TIP3   OH238746   0.105   1.105  13.230 -0.0268  0.0171 -0.3319
 5752TIP3    H138747   0.140   1.036  13.174  1.2813  0.9022 -0.6328
 5752TIP3    H238748   0.055   1.161  13.170 -0.9040 -0.5192 -0.1240
 5753TIP3   OH238749   5.133   3.512   3.894 -0.4288 -0.2504  0.3620
 5753TIP3    H138750   5.042   3.503   3.921 -0.4751 -1.4412 -0.1193
 5753TIP3    H238751   5.183   3.462   3.958 -0.2324 -0.5087  0.0154
 5754TIP3   OH238752   1.667   0.091   3.701 -0.2185  0.5370 -0.0696
 5754TIP3    H138753   1.591   0.148   3.711 -0.3729  0.5174 -0.9943
 5754TIP3    H238754   1.701   0.111   3.614  1.6248  1.4613  0.8134
 5755TIP3   OH238755   4.647   4.859   0.254  0.1022  0.4844  0.3038
 5755TIP3    H138756   4.712   4.825   0.315 -0.1783  1.3844  1.1249
 5755TIP3    H238757   4.679   4.832   0.168  0.7927 -0.3262  0.7987
 5756TIP3   OH238758   5.122   0.488  16.406 -0.0984  0.2308  0.4579
 5756TIP3    H138759   5.181   0.540  16.352 -0.9513  0.3858 -0.3454
 5756TIP3    H238760   5.046   0.472  16.351 -0.9077  0.2109  1.5347
 5757TIP3   OH238761   1.195   2.262   0.976 -0.0889 -0.3046 -0.5783
 5757TIP3    H138762   1.220   2.275   0.885 -0.6484 -0.6046 -0.7807
 5757TIP3    H238763   1.236   2.334   1.023  1.9764 -1.3176 -0.7360
 5758TIP3   OH238764   3.079   6.199   3.484  0.1193 -0.2451  0.1716
 5758TIP3    H138765   3.143   6.216   3.554  1.5776  1.4048 -1.4736
 5758TIP3    H238766   3.095   6.107   3.460  1.0384 -0.2109  0.6078
 5759TIP3   OH238767   0.897   6.498   0.766 -0.1888 -0.1918  0.0237
 5759TIP3    H138768   0.917   6.431   0.701  0.4686  0.0027  0.0238
 5759TIP3    H238769   0.813   6.471   0.803 -0.2992 -0.6023 -0.5112
 5760TIP3   OH238770   1.016   1.318  15.525 -0.3068  0.4232  0.1586
 5760TIP3    H138771   0.948   1.292  15.464 -1.1997 -1.9372  1.9776
 5760TIP3    H238772   1.027   1.412  15.511 -1.1499  0.1826 -2.8291
 5761TIP3   OH238773   6.284   1.708   1.409  0.3127  0.2715 -0.6093
 5761TIP3    H138774   6.341   1.785   1.417  1.2582 -0.3938 -0.6819
 5761TIP3    H238775   6.245   1.698   1.496 -1.1463  1.7938 -1.0300
 5762TIP3   OH238776   1.861   5.580  15.906  0.7639 -0.5998  0.0150
 5762TIP3    H138777   1.925   5.644  15.938  0.8124 -1.2272  1.2362
 5762TIP3    H238778   1.890   5.497  15.942 -0.1619 -1.0688 -0.2823
 5763TIP3   OH238779   5.889   1.948   3.722  0.0947 -0.2097  0.0531
 5763TIP3    H138780   5.906   1.905   3.806  1.4913  0.5956  0.1998
 5763TIP3    H238781   5.912   1.882   3.656  1.0916 -0.1014  0.2871
 5764TIP3   OH238782   4.739   1.139   1.022  0.6556  0.5511  0.4777
 5764TIP3    H138783   4.649   1.112   1.038  0.6616  0.8366  1.0307
 5764TIP3    H238784   4.791   1.087   1.083  1.0841 -1.0029 -1.1373
 5765TIP3   OH238785   0.988   3.668  12.891 -0.2400  0.0919  0.0471
 5765TIP3    H138786   0.958   3.599  12.949 -0.5198 -0.0363 -0.2470
 5765TIP3    H238787   0.992   3.746  12.946 -0.1345 -0.1079  0.3266
 5766TIP3   OH238788   5.220   0.204  13.768  0.2941 -0.1792 -0.0217
 5766TIP3    H138789   5.281   0.256  13.718 -0.8955  0.4623 -0.8513
 5766TIP3    H238790   5.275   0.149  13.824  1.5891  0.8068 -0.2950
 5767TIP3   OH238791   1.644   1.585   3.910  0.2162  0.0700  0.2371
 5767TIP3    H138792   1.623   1.518   3.975  1.1444 -0.3357  0.1352
 5767TIP3    H238793   1.559   1.624   3.888 -0.3453 -1.0772  0.2922
 5768TIP3   OH238794   1.760   1.206   2.656  0.2005  0.0741 -0.4372
 5768TIP3    H138795   1.825   1.139   2.636  0.0302 -0.4081  0.5738
 5768TIP3    H238796   1.682   1.179   2.607 -0.1006 -0.8961  0.5351
 5769TIP3   OH238797   5.745   6.468  16.986 -0.4763 -0.0894 -0.0374
 5769TIP3    H138798   5.752   6.499  16.896 -2.2263  1.5283  0.3250
 5769TIP3    H238799   5.766   6.374  16.980 -0.9334 -0.1169 -2.1744
 5770TIP3   OH238800   6.025   4.253  11.406  0.1317 -0.2811 -0.7365
 5770TIP3    H138801   6.052   4.199  11.332  0.3928  1.6239 -2.0927
 5770TIP3    H238802   6.107   4.278  11.449  0.1452  0.5394 -1.2259
 5771TIP3   OH238803   2.608   4.337  16.366  0.0424  0.2740 -0.1612
 5771TIP3    H138804   2.607   4.378  16.280 -1.2880  0.6665  0.0080
 5771TIP3    H238805   2.563   4.400  16.423  0.1185 -0.3647  0.6320
 5772TIP3   OH238806   3.184   1.428   5.254  0.0401  0.1538  0.0486
 5772TIP3    H138807   3.161   1.517   5.279  0.7039 -0.1408  1.8794
 5772TIP3    H238808   3.206   1.434   5.161 -0.5497  1.7578 -0.0206
 5773TIP3   OH238809   2.353   2.866  16.489  0.4977  0.2279  0.1663
 5773TIP3    H138810   2.442   2.868  16.525  0.3391  2.5639  0.6321
 5773TIP3    H238811   2.333   2.773  16.477  2.6760 -0.3765  0.8456
 5774TIP3   OH238812   0.236   6.401   0.699  0.0496 -0.0009  0.2088
 5774TIP3    H138813   0.284   6.370   0.623  0.2820 -2.0295  1.0981
 5774TIP3    H238814   0.155   6.437   0.663  0.7619  0.3796 -1.0750
 5775TIP3   OH238815   5.699   2.848   0.205 -0.2161  0.3810 -0.0312
 5775TIP3    H138816   5.782   2.843   0.157  0.1580 -1.0123  0.7019
 5775TIP3    H238817   5.719   2.808   0.290 -1.7405 -0.3583  0.0054
 5776TIP3   OH238818   2.490   4.611   1.735  0.1909  0.5131 -0.1692
 5776TIP3    H138819   2.411   4.590   1.783  1.0221  0.3189  1.1660
 5776TIP3    H238820   2.505   4.534   1.679  0.0422  0.0501  0.4125
 5777TIP3   OH238821   1.731   2.544   3.962 -0.3037 -0.4363  0.1300
 5777TIP3    H138822   1.762   2.633   3.946 -0.0311 -0.4400  0.5877
 5777TIP3    H238823   1.667   2.554   4.032 -0.0395 -0.6309  0.4038
 5778TIP3   OH238824   5.571   0.069  15.146  0.3063 -0.0610  0.2159
 5778TIP3    H138825   5.586   0.030  15.060  0.5560 -0.5594  0.4819
 5778TIP3    H238826   5.620   0.014  15.206  1.6588  1.3549  0.4676
 5779TIP3   OH238827   5.261   2.249  15.674 -0.0248 -0.3785 -0.2070
 5779TIP3    H138828   5.331   2.312  15.658 -1.5292  0.8883 -2.3324
 5779TIP3    H238829   5.187   2.301  15.705 -0.1378 -1.6838  1.9758
 5780TIP3   OH238830   3.082   4.184  11.831  0.5681 -0.0689 -0.0384
 5780TIP3    H138831   3.150   4.215  11.892 -0.4026 -1.9373  2.1245
 5780TIP3    H238832   3.004   4.234  11.854  0.3256 -0.4001 -0.1371
 5781TIP3   OH238833   1.597   5.906   2.959  0.1515 -0.0810  0.6724
 5781TIP3    H138834   1.593   5.996   2.925  0.7592 -0.6168 -0.9183
 5781TIP3    H238835   1.553   5.854   2.893  0.4826 -1.0644  1.2093
 5782TIP3   OH238836   0.413   4.335   0.809 -0.5634  0.2733  0.0755
 5782TIP3    H138837   0.410   4.362   0.901 -0.1669  0.1023  0.1426
 5782TIP3    H238838   0.344   4.269   0.802  1.3624 -1.9885  1.0301
 5783TIP3   OH238839   1.922   6.351  15.377  0.6945  0.1054 -0.0746
 5783TIP3    H138840   1.946   6.431  15.424 -0.8671 -0.1753  1.3139
 5783TIP3    H238841   1.977   6.282  15.415  1.5680  0.3713 -0.8114
 5784TIP3   OH238842   4.191   4.024   3.544 -0.3425 -0.1089 -0.2961
 5784TIP3    H138843   4.136   4.100   3.562  1.1134  1.1362 -0.8786
 5784TIP3    H238844   4.192   4.018   3.448  2.8019  1.7562 -0.5273
 5785TIP3   OH238845   5.508   4.351  14.406  0.2059 -0.1853 -0.2952
 5785TIP3    H138846   5.474   4.440  14.405  1.2212  0.3043  1.6333
 5785TIP3    H238847   5.434   4.297  14.433  0.0555  0.3838  0.4847
 5786TIP3   OH238848   2.425   3.308  12.258  0.2887 -0.7591 -0.2316
 5786TIP3    H138849   2.484   3.380  12.280  0.1288 -0.5874 -0.3610
 5786TIP3    H238850   2.430   3.301  12.162 -0.0729 -0.5918 -0.2655
 5787TIP3   OH238851   3.887   6.205   1.025  0.4944 -0.7155 -0.4484
 5787TIP3    H138852   3.841   6.247   1.097  2.5581 -0.9328  1.0814
 5787TIP3    H238853   3.958   6.266   1.003  1.6634 -1.9823 -0.2758
 5788TIP3   OH238854   3.791   4.779   2.282  0.5018 -0.6049 -0.1095
 5788TIP3    H138855   3.884   4.798   2.297  0.4738  0.6871 -1.3557
 5788TIP3    H238856   3.781   4.785   2.187 -1.5227  2.6953  0.1666
 5789TIP3   OH238857   4.798   1.086  14.610  0.2246 -0.2541  0.3791
 5789TIP3    H138858   4.849   1.133  14.543  1.4111 -0.6884  0.9404
 5789TIP3    H238859   4.799   0.995  14.581 -1.2618 -0.1044 -0.2099
 5790TIP3   OH238860   1.083   6.276   1.403  0.3938 -0.0239  0.5251
 5790TIP3    H138861   1.053   6.358   1.443 -0.8399 -0.7573  1.1861
 5790TIP3    H238862   1.165   6.256   1.448  0.9832  1.0960 -0.0090
 5791TIP3   OH238863   6.703   5.983   5.104 -0.1689 -0.3112 -0.0360
 5791TIP3    H138864   6.612   5.976   5.073  0.0190  0.7109 -0.8670
 5791TIP3    H238865   6.733   6.068   5.071  0.7150 -0.1006  1.2525
 5792TIP3   OH238866   1.938   3.092  13.675  0.4462  0.8339  0.7740
 5792TIP3    H138867   1.983   3.028  13.730  0.4061  0.2378  0.1332
 5792TIP3    H238868   2.008   3.129  13.620  0.0676 -0.8389 -0.9543
 5793TIP3   OH238869   3.971   1.888  16.394  0.1041 -0.5608 -0.6278
 5793TIP3    H138870   3.915   1.886  16.471  1.3478 -0.9175  0.2877
 5793TIP3    H238871   4.050   1.842  16.420  1.2262  0.7466 -1.6014
 5794TIP3   OH238872   3.255   6.607   3.287 -0.3022 -0.8373 -0.3831
 5794TIP3    H138873   3.185   6.650   3.335 -1.3399 -0.5660 -2.0756
 5794TIP3    H238874   3.328   6.669   3.291 -0.8911 -0.1288 -0.4888
 5795TIP3   OH238875   4.638   2.313   2.789 -0.0424  0.0590 -0.4650
 5795TIP3    H138876   4.563   2.302   2.729  1.6903 -6.2799 -2.2507
 5795TIP3    H238877   4.711   2.334   2.731  0.6832 -0.5571  0.2146
 5796TIP3   OH238878   0.104   1.389   5.021 -0.8520  0.1679 -0.2786
 5796TIP3    H138879   0.090   1.482   5.005 -1.3350  0.2674  0.6647
 5796TIP3    H238880   0.093   1.378   5.115  0.7697 -0.5808 -0.1377
 5797TIP3   OH238881   4.172   6.611   1.803 -0.3987 -0.2754 -0.2844
 5797TIP3    H138882   4.189   6.660   1.884  2.0880  0.2807 -1.0764
 5797TIP3    H238883   4.194   6.521   1.825  0.2052 -0.1373 -0.3306
 5798TIP3   OH238884   2.612   1.898   0.144  0.2084  0.0133  0.6696
 5798TIP3    H138885   2.569   1.814   0.132 -2.0569  1.1520  0.3286
 5798TIP3    H238886   2.614   1.937   0.057 -1.2939  1.4141  1.1958
 5799TIP3   OH238887   3.615   6.471  17.120 -0.0410 -0.0287  0.3704
 5799TIP3    H138888   3.693   6.416  17.107  2.5704  3.1032  1.3649
 5799TIP3    H238889   3.596   6.506  17.033  0.7334  0.4896  0.4050
 5800TIP3   OH238890   3.988   1.105   4.216  0.2414 -0.1301 -0.0457
 5800TIP3    H138891   3.943   1.099   4.300 -0.5497 -0.1047 -0.4565
 5800TIP3    H238892   4.071   1.060   4.230  0.2595  0.1624  0.8397
 5801TIP3   OH238893   3.768   0.296  14.592 -0.6494  0.9653  0.1193
 5801TIP3    H138894   3.721   0.216  14.615 -1.2716  1.4300  0.4656
 5801TIP3    H238895   3.736   0.362  14.653 -0.1787  1.4989 -0.1980
 5802TIP3   OH238896   2.199   5.036  15.966 -0.2303  0.3239  0.0058
 5802TIP3    H138897   2.160   4.954  15.937  0.6924  0.4591 -1.7158
 5802TIP3    H238898   2.213   5.086  15.886  4.1366 -0.0248  0.2637
 5803TIP3   OH238899   5.774   2.242  13.991 -0.1172 -0.4303  0.1445
 5803TIP3    H138900   5.764   2.337  13.984  1.1073 -0.3308 -0.4084
 5803TIP3    H238901   5.686   2.211  14.012 -0.3221  0.9245  1.5352
 5804TIP3   OH238902   3.583   4.153  12.509  0.0561 -0.3512  0.3753
 5804TIP3    H138903   3.652   4.097  12.546  0.2518  0.1580  0.8047
 5804TIP3    H238904   3.624   4.239  12.504 -0.5315 -0.0615  0.5665
 5805TIP3   OH238905   3.674   3.326  15.633  0.3114  0.4236  0.1003
 5805TIP3    H138906   3.681   3.421  15.647 -1.4848  0.7077 -0.6369
 5805TIP3    H238907   3.683   3.315  15.538  0.6593 -0.1615  0.2005
 5806TIP3   OH238908   4.218   6.370  17.033  0.1525 -0.4796  0.6702
 5806TIP3    H138909   4.217   6.318  16.953 -2.0447  1.5038 -0.7124
 5806TIP3    H238910   4.289   6.432  17.021  0.8426 -1.1860  1.0022
 5807TIP3   OH238911   3.634   1.989  15.457 -0.6301 -0.4950  0.6506
 5807TIP3    H138912   3.697   1.945  15.514 -2.6337 -2.2979  1.6130
 5807TIP3    H238913   3.646   2.082  15.475  2.2302 -0.6986  0.2178
 5808TIP3   OH238914   6.045   3.988   3.694  0.2747 -0.0952  0.1924
 5808TIP3    H138915   6.023   3.908   3.645 -2.0002 -0.1977  1.2554
 5808TIP3    H238916   6.126   3.966   3.740  0.5864 -1.1964 -0.8292
 5809TIP3   OH238917   0.729   6.637  14.321  0.2713 -0.5834  0.2281
 5809TIP3    H138918   0.751   6.567  14.382 -0.5737 -0.9294  0.1479
 5809TIP3    H238919   0.634   6.631  14.310  0.0319  1.1534  0.9423
 5810TIP3   OH238920   0.866   2.365  12.184 -0.4261 -0.4643 -0.4510
 5810TIP3    H138921   0.848   2.367  12.278  1.2171 -2.2230 -0.0586
 5810TIP3    H238922   0.956   2.395  12.176  0.2579 -2.5548 -1.1889
 5811TIP3   OH238923   3.796   1.271   2.048  0.4653 -0.4075 -0.2386
 5811TIP3    H138924   3.879   1.224   2.050  2.3470  2.6405 -0.8863
 5811TIP3    H238925   3.809   1.347   2.104 -1.9825  0.1017 -0.2244
 5812TIP3   OH238926   3.809   2.410   4.608 -0.2363  0.1955  0.4066
 5812TIP3    H138927   3.854   2.397   4.525 -1.5029  1.8009 -0.5935
 5812TIP3    H238928   3.871   2.379   4.674  1.3754  0.1888 -1.0349
 5813TIP3   OH238929   1.817   6.001   1.394 -0.1015  0.4829 -0.2388
 5813TIP3    H138930   1.819   5.910   1.363  2.6864 -0.4495  2.2587
 5813TIP3    H238931   1.735   6.035   1.359 -1.1025 -2.8421 -1.6171
 5814TIP3   OH238932   2.358   3.679   5.278  0.0726  0.1846 -0.0826
 5814TIP3    H138933   2.276   3.729   5.282  0.7310  1.1768  2.6443
 5814TIP3    H238934   2.336   3.595   5.317  0.5544  0.8397  1.6763
 5815TIP3   OH238935   4.921   2.658  15.361 -0.1968 -0.4966  0.5076
 5815TIP3    H138936   4.831   2.691  15.353 -0.1042 -0.0457  1.2263
 5815TIP3    H238937   4.975   2.736  15.372  0.2882 -0.7668  0.0864
 5816TIP3   OH238938   3.603   5.720   0.498 -0.3082 -0.2194 -0.6034
 5816TIP3    H138939   3.673   5.737   0.561  0.1048  2.1826 -1.5804
 5816TIP3    H238940   3.525   5.759   0.539 -0.3921 -0.1227 -0.8538
 5817TIP3   OH238941   0.813   2.636   5.687  0.0405 -0.1121  0.6781
 5817TIP3    H138942   0.769   2.719   5.703 -0.1763 -0.2508  0.8023
 5817TIP3    H238943   0.903   2.651   5.716  0.2590  0.3927 -0.2392
 5818TIP3   OH238944   5.746   2.607   2.499 -0.7593  0.5028 -0.4331
 5818TIP3    H138945   5.820   2.566   2.454 -0.9839 -0.0246 -0.3272
 5818TIP3    H238946   5.674   2.601   2.436 -1.2343 -0.7752  0.2125
 5819TIP3   OH238947   5.900   0.596  15.083  0.1536 -0.5663  0.0151
 5819TIP3    H138948   5.874   0.603  14.991 -0.4947  0.2360  0.2407
 5819TIP3    H238949   5.981   0.647  15.089 -1.3633  1.9643  0.4401
 5820TIP3   OH238950   1.739   6.393   4.204 -0.2922 -0.1157  0.0675
 5820TIP3    H138951   1.736   6.426   4.114 -1.3450 -0.3375  0.0114
 5820TIP3    H238952   1.793   6.457   4.251  0.4477 -0.1193 -0.7639
 5821TIP3   OH238953   5.671   6.269   6.001  0.1440 -1.0717 -0.7235
 5821TIP3    H138954   5.678   6.203   5.932  0.1526 -2.7040  0.7630
 5821TIP3    H238955   5.713   6.229   6.077 -1.9132 -0.3171  0.9159
 5822TIP3   OH238956   4.497   1.813  15.795 -0.5279  0.4543  0.1065
 5822TIP3    H138957   4.518   1.782  15.707 -0.3787 -0.2264  0.3804
 5822TIP3    H238958   4.484   1.907  15.784  2.6584  1.0063 -0.1145
 5823TIP3   OH238959   3.372   2.607  15.157  0.0445  0.0782 -0.2508
 5823TIP3    H138960   3.404   2.561  15.235  0.1417  1.5378  0.6067
 5823TIP3    H238961   3.344   2.693  15.190 -0.0624  0.6678 -1.8042
 5824TIP3   OH238962   3.416   0.510   4.961 -0.5642  0.1791 -0.4945
 5824TIP3    H138963   3.328   0.519   4.998 -0.4782 -2.8430  0.7550
 5824TIP3    H238964   3.474   0.531   5.034 -0.3263 -0.4419 -0.4976
 5825TIP3   OH238965   3.884   6.397  13.930 -0.0435 -0.0979 -0.2029
 5825TIP3    H138966   3.822   6.339  13.975 -0.3111  0.6235  0.3661
 5825TIP3    H238967   3.868   6.381  13.837 -0.1124 -0.9342 -0.0566
 5826TIP3   OH238968   6.119   1.089   5.206 -0.0857  0.2449  0.2901
 5826TIP3    H138969   6.137   1.129   5.122  1.2578  0.7299  0.7910
 5826TIP3    H238970   6.190   1.026   5.219 -2.1912 -2.4994 -0.5427
 5827TIP3   OH238971   6.508   6.634   3.464 -0.7087  0.1541  0.4619
 5827TIP3    H138972   6.559   6.561   3.428  0.4623  1.4157 -0.5395
 5827TIP3    H238973   6.419   6.619   3.432  0.1231  0.7794 -2.4137
 5828TIP3   OH238974   6.715   3.323   0.709 -0.4498 -0.5189 -0.4144
 5828TIP3    H138975   6.670   3.311   0.626  0.1040  0.4479 -0.8617
 5828TIP3    H238976   6.646   3.349   0.770 -0.5707  0.6771 -1.0301
 5829TIP3   OH238977   4.838   2.377   6.259  0.1231 -0.3828 -0.6395
 5829TIP3    H138978   4.923   2.417   6.280 -0.3802  0.5341 -0.3162
 5829TIP3    H238979   4.859   2.313   6.191  0.8105  1.1332 -1.9307
 5830TIP3   OH238980   4.797   5.751   2.608 -0.5612 -0.3503 -0.1218
 5830TIP3    H138981   4.885   5.726   2.636 -0.5070 -0.9351 -0.7883
 5830TIP3    H238982   4.795   5.846   2.617  0.1367 -0.3354 -0.0848
 5831TIP3   OH238983   4.388   2.582   3.848  0.1741 -0.3460  0.4648
 5831TIP3    H138984   4.343   2.544   3.923  0.2341  1.1873  1.3167
 5831TIP3    H238985   4.480   2.588   3.876 -0.0790  1.8059  0.9781
 5832TIP3   OH238986   4.917   4.139   1.484 -0.0648  0.4915 -0.1566
 5832TIP3    H138987   4.945   4.185   1.405  2.2652 -1.9955 -0.9491
 5832TIP3    H238988   4.842   4.086   1.455  0.0748  0.4309 -0.4102
 5833TIP3   OH238989   0.914   5.203  11.527 -0.1591 -0.0498  0.4671
 5833TIP3    H138990   0.823   5.206  11.498 -0.0242  2.4964  0.0262
 5833TIP3    H238991   0.909   5.178  11.619 -1.1885 -1.0229  0.1755
 5834TIP3   OH238992   4.638   6.758   0.204  0.4380  0.0019  0.0559
 5834TIP3    H138993   4.604   6.842   0.237  1.2236 -0.1844  1.4184
 5834TIP3    H238994   4.565   6.720   0.156  0.2308  1.6993 -1.0429
 5835TIP3   OH238995   2.744   4.523  13.346 -0.1445  0.0887 -0.3092
 5835TIP3    H138996   2.828   4.543  13.386 -0.1636 -2.2587  1.0647
 5835TIP3    H238997   2.711   4.608  13.315  1.4263  1.4961  1.6381
 5836TIP3   OH238998   4.941   2.484  13.352  0.4431  0.2293 -0.4753
 5836TIP3    H138999   4.915   2.554  13.412  0.8630  0.5992 -0.7230
 5836TIP3    H239000   5.031   2.464  13.375 -0.0709 -1.1431  0.4608
 5837TIP3   OH239001   5.498   3.567  17.096  0.3188  0.0243  0.0518
 5837TIP3    H139002   5.593   3.568  17.088  0.1962  0.8396 -2.2818
 5837TIP3    H239003   5.472   3.659  17.083 -0.7768 -0.1620  0.7759
 5838TIP3   OH239004   1.981   0.014   0.040 -0.6639 -0.4483 -0.4016
 5838TIP3    H139005   1.908   0.065   0.004 -0.2216  1.4896  1.2938
 5838TIP3    H239006   2.035  -0.007  -0.036 -0.3436  2.5356 -1.0945
 5839TIP3   OH239007   3.160   0.382  14.440  0.5318 -0.5758  0.6774
 5839TIP3    H139008   3.223   0.347  14.503  2.0423  1.1288  0.2077
 5839TIP3    H239009   3.195   0.355  14.355 -1.5104 -2.9012  0.4639
 5840TIP3   OH239010   4.296   5.085   2.539  0.3046 -0.0134  0.0923
 5840TIP3    H139011   4.325   4.998   2.565 -0.0279 -0.6400 -1.5110
 5840TIP3    H239012   4.369   5.121   2.488  0.1608  0.3615  0.1445
 5841TIP3   OH239013   1.788   3.195  13.295  0.3242  0.1365  0.2900
 5841TIP3    H139014   1.874   3.226  13.267  0.2800  0.2260  0.2527
 5841TIP3    H239015   1.775   3.233  13.382 -0.5070  1.7223 -0.4884
 5842TIP3   OH239016   3.570   4.327  11.230  0.3134  0.7400 -0.3602
 5842TIP3    H139017   3.589   4.235  11.247 -0.5486  0.5241 -0.5145
 5842TIP3    H239018   3.618   4.374  11.298  1.3907  0.2355 -0.7382
 5843TIP3   OH239019   2.599   0.741  14.354  0.4932  0.2162  0.2859
 5843TIP3    H139020   2.570   0.733  14.263  0.6479 -0.6271  0.3018
 5843TIP3    H239021   2.580   0.655  14.392 -0.3757  0.8260  1.2925
 5844TIP3   OH239022   5.244   3.484  12.366 -0.1499 -0.0005  0.2402
 5844TIP3    H139023   5.323   3.431  12.376  0.3627  0.8665  0.9121
 5844TIP3    H239024   5.237   3.532  12.448 -0.7680  0.7426 -0.2347
 5845TIP3   OH239025   2.453   6.176   5.498  0.0713 -0.2257 -0.4921
 5845TIP3    H139026   2.478   6.269   5.501  0.3242 -0.2707 -1.0694
 5845TIP3    H239027   2.503   6.141   5.424 -1.2601 -0.4491 -1.3064
 5846TIP3   OH239028   0.641   6.179  17.248  0.0566 -0.2091  0.2617
 5846TIP3    H139029   0.621   6.232  17.325  1.3530 -0.7200  0.9872
 5846TIP3    H239030   0.667   6.242  17.181 -2.1981  0.3267 -0.1690
 5847TIP3   OH239031   4.906   2.271   5.404 -0.1341 -0.1287 -0.3377
 5847TIP3    H139032   4.891   2.291   5.496 -1.0178 -1.2292 -0.2116
 5847TIP3    H239033   4.989   2.224   5.403  0.2131  0.4745 -0.1979
 5848TIP3   OH239034   4.055   5.988  13.563  0.4107  0.5339 -0.9943
 5848TIP3    H139035   4.025   5.899  13.576 -1.2474  1.1816 -0.0875
 5848TIP3    H239036   4.149   5.985  13.581 -0.0702 -0.5168  1.7857
 5849TIP3   OH239037   3.599   2.931  17.295  0.0372 -0.1383 -0.5768
 5849TIP3    H139038   3.646   2.871  17.353  0.4501 -1.1781 -1.9409
 5849TIP3    H239039   3.532   2.971  17.352  0.9480 -0.4919  0.8004
 5850TIP3   OH239040   6.824   4.388   4.794  0.2983 -0.3740 -0.1257
 5850TIP3    H139041   6.780   4.433   4.722  0.5104 -0.6843 -0.4540
 5850TIP3    H239042   6.836   4.298   4.763  1.1613 -0.2951 -0.0434
 5851TIP3   OH239043   4.022   3.582  10.800  0.0701  0.2045  0.3059
 5851TIP3    H139044   4.039   3.489  10.817  1.7737  0.9593  3.7484
 5851TIP3    H239045   4.092   3.608  10.740 -0.1768 -0.6077 -0.3638
 5852TIP3   OH239046   6.713   5.456   5.470 -0.0368  0.4899  0.2938
 5852TIP3    H139047   6.652   5.500   5.411 -1.5850 -1.0746  0.6603
 5852TIP3    H239048   6.672   5.462   5.556  0.6828  0.0361  0.6816
 5853TIP3   OH239049   1.891   2.463   2.232 -0.0486  0.2756 -0.1089
 5853TIP3    H139050   1.847   2.425   2.157 -0.7728 -0.1939  0.5468
 5853TIP3    H239051   1.821   2.485   2.293  0.6324 -0.7958  1.0982
 5854TIP3   OH239052   0.435   6.057   0.202  0.2752  0.0200  0.0672
 5854TIP3    H139053   0.354   6.009   0.221  0.8262 -1.0851 -0.3023
 5854TIP3    H239054   0.415   6.109   0.124  0.0283 -0.5378 -0.2469
 5855TIP3   OH239055   5.392   6.079  12.751  0.2430 -0.3054 -0.3987
 5855TIP3    H139056   5.361   6.052  12.838 -0.0445 -1.5006 -0.8536
 5855TIP3    H239057   5.365   6.008  12.693  0.4136  0.4894 -1.4803
 5856TIP3   OH239058   6.343   4.462   0.172  0.1377 -0.5284  0.1754
 5856TIP3    H139059   6.370   4.384   0.124  2.2772 -1.1597  2.2111
 5856TIP3    H239060   6.361   4.534   0.112  0.0464 -1.4592 -1.0028
 5857TIP3   OH239061   1.761   5.614  15.255 -0.3047 -0.1685  0.0835
 5857TIP3    H139062   1.746   5.531  15.301  0.9641  0.2940  1.3987
 5857TIP3    H239063   1.851   5.637  15.276 -0.2827  1.0021 -1.1772
 5858TIP3   OH239064   4.423   4.016   4.511  0.1869 -0.0413 -0.0553
 5858TIP3    H139065   4.470   4.050   4.586 -2.1268 -0.2967  1.6282
 5858TIP3    H239066   4.436   4.081   4.442  3.0217 -0.1947  0.2411
 5859TIP3   OH239067   1.359   5.283  12.468  0.8806  0.0149  0.0604
 5859TIP3    H139068   1.367   5.316  12.557 -0.9121  0.0870  0.2350
 5859TIP3    H239069   1.366   5.361  12.413  1.5151  0.0340  0.1680
 5860TIP3   OH239070   1.287   6.078  13.814  0.0249  0.0246  0.3831
 5860TIP3    H139071   1.294   6.113  13.725 -1.6495  2.0125  0.9496
 5860TIP3    H239072   1.270   5.985  13.802  2.6507 -0.3289 -1.2563
 5861TIP3   OH239073   6.097   5.981   5.920 -0.1655 -0.2894 -0.2378
 5861TIP3    H139074   6.096   6.005   6.013 -1.0137  1.5202 -0.6856
 5861TIP3    H239075   6.190   5.969   5.899  0.2171  1.4607  0.3311
 5862TIP3   OH239076   1.870   0.675   1.978  0.6866  0.1097  0.2081
 5862TIP3    H139077   1.915   0.737   1.922  2.6702 -0.8580  0.6445
 5862TIP3    H239078   1.908   0.590   1.956 -1.2969 -0.8687  0.2688
 5863TIP3   OH239079   0.497   0.522   3.493  0.1419  0.1676 -0.3076
 5863TIP3    H139080   0.493   0.616   3.479 -2.5135  0.1586 -0.0428
 5863TIP3    H239081   0.451   0.484   3.418 -1.2442 -0.7101  0.9322
 5864TIP3   OH239082   1.734   1.151   5.292 -0.5734 -0.2067  0.2176
 5864TIP3    H139083   1.678   1.197   5.354 -0.6112  1.1704 -0.8003
 5864TIP3    H239084   1.797   1.216   5.262  0.3557 -1.2207 -0.1307
 5865TIP3   OH239085   4.198   3.259  14.989  0.2187 -0.0323  0.3995
 5865TIP3    H139086   4.231   3.343  14.957 -1.8036  0.4016 -0.7176
 5865TIP3    H239087   4.103   3.270  14.992 -0.0808 -2.2210  0.4173
 5866TIP3   OH239088   6.618   3.711  16.002  0.1618  0.1245  0.2918
 5866TIP3    H139089   6.609   3.796  16.046  0.0524  0.2968 -0.0583
 5866TIP3    H239090   6.706   3.681  16.024 -0.4779 -0.5804  2.0145
 5867TIP3   OH239091   1.657   2.812  15.038  0.3436 -0.1913 -0.5557
 5867TIP3    H139092   1.707   2.771  15.108  0.4957  1.1472  0.1574
 5867TIP3    H239093   1.611   2.740  14.996  2.7492 -1.4616 -1.1667
 5868TIP3   OH239094   5.554   1.394  11.766  0.0743  0.2566  0.3935
 5868TIP3    H139095   5.598   1.342  11.833  0.9608 -0.9484 -1.0826
 5868TIP3    H239096   5.616   1.463  11.745  0.5825 -0.4617 -0.4978
 5869TIP3   OH239097   5.182   6.473   1.242  0.2017 -0.0454  0.0934
 5869TIP3    H139098   5.115   6.539   1.257 -1.4419 -1.8401  1.2461
 5869TIP3    H239099   5.137   6.404   1.193  2.1303  0.0845 -2.0133
 5870TIP3   OH239100   2.054   1.377   2.455 -0.7967  0.0700  0.4989
 5870TIP3    H139101   2.061   1.323   2.533  0.9148  0.0139  0.3346
 5870TIP3    H239102   2.108   1.454   2.473  1.0601 -0.7222 -1.2145
 5871TIP3   OH239103   6.159   0.760  16.527  0.5304 -0.1147  0.8506
 5871TIP3    H139104   6.095   0.689  16.516 -1.0931  1.1845  1.5736
 5871TIP3    H239105   6.109   0.840  16.515  2.2530  0.9659  0.4205
 5872TIP3   OH239106   2.697   3.313  15.229 -0.3900 -0.0385  0.3677
 5872TIP3    H139107   2.675   3.395  15.273  0.0248 -0.2523  1.0000
 5872TIP3    H239108   2.769   3.277  15.282 -0.5291 -0.7763  0.0593
 5873TIP3   OH239109   6.383   2.949   4.562  0.3783 -0.4958 -0.0379
 5873TIP3    H139110   6.446   2.893   4.607  0.9434 -0.2668 -0.5291
 5873TIP3    H239111   6.307   2.951   4.620 -0.2050 -2.8585 -0.6222
 5874TIP3   OH239112   2.004   1.743  12.990 -0.5260  0.3086 -0.0464
 5874TIP3    H139113   2.067   1.811  13.017 -0.5245  1.1056 -1.9316
 5874TIP3    H239114   2.048   1.697  12.919 -1.5688  0.0287 -0.5204
 5875TIP3   OH239115   0.910   0.742   1.915 -0.1191 -0.6343  0.3204
 5875TIP3    H139116   0.858   0.815   1.883  0.4749 -0.9540 -1.4766
 5875TIP3    H239117   0.990   0.744   1.862 -0.2294 -2.7588 -0.0056
 5876TIP3   OH239118   3.214   1.415  13.430 -0.2454 -0.2060  0.1474
 5876TIP3    H139119   3.248   1.386  13.515  0.1113  0.7005  0.3312
 5876TIP3    H239120   3.293   1.439  13.381 -0.4802 -0.3427 -0.2936
 5877TIP3   OH239121   6.582   2.708   1.176 -0.1463  0.5530  0.2895
 5877TIP3    H139122   6.488   2.727   1.176 -0.3071 -0.1946  0.6404
 5877TIP3    H239123   6.593   2.638   1.112 -0.5587 -2.5341  3.3229
 5878TIP3   OH239124   1.589   0.777   4.155 -0.2734 -0.3368  0.1312
 5878TIP3    H139125   1.495   0.793   4.162 -0.6119 -1.8429 -0.5843
 5878TIP3    H239126   1.615   0.745   4.242 -0.9011 -2.0525 -0.2737
 5879TIP3   OH239127   6.073   1.188   2.599 -0.4629  0.3343  0.3119
 5879TIP3    H139128   6.124   1.108   2.590  0.5856  0.9506  0.6877
 5879TIP3    H239129   6.010   1.184   2.527  1.6896  0.7386 -1.6823
 5880TIP3   OH239130   0.983   1.072  12.832  0.5160 -0.3011 -0.1766
 5880TIP3    H139131   0.913   1.126  12.795  0.5512 -0.7466 -0.9258
 5880TIP3    H239132   0.941   1.024  12.903  0.3423  0.2725  0.1138
 5881TIP3   OH239133   1.175   1.201   3.131 -0.1121  0.0236  0.5998
 5881TIP3    H139134   1.128   1.167   3.054 -0.7809 -1.0573  1.4560
 5881TIP3    H239135   1.241   1.259   3.094  1.2877 -2.3896 -0.9969
 5882TIP3   OH239136   4.901   5.102  11.844 -0.6658  0.7840  1.0681
 5882TIP3    H139137   4.836   5.069  11.906  1.0709 -1.0153  2.0419
 5882TIP3    H239138   4.948   5.170  11.892  0.5064 -0.4293  1.7064
 5883TIP3   OH239139   4.902   0.715   2.999 -0.2746 -0.2013  0.5636
 5883TIP3    H139140   4.831   0.674   3.049 -0.0707  1.6021  2.4779
 5883TIP3    H239141   4.980   0.703   3.053  0.5090 -0.5113 -0.6137
 5884TIP3   OH239142   3.682   4.364   1.363  0.1952  0.5719  0.7256
 5884TIP3    H139143   3.642   4.294   1.415 -1.7849  1.2568  0.2289
 5884TIP3    H239144   3.660   4.341   1.272  0.9513  0.9963  0.4250
 5885TIP3   OH239145   3.311   2.911  16.060  0.7892 -0.1271  0.8692
 5885TIP3    H139146   3.365   2.966  16.117  0.1030  0.6158  0.8083
 5885TIP3    H239147   3.375   2.855  16.014  1.3728 -0.5467  2.1364
 5886TIP3   OH239148   5.491   3.723  15.061 -0.3489 -0.0012 -0.4482
 5886TIP3    H139149   5.456   3.687  14.980  1.0443  1.4151 -1.7767
 5886TIP3    H239150   5.518   3.647  15.112 -2.1216 -0.9624 -0.8745
 5887TIP3   OH239151   1.919   5.044  11.887  0.0488 -0.5016  0.2698
 5887TIP3    H139152   1.995   5.091  11.853  0.2425 -0.7862  0.3068
 5887TIP3    H239153   1.901   5.086  11.971 -1.5978  1.4972 -0.9537
 5888TIP3   OH239154   5.855   0.556  11.666  0.7216 -0.1196  0.1676
 5888TIP3    H139155   5.913   0.556  11.590 -1.0697 -0.5694 -1.2789
 5888TIP3    H239156   5.781   0.609  11.639 -0.1372 -0.6186  1.4623
 5889TIP3   OH239157   3.522   2.356  16.273  0.3316 -0.8341  0.1935
 5889TIP3    H139158   3.507   2.318  16.360  1.0153 -0.7058  0.3693
 5889TIP3    H239159   3.617   2.367  16.267  0.2678 -0.5949 -0.4674
 5890TIP3   OH239160   6.520   5.733   3.764  0.2479  0.1455 -0.2828
 5890TIP3    H139161   6.616   5.726   3.770  0.2778  0.8911  0.2685
 5890TIP3    H239162   6.493   5.756   3.853 -0.6711 -2.3221  0.1478
 5891TIP3   OH239163   0.532   3.848  13.028 -0.0636  0.7725  0.0699
 5891TIP3    H139164   0.478   3.827  13.104 -0.1618 -3.0227 -0.8433
 5891TIP3    H239165   0.622   3.834  13.059 -0.1211 -1.2040 -0.4893
 5892TIP3   OH239166   1.855   1.637   1.769  0.0682  0.7008 -0.0891
 5892TIP3    H139167   1.794   1.642   1.843 -0.1564 -4.9786  0.4878
 5892TIP3    H239168   1.816   1.573   1.710  3.3236  0.2380 -1.9611
 5893TIP3   OH239169   4.478   1.456  11.863  0.1626 -0.1704  0.1258
 5893TIP3    H139170   4.519   1.495  11.786 -1.0470 -0.2160 -0.5836
 5893TIP3    H239171   4.488   1.361  11.849  0.3310 -0.1705  0.2484
 5894TIP3   OH239172   1.676   5.628   2.080 -0.6072 -0.0875 -0.1723
 5894TIP3    H139173   1.689   5.703   2.023 -0.1806 -0.8981 -1.1807
 5894TIP3    H239174   1.646   5.558   2.021 -0.5383 -0.8389  0.6574
 5895TIP3   OH239175   3.673   5.999   5.218  0.3895 -0.1381 -0.5011
 5895TIP3    H139176   3.622   5.993   5.136 -0.8304 -0.8105  0.2706
 5895TIP3    H239177   3.764   5.991   5.190  0.0217  0.0723 -1.8402
 5896TIP3   OH239178   0.378   1.760  14.058  0.5243 -0.0176  0.1025
 5896TIP3    H139179   0.445   1.693  14.042 -1.1506 -1.3350 -1.9399
 5896TIP3    H239180   0.361   1.798  13.972 -1.4830  0.1196  0.5056
 5897TIP3   OH239181   1.143   1.269  12.941  0.2790 -0.2362  0.0117
 5897TIP3    H139182   1.116   1.196  12.886  0.5044 -1.0713  0.9592
 5897TIP3    H239183   1.227   1.297  12.904  0.7962 -1.2716  0.3404
 5898TIP3   OH239184   4.632   2.982  13.721 -0.7060  0.3469 -0.3249
 5898TIP3    H139185   4.630   2.984  13.817 -1.7878  0.6789 -0.3452
 5898TIP3    H239186   4.617   2.891  13.698 -1.5905  0.4574 -0.1949
 5899TIP3   OH239187   6.381   0.841  16.705 -0.2105  0.0961  0.0370
 5899TIP3    H139188   6.343   0.804  16.626 -0.9762 -0.0857  0.4848
 5899TIP3    H239189   6.398   0.765  16.761  1.7575  0.0600 -0.5349
 5900TIP3   OH239190   6.599   2.062   3.301 -0.2583 -0.3731 -0.0008
 5900TIP3    H139191   6.525   2.121   3.315 -0.7490 -1.0788  0.4879
 5900TIP3    H239192   6.603   2.010   3.381  1.3892  0.3146  0.3753
 5901TIP3   OH239193   1.510   3.254   1.078 -0.0320  0.0871 -0.2197
 5901TIP3    H139194   1.488   3.164   1.101  2.3952 -0.8401 -1.2048
 5901TIP3    H239195   1.541   3.292   1.160  2.5601 -1.2275 -0.4928
 5902TIP3   OH239196   3.171   4.798   4.598 -0.1215 -0.2924 -0.3796
 5902TIP3    H139197   3.191   4.840   4.514  1.3996  0.7462  0.4564
 5902TIP3    H239198   3.196   4.706   4.586 -0.6485 -0.3324 -1.2806
 5903TIP3   OH239199   2.127   2.711   0.866 -0.6857 -0.6060  0.2158
 5903TIP3    H139200   2.160   2.632   0.908 -0.0643 -1.6608 -2.0803
 5903TIP3    H239201   2.081   2.680   0.788 -1.3208  1.2500 -0.2108
 5904TIP3   OH239202   3.858   1.662   2.033 -0.4896  0.0921  0.4059
 5904TIP3    H139203   3.917   1.737   2.042  0.0332 -0.1258 -0.9634
 5904TIP3    H239204   3.902   1.604   1.972 -2.2805  0.0860 -0.9566
 5905TIP3   OH239205   0.069   3.399  17.036  0.2780  0.2421 -0.3402
 5905TIP3    H139206   0.037   3.464  16.973 -1.1579  0.9600  1.0466
 5905TIP3    H239207   0.002   3.398  17.105  0.3608 -2.5509 -0.1805
 5906TIP3   OH239208   2.923   0.072  14.681 -0.1728  0.2858 -0.0786
 5906TIP3    H139209   2.868   0.142  14.646 -1.0668 -0.1418  0.4532
 5906TIP3    H239210   2.895  -0.007  14.636  0.5083  0.1759 -0.3284
 5907TIP3   OH239211   1.150   1.848  15.086 -0.1120  0.2137  0.3636
 5907TIP3    H139212   1.218   1.797  15.129  0.8578  1.1859  0.0390
 5907TIP3    H239213   1.191   1.879  15.005 -1.0832  0.4691 -0.0442
 5908TIP3   OH239214   3.676   6.762   3.136 -0.5901  0.1723 -0.5830
 5908TIP3    H139215   3.698   6.684   3.085 -0.6474  0.8190 -1.6105
 5908TIP3    H239216   3.609   6.806   3.085 -2.1580 -0.2107  1.0504
 5909TIP3   OH239217   0.173   0.624   2.028 -0.2143 -0.4800 -0.1983
 5909TIP3    H139218   0.265   0.625   2.053 -0.1355  0.2897 -0.5187
 5909TIP3    H239219   0.162   0.540   1.983 -0.1404 -1.4656  1.5375
 5910TIP3   OH239220   2.124   5.040   0.139  0.2256 -0.4378 -0.1120
 5910TIP3    H139221   2.143   4.987   0.216  1.5183 -2.4017 -1.6743
 5910TIP3    H239222   2.117   5.130   0.172 -1.1369 -1.4060  2.5146
 5911TIP3   OH239223   1.476   3.289   2.544  0.1618 -0.1192 -0.1758
 5911TIP3    H139224   1.391   3.293   2.500  0.8729 -1.6752 -1.8191
 5911TIP3    H239225   1.456   3.298   2.637 -1.6517  0.7941 -0.6032
 5912TIP3   OH239226   3.574   4.992   2.573 -0.0318 -0.1156  0.6266
 5912TIP3    H139227   3.551   5.081   2.597  0.4790  0.5050 -1.0273
 5912TIP3    H239228   3.610   4.954   2.653  1.1269  1.6491  1.0163
 5913TIP3   OH239229   0.248   1.077   4.008  0.3567  0.3717 -0.0917
 5913TIP3    H139230   0.212   1.073   4.096 -1.4008 -0.5471 -0.7858
 5913TIP3    H239231   0.254   1.170   3.989  0.9864  0.5855  1.0586
 5914TIP3   OH239232   2.033   4.695   4.066  0.3027 -0.6007 -0.1075
 5914TIP3    H139233   2.066   4.777   4.031 -1.2615 -0.6085 -1.7231
 5914TIP3    H239234   1.986   4.654   3.994 -1.1523 -1.6941  1.3596
 5915TIP3   OH239235   2.958   4.659  12.655 -0.5116  0.0550  0.0899
 5915TIP3    H139236   2.976   4.587  12.595 -1.1793 -1.5573  1.6919
 5915TIP3    H239237   2.932   4.615  12.737  2.0022  2.0502  2.1351
 5916TIP3   OH239238   6.255   4.983  16.364 -0.0628  0.1067 -0.8490
 5916TIP3    H139239   6.267   4.971  16.459  0.7146 -0.8271 -1.0585
 5916TIP3    H239240   6.253   5.078  16.353  1.5466  0.2634 -0.0929
 5917TIP3   OH239241   3.482   0.568  11.510 -0.2680 -0.1442 -0.1505
 5917TIP3    H139242   3.489   0.496  11.573  2.1206 -0.3837 -0.6249
 5917TIP3    H239243   3.504   0.529  11.426 -0.1976  0.8765 -0.6194
 5918TIP3   OH239244   4.632   5.016  16.455 -0.1920 -0.7449  0.1819
 5918TIP3    H139245   4.542   5.048  16.447  0.1032  0.2806  0.7869
 5918TIP3    H239246   4.657   5.037  16.544  1.6586  1.7923 -0.8077
 5919TIP3   OH239247   5.203   4.378   5.005  0.3333 -0.0951  0.8240
 5919TIP3    H139248   5.123   4.419   5.038  1.0178  0.8578  1.3291
 5919TIP3    H239249   5.190   4.373   4.910 -1.0542 -1.5601  1.0405
 5920TIP3   OH239250   4.631   1.379   4.944 -0.7765 -0.2089  0.0732
 5920TIP3    H139251   4.577   1.364   4.866 -3.7957 -0.3733  2.0413
 5920TIP3    H239252   4.678   1.297   4.957 -0.8760 -0.4716 -1.0771
 5921TIP3   OH239253   3.706   0.066  13.035  0.2863 -0.1316 -0.1332
 5921TIP3    H139254   3.659   0.008  13.095 -0.0570 -0.0553 -0.3287
 5921TIP3    H239255   3.649   0.074  12.959  0.0810  0.8866  0.1108
 5922TIP3   OH239256   3.922   2.686   5.781 -0.5712  0.1962  0.3081
 5922TIP3    H139257   3.939   2.720   5.868 -0.6423  2.3026 -0.4584
 5922TIP3    H239258   3.832   2.653   5.786 -0.0508 -1.1759  1.4195
 5923TIP3   OH239259   3.925   0.773  12.309  0.0864  0.2950  0.3942
 5923TIP3    H139260   3.950   0.754  12.218  0.6626  0.2716  0.5541
 5923TIP3    H239261   3.977   0.849  12.333  2.2194 -1.4426  1.6599
 5924TIP3   OH239262   2.759   0.597   0.369  0.3645 -0.3794  0.3860
 5924TIP3    H139263   2.673   0.634   0.390  0.1481 -1.1131  0.8299
 5924TIP3    H239264   2.749   0.503   0.384  1.9385 -0.2311  2.9547
 5925TIP3   OH239265   2.556   6.232   1.052 -0.4214  0.5592 -0.0750
 5925TIP3    H139266   2.537   6.216   0.959  0.7765 -1.1009 -0.0810
 5925TIP3    H239267   2.627   6.297   1.051 -0.3448  0.4733 -0.3157
 5926TIP3   OH239268   1.683   4.780   5.386  0.0014  0.0821  0.2429
 5926TIP3    H139269   1.703   4.869   5.416 -3.1961  0.6161  1.2007
 5926TIP3    H239270   1.684   4.727   5.465 -0.0739 -0.2962 -0.0071
 5927TIP3   OH239271   4.033   5.022  17.152  0.5000  0.0525 -0.1379
 5927TIP3    H139272   4.064   4.987  17.069  3.8798 -1.0169  1.3920
 5927TIP3    H239273   4.113   5.042  17.201 -1.3362  2.3782  2.1966
 5928TIP3   OH239274   4.927   4.910  11.641 -0.7505 -0.0310  0.3275
 5928TIP3    H139275   4.914   4.950  11.727 -1.4199 -0.9016  0.6401
 5928TIP3    H239276   5.022   4.917  11.626 -0.4763 -0.7571  1.5738
 5929TIP3   OH239277   5.419   1.826  15.773  0.3679 -0.0755  0.7503
 5929TIP3    H139278   5.412   1.910  15.818  1.8832 -0.7203  2.2980
 5929TIP3    H239279   5.510   1.800  15.785  0.1069 -1.6199 -0.3224
 5930TIP3   OH239280   5.395   6.684   1.544  0.2200  0.2039 -0.1261
 5930TIP3    H139281   5.415   6.596   1.511 -0.2354 -0.0078  0.1568
 5930TIP3    H239282   5.410   6.742   1.469 -0.4055 -0.2218 -0.5890
 5931TIP3   OH239283   5.022   0.835  11.036 -0.0637  0.0544  0.2840
 5931TIP3    H139284   5.063   0.875  11.112  0.2060  1.1613 -0.4323
 5931TIP3    H239285   4.930   0.822  11.062 -0.5192  2.4593  0.0699
 5932TIP3   OH239286   0.000   5.753   5.184 -0.2390 -0.0507  0.0644
 5932TIP3    H139287  -0.078   5.735   5.236  0.4913  0.4208  1.3939
 5932TIP3    H239288  -0.008   5.845   5.159  0.1125  0.1449  0.6414
 5933TIP3   OH239289   2.493   6.158   3.501  0.0774 -0.3625  0.6473
 5933TIP3    H139290   2.458   6.069   3.504  0.3544 -0.4506  2.3734
 5933TIP3    H239291   2.546   6.166   3.580  0.3868  1.2074  0.3202
 5934TIP3   OH239292   0.268   6.271   2.334 -0.1458  0.0283  0.0032
 5934TIP3    H139293   0.295   6.192   2.382 -0.5820  1.0893  2.1209
 5934TIP3    H239294   0.175   6.279   2.352 -0.4118  0.2574 -1.4074
 5935TIP3   OH239295   1.038   1.009   0.856 -0.0118 -0.4548 -0.3904
 5935TIP3    H139296   1.081   0.931   0.820 -1.0612 -0.2218 -2.3434
 5935TIP3    H239297   0.974   0.974   0.918 -0.5387 -1.1903 -1.3213
 5936TIP3   OH239298   4.892   3.082   0.649 -0.2793  0.3008 -0.3638
 5936TIP3    H139299   4.876   3.081   0.555 -0.4070 -0.4356 -0.3345
 5936TIP3    H239300   4.829   3.147   0.683  0.9540  1.8966 -0.9827
 5937TIP3   OH239301   1.272   5.954   0.234 -0.1362 -0.4120  0.0789
 5937TIP3    H139302   1.291   5.865   0.265  0.2355 -0.0506  0.9058
 5937TIP3    H239303   1.186   5.946   0.193  0.9309 -1.6814 -2.1023
 5938TIP3   OH239304   0.531   0.883   2.546  0.6356 -0.3886  0.4073
 5938TIP3    H139305   0.464   0.888   2.478  0.8205 -2.1151  0.0457
 5938TIP3    H239306   0.601   0.941   2.516 -0.9278  1.9954  1.1315
 5939TIP3   OH239307   1.147   3.738  15.650 -0.0406 -0.3787  0.0644
 5939TIP3    H139308   1.231   3.690  15.649 -0.7152 -1.5988 -0.0937
 5939TIP3    H239309   1.081   3.669  15.652 -1.0422  0.5792  1.2243
 5940TIP3   OH239310   2.884   2.851  11.452  0.4162 -0.0479  0.1712
 5940TIP3    H139311   2.876   2.791  11.378  1.4176  0.3974 -0.3145
 5940TIP3    H239312   2.978   2.871  11.457  0.2728  0.4372  1.1481
 5941TIP3   OH239313   0.827   6.120  15.013 -0.0577  0.4659  0.6801
 5941TIP3    H139314   0.824   6.040  15.066 -2.6482  1.2910  1.9436
 5941TIP3    H239315   0.746   6.118  14.962 -0.0402  2.1565  0.5267
 5942TIP3   OH239316   1.796   1.264  13.565 -0.1368 -0.0842 -0.0350
 5942TIP3    H139317   1.881   1.302  13.543  0.7289 -1.9355 -0.0989
 5942TIP3    H239318   1.779   1.295  13.654  0.9987 -0.2638  0.2704
 5943TIP3   OH239319   0.735   5.085   2.615 -0.4228  0.0241 -0.3523
 5943TIP3    H139320   0.693   5.033   2.684 -3.1491  0.8682 -1.2194
 5943TIP3    H239321   0.726   5.032   2.536  1.0232 -0.1501 -0.4186
 5944TIP3   OH239322   0.767   1.677  13.544  0.2686 -0.2556  0.2780
 5944TIP3    H139323   0.768   1.645  13.635  2.5351 -0.1521  0.3593
 5944TIP3    H239324   0.841   1.632  13.503 -0.0598  0.5227 -1.2130
 5945TIP3   OH239325   0.617   2.992  12.136 -0.8103  0.1825  0.0242
 5945TIP3    H139326   0.648   3.082  12.140 -2.3525  0.7166  3.3648
 5945TIP3    H239327   0.656   2.950  12.213 -2.5390 -1.1087  0.2562
 5946TIP3   OH239328   3.254   3.183   1.439  0.0146 -0.1050  0.1380
 5946TIP3    H139329   3.234   3.089   1.442  1.3859 -0.3836  1.1683
 5946TIP3    H239330   3.240   3.214   1.528 -2.0436  1.0666 -0.5206
 5947TIP3   OH239331   0.353   0.934   4.807 -0.6474 -0.3815 -0.5945
 5947TIP3    H139332   0.386   0.845   4.819 -2.9278 -1.1766  0.5035
 5947TIP3    H239333   0.354   0.972   4.895 -1.3813 -0.0108 -0.7346
 5948TIP3   OH239334   3.029   1.649  10.584 -0.8124  0.1198 -0.2154
 5948TIP3    H139335   2.992   1.734  10.608 -0.4814  0.5513 -1.1800
 5948TIP3    H239336   3.123   1.667  10.573 -0.8859 -0.1295 -1.4017
 5949TIP3   OH239337   5.275   4.553   6.295 -0.1855  0.2515  0.1203
 5949TIP3    H139338   5.247   4.462   6.287 -0.9569  0.6534 -2.6893
 5949TIP3    H239339   5.199   4.598   6.332 -0.6595  0.1454 -0.7165
 5950TIP3   OH239340   3.097   3.397  16.774  0.2411  1.0410  0.0313
 5950TIP3    H139341   3.085   3.441  16.690 -1.5603  2.3166  0.8869
 5950TIP3    H239342   3.133   3.311  16.751 -0.5962  1.1982 -2.0820
 5951TIP3   OH239343   3.918   6.356  11.978  0.8491  0.5050 -0.3118
 5951TIP3    H139344   3.840   6.356  12.033  1.8137 -0.0179  1.1094
 5951TIP3    H239345   3.916   6.441  11.933 -0.0750  0.8547  0.3705
 5952TIP3   OH239346   4.900   4.644  13.940  0.1269 -0.6474 -0.2909
 5952TIP3    H139347   4.955   4.566  13.947  0.1464 -0.5409  1.0071
 5952TIP3    H239348   4.810   4.611  13.945  0.1439 -0.5485  1.0012
 5953TIP3   OH239349   1.154   0.741   4.895 -0.5800 -0.3386  0.1642
 5953TIP3    H139350   1.211   0.795   4.841 -0.8198 -0.1759  0.0730
 5953TIP3    H239351   1.177   0.651   4.871 -1.4150 -0.2638 -0.9772
 5954TIP3   OH239352   6.387   3.169   1.402  0.1212  0.7522  0.4304
 5954TIP3    H139353   6.481   3.158   1.386 -0.3820 -1.9182 -1.3614
 5954TIP3    H239354   6.351   3.080   1.397 -2.6083  1.7618  0.3518
 5955TIP3   OH239355   6.818   5.356   0.297 -0.0344 -0.3466  0.0515
 5955TIP3    H139356   6.912   5.362   0.312  0.4317 -1.7613 -1.9420
 5955TIP3    H239357   6.795   5.267   0.324 -0.3453 -0.7686 -1.5054
 5956TIP3   OH239358   1.412   0.133   0.707  1.1744 -0.3293 -0.2416
 5956TIP3    H139359   1.357   0.209   0.688  2.3188  0.8723  1.0002
 5956TIP3    H239360   1.388   0.108   0.797  1.8844 -0.4531 -0.0799
 5957TIP3   OH239361   3.536   1.606   1.535 -0.5722 -0.6331  0.4752
 5957TIP3    H139362   3.499   1.521   1.513  0.1348 -0.6254 -0.8785
 5957TIP3    H239363   3.613   1.585   1.589 -1.4001 -0.7420  1.6392
 5958TIP3   OH239364   0.419   5.477  12.431  0.2205 -0.1426  0.1953
 5958TIP3    H139365   0.402   5.548  12.493  0.4816 -0.1313  0.2545
 5958TIP3    H239366   0.449   5.521  12.351  2.8944 -0.2655  1.0304
 5959TIP3   OH239367   1.674   4.850   1.829 -0.2981  0.1795 -0.9625
 5959TIP3    H139368   1.624   4.769   1.823 -1.4368  0.9053 -1.5706
 5959TIP3    H239369   1.717   4.846   1.915 -0.6422 -0.8807 -0.8275
 5960TIP3   OH239370   0.467   3.289   4.936  0.2310 -0.4274 -0.8996
 5960TIP3    H139371   0.519   3.361   4.972 -1.7832  1.3005 -1.2829
 5960TIP3    H239372   0.497   3.281   4.845  0.7772 -0.4179 -0.7271
 5961TIP3   OH239373   4.944   2.304   1.976  0.2866 -0.5839 -0.4626
 5961TIP3    H139374   4.912   2.218   1.951 -1.8709 -0.0031  0.1167
 5961TIP3    H239375   4.867   2.350   2.009  1.2258  1.8396 -1.4374
 5962TIP3   OH239376   6.337   4.519   2.403 -0.2722 -0.1554  0.3315
 5962TIP3    H139377   6.346   4.614   2.400 -0.2627 -0.0799  1.9480
 5962TIP3    H239378   6.257   4.503   2.453 -0.1607 -1.0001  0.2674
 5963TIP3   OH239379   3.484   0.931  17.218 -0.5873  0.0466  0.2359
 5963TIP3    H139380   3.469   0.884  17.300 -0.5707 -1.5508 -0.6243
 5963TIP3    H239381   3.549   0.997  17.239  0.3036 -1.1112  1.2569
 5964TIP3   OH239382   2.007   1.229  16.834 -0.5110  0.1269  0.3042
 5964TIP3    H139383   2.092   1.265  16.807 -0.9893  0.6436 -0.5482
 5964TIP3    H239384   2.022   1.135  16.838 -0.1365  0.1158 -0.8219
 5965TIP3   OH239385   0.514   5.382  15.823  0.0124 -0.3660  0.3510
 5965TIP3    H139386   0.483   5.293  15.840 -0.2956 -0.4426 -0.5288
 5965TIP3    H239387   0.603   5.370  15.789  0.2569 -0.2845  0.9603
 5966TIP3   OH239388   6.485   4.840  11.214 -0.8098  0.5462 -0.3988
 5966TIP3    H139389   6.507   4.796  11.132 -1.1435  0.5600 -0.4952
 5966TIP3    H239390   6.527   4.786  11.282 -1.2268  0.0674 -0.5150
 5967TIP3   OH239391   5.408   3.912  14.746 -0.1687 -0.2445 -0.7080
 5967TIP3    H139392   5.492   3.877  14.777  1.1426  1.1172 -2.5173
 5967TIP3    H239393   5.362   3.936  14.826  0.4135 -2.5322  0.4236
 5968TIP3   OH239394   4.761   5.798  15.816  0.2523 -0.1540  0.0861
 5968TIP3    H139395   4.845   5.791  15.770  0.7682  1.3170  0.7515
 5968TIP3    H239396   4.710   5.725  15.782  1.7402 -1.0016 -0.4483
 5969TIP3   OH239397   3.201   6.359   0.954  1.1041 -0.6761 -0.2301
 5969TIP3    H139398   3.267   6.417   0.993  1.3238 -2.5650  2.4704
 5969TIP3    H239399   3.118   6.401   0.975  1.3367  0.0178 -0.6767
 5970TIP3   OH239400   0.930   4.430   4.473 -1.1232 -0.5568 -0.3718
 5970TIP3    H139401   0.955   4.521   4.456 -1.7953 -0.6161 -1.7996
 5970TIP3    H239402   0.883   4.433   4.556  1.3965 -0.0781  1.1350
 5971TIP3   OH239403   2.920   5.721  15.149 -0.0457  0.2459  0.2480
 5971TIP3    H139404   2.946   5.752  15.236  0.3029  0.7564 -0.0324
 5971TIP3    H239405   2.898   5.629  15.163 -2.6558  0.9714  1.3972
 5972TIP3   OH239406   4.327   2.203   0.936 -0.1781 -0.0086 -0.1067
 5972TIP3    H139407   4.395   2.148   0.898  0.5377  0.5206  0.3576
 5972TIP3    H239408   4.352   2.211   1.028 -0.6819  0.4781 -0.0039
 5973TIP3   OH239409   3.601   0.691   2.954  0.4325 -0.4700 -0.1928
 5973TIP3    H139410   3.521   0.715   2.908  0.6280 -0.9543 -0.8042
 5973TIP3    H239411   3.575   0.684   3.046 -0.2695 -0.7768 -0.4061
 5974TIP3   OH239412   1.772   1.248  15.053  0.2385 -0.5046  0.2526
 5974TIP3    H139413   1.726   1.241  14.969  3.1876 -1.6975 -1.4387
 5974TIP3    H239414   1.722   1.193  15.113 -2.1549  0.6586 -0.5727
 5975TIP3   OH239415   1.777   1.220  15.693 -0.2078  0.1614  0.3460
 5975TIP3    H139416   1.861   1.255  15.663 -0.7339 -0.2094 -1.7149
 5975TIP3    H239417   1.743   1.286  15.753  1.1309  0.7514  0.4752
 5976TIP3   OH239418   5.874   2.062  16.294  0.1152 -0.2073 -0.4134
 5976TIP3    H139419   5.806   2.017  16.344 -0.2723 -0.2453 -0.9631
 5976TIP3    H239420   5.894   2.140  16.345  0.6638 -0.8972  0.4613
 5977TIP3   OH239421   4.021   5.319  16.473 -0.2088 -0.1413 -0.3043
 5977TIP3    H139422   3.996   5.281  16.388  1.3356  0.8019 -1.2275
 5977TIP3    H239423   3.972   5.401  16.477 -0.2966 -0.1951 -0.2866
 5978TIP3   OH239424   2.287   3.434   5.382  0.2632 -0.5796 -0.1356
 5978TIP3    H139425   2.206   3.386   5.396 -0.3552  0.1541 -1.0429
 5978TIP3    H239426   2.357   3.370   5.396 -0.4672 -1.2352  0.5692
 5979TIP3   OH239427   2.834   2.504   1.853  0.1575 -0.1750 -0.2265
 5979TIP3    H139428   2.787   2.431   1.893 -0.6096  0.1430 -0.5239
 5979TIP3    H239429   2.770   2.575   1.851  1.4776  1.1750  1.9251
 5980TIP3   OH239430   3.781   0.081  14.348 -0.3210 -0.0790 -0.1589
 5980TIP3    H139431   3.786  -0.014  14.332  2.5303 -0.2594  1.0812
 5980TIP3    H239432   3.765   0.088  14.442  2.4252  0.5097  0.3666
 5981TIP3   OH239433   0.481   2.090  14.871  1.0560  0.3932  0.7821
 5981TIP3    H139434   0.517   2.005  14.895 -1.2431 -0.5006  1.3559
 5981TIP3    H239435   0.386   2.078  14.874  0.5688  3.3854  2.5275
 5982TIP3   OH239436   3.510   0.481  16.306 -0.4441 -0.1949 -0.1427
 5982TIP3    H139437   3.517   0.391  16.274 -0.3653 -0.4609  0.5950
 5982TIP3    H239438   3.416   0.499  16.308 -0.4685 -0.3285 -0.1115
 5983TIP3   OH239439   1.541   1.052  14.717 -0.1044  0.0204  0.6177
 5983TIP3    H139440   1.551   0.969  14.763 -0.0930  0.0192  0.6131
 5983TIP3    H239441   1.614   1.106  14.747  2.5534 -1.4079 -2.6050
 5984TIP3   OH239442   2.909   4.957   0.639 -0.9989  0.1341 -0.2581
 5984TIP3    H139443   2.825   5.001   0.653 -0.3164  0.8537  1.8962
 5984TIP3    H239444   2.914   4.945   0.544 -3.1992  0.7129 -0.4992
 5985TIP3   OH239445   3.957   4.620  13.896  0.3013 -0.6385 -0.0229
 5985TIP3    H139446   3.934   4.608  13.804  0.9699  0.9674 -0.4355
 5985TIP3    H239447   3.895   4.687  13.927  0.4351 -0.7735  0.5372
 5986TIP3   OH239448   1.773   4.758  13.006 -0.4781  0.0993  0.3338
 5986TIP3    H139449   1.764   4.854  13.012  1.8949  0.3324  1.9119
 5986TIP3    H239450   1.839   4.745  12.938  0.6801 -0.2074  1.4554
 5987TIP3   OH239451   6.232   1.603  14.981 -0.1698  0.2898 -0.1988
 5987TIP3    H139452   6.292   1.668  14.942  1.3086  0.5310  2.2909
 5987TIP3    H239453   6.153   1.609  14.927  0.7748  2.4819 -1.4990
 5988TIP3   OH239454   1.397   0.179  12.190  0.4048  0.3283 -0.4869
 5988TIP3    H139455   1.483   0.192  12.151  0.7940  0.2552  0.3391
 5988TIP3    H239456   1.337   0.178  12.115  1.1737 -0.1279 -1.1167
 5989TIP3   OH239457   1.177   2.055   0.613 -0.5499 -0.2819  0.3071
 5989TIP3    H139458   1.136   2.067   0.527 -0.1191 -1.4782 -0.0896
 5989TIP3    H239459   1.271   2.054   0.596 -0.4666 -0.7487  0.7435
 5990TIP3   OH239460   5.479   5.389   6.599  0.4883  0.2730  0.2242
 5990TIP3    H139461   5.386   5.408   6.581  0.0419  0.9713  2.7945
 5990TIP3    H239462   5.525   5.466   6.567 -0.0156  0.5796  0.2107
 5991TIP3   OH239463   6.630   1.607  15.966  0.0915 -0.2164  0.6239
 5991TIP3    H139464   6.661   1.545  16.033  0.1051 -1.6088 -0.6319
 5991TIP3    H239465   6.683   1.685  15.980  0.7466 -0.8142  1.6435
 5992TIP3   OH239466   2.631   1.535  15.189  0.3158  0.4445 -0.1157
 5992TIP3    H139467   2.670   1.551  15.103  0.4187 -0.2695 -0.2112
 5992TIP3    H239468   2.680   1.590  15.249  0.4000  0.7678 -0.4830
 5993TIP3   OH239469   0.832   6.715   1.000  0.2362 -0.3332  0.5597
 5993TIP3    H139470   0.782   6.693   0.921  0.9500 -0.7293  0.2117
 5993TIP3    H239471   0.894   6.782   0.971  0.4234 -0.3958  0.8128
 5994TIP3   OH239472   0.624   5.128   2.275  0.0794 -0.2282  0.0063
 5994TIP3    H139473   0.614   5.082   2.359  0.1526 -0.8528 -0.3220
 5994TIP3    H239474   0.535   5.141   2.244 -0.1373  2.4537  1.4552
 5995TIP3   OH239475   6.524   0.848   4.208 -0.3914 -0.4029  0.3797
 5995TIP3    H139476   6.565   0.761   4.203  1.9272  0.4095  3.0151
 5995TIP3    H239477   6.432   0.829   4.226  0.0715 -2.3309  1.0351
 5996TIP3   OH239478   1.416   4.707   4.238 -0.2774 -0.2088 -0.5080
 5996TIP3    H139479   1.321   4.714   4.237 -0.2193  1.3593  0.5654
 5996TIP3    H239480   1.434   4.613   4.229 -1.8092 -0.3127 -3.3463
 5997TIP3   OH239481   5.843   6.353  15.726 -0.3978  0.5655  0.9060
 5997TIP3    H139482   5.862   6.443  15.753 -0.6095  0.8453  0.1320
 5997TIP3    H239483   5.809   6.361  15.637 -1.9501 -0.1273  1.4023
 5998TIP3   OH239484   5.544   2.679  11.476 -0.3602  0.5459  0.1841
 5998TIP3    H139485   5.549   2.772  11.455 -0.8563  0.0942 -2.2148
 5998TIP3    H239486   5.604   2.637  11.414 -2.8321 -1.0323 -1.3230
 5999TIP3   OH239487   3.212   5.945   5.193  0.5002  0.1622  0.2111
 5999TIP3    H139488   3.154   6.010   5.232  0.8466  0.2565  0.5722
 5999TIP3    H239489   3.190   5.947   5.099 -0.3369 -0.0733  0.3969
 6000TIP3   OH239490   5.298   6.107  11.515  0.4186  0.2922 -0.5608
 6000TIP3    H139491   5.371   6.133  11.459 -0.2019 -0.2908 -1.6619
 6000TIP3    H239492   5.221   6.113  11.459  0.0833 -2.7350 -0.5867
 6001TIP3   OH239493   5.171   4.829   4.493  0.2955 -0.0173  0.2577
 6001TIP3    H139494   5.149   4.776   4.416 -2.3097  1.4251 -0.1322
 6001TIP3    H239495   5.115   4.907   4.484  1.6331  1.2754  2.4358
 6002TIP3   OH239496   6.008   5.915  17.126  0.0345  0.5044 -0.4858
 6002TIP3    H139497   6.006   5.982  17.194 -2.0657  0.0326 -0.0332
 6002TIP3    H239498   6.086   5.936  17.075 -0.2814  3.0074 -0.0759
 6003TIP3   OH239499   3.550   3.683   2.995 -0.3047  0.7179  0.0590
 6003TIP3    H139500   3.630   3.696   2.944  0.4531 -0.6327  0.8271
 6003TIP3    H239501   3.503   3.766   2.988  0.3603  0.9740 -1.7794
 6004TIP3   OH239502   6.535   0.910  14.739  0.0750 -0.0563  0.3165
 6004TIP3    H139503   6.521   0.982  14.801 -1.6643  0.8036 -0.9834
 6004TIP3    H239504   6.555   0.834  14.794 -1.5183  0.6411  1.9652
 6005TIP3   OH239505   5.710   0.438  10.839 -0.5280 -0.4349 -0.0283
 6005TIP3    H139506   5.700   0.390  10.756 -0.8717 -1.4836  0.6068
 6005TIP3    H239507   5.771   0.509  10.817 -1.6708  0.1459 -1.5192
 6006TIP3   OH239508   3.044   0.801  12.086 -0.1456 -0.6738  0.1920
 6006TIP3    H139509   3.071   0.819  12.175 -0.4569 -1.5168  0.4734
 6006TIP3    H239510   3.016   0.885  12.051  0.7508 -0.1918  0.6108
 6007TIP3   OH239511   5.667   1.920  12.466  0.1886  0.0196  0.6226
 6007TIP3    H139512   5.756   1.935  12.498  0.4945 -0.6461  0.0947
 6007TIP3    H239513   5.631   2.008  12.455  0.5166  0.2836  1.5427
 6008TIP3   OH239514   2.460   6.810   0.728 -0.0296  0.7427 -0.3421
 6008TIP3    H139515   2.366   6.811   0.745 -0.4739 -0.7103 -2.2825
 6008TIP3    H239516   2.483   6.901   0.708 -0.9198  1.1732  0.5458
 6009TIP3   OH239517   0.795   6.362  12.594  0.2400  0.5699 -0.2806
 6009TIP3    H139518   0.890   6.352  12.583  0.2594  1.6297 -1.1803
 6009TIP3    H239519   0.781   6.353  12.688  1.1925  0.1251 -0.1675
 6010TIP3   OH239520   6.060   4.353   0.867  0.5252 -0.3825 -0.2046
 6010TIP3    H139521   6.039   4.339   0.774 -1.7247  0.7627  0.0549
 6010TIP3    H239522   6.051   4.267   0.907 -1.6575 -0.3725 -0.5589
 6011TIP3   OH239523   5.492   6.442   6.749  0.6356 -0.7375 -0.0451
 6011TIP3    H139524   5.549   6.432   6.825 -1.5014 -1.9361  1.5234
 6011TIP3    H239525   5.456   6.354   6.735 -0.1643 -0.2089 -1.5006
 6012TIP3   OH239526   6.328   3.229  11.751  0.6054 -0.6694  0.3117
 6012TIP3    H139527   6.396   3.277  11.798 -1.1155  1.0675  1.1952
 6012TIP3    H239528   6.273   3.192  11.821  0.6613 -2.1178 -0.3789
 6013TIP3   OH239529   0.668   5.658   3.915  0.1221 -0.0641 -0.3826
 6013TIP3    H139530   0.604   5.612   3.970  0.6826  0.5565  0.8357
 6013TIP3    H239531   0.728   5.699   3.978  0.5459  1.0249 -1.4605
 6014TIP3   OH239532   5.154   4.393  16.801  0.2096 -0.3732 -0.1330
 6014TIP3    H139533   5.226   4.399  16.738 -0.2277  0.2112 -0.5907
 6014TIP3    H239534   5.197   4.376  16.884  0.8950  0.1585 -0.3674
 6015TIP3   OH239535   6.639   1.287  11.791  0.0985  0.0540 -0.3184
 6015TIP3    H139536   6.617   1.194  11.784  1.9669 -0.4126 -0.5545
 6015TIP3    H239537   6.559   1.333  11.765 -0.6372 -1.4920 -0.9009
 6016TIP3   OH239538   1.536   4.024   5.099  0.1047 -0.2198  0.2888
 6016TIP3    H139539   1.547   3.931   5.116  2.4635 -0.5966 -2.4683
 6016TIP3    H239540   1.592   4.068   5.163  0.9496 -0.8993  0.0325
 6017TIP3   OH239541   0.153   0.569  13.681  0.0174  0.5281  0.2253
 6017TIP3    H139542   0.143   0.615  13.597  0.4140  1.0701  0.4693
 6017TIP3    H239543   0.244   0.583  13.705 -0.4883  1.7755  1.5506
 6018TIP3   OH239544   5.744   1.000   5.296  0.9930 -0.1283  0.2206
 6018TIP3    H139545   5.654   1.022   5.317  1.0782 -0.3394  0.8210
 6018TIP3    H239546   5.737   0.933   5.227  0.6680 -0.9314  1.0242
 6019TIP3   OH239547   5.449   1.004   0.602  0.1267 -0.1913 -0.0979
 6019TIP3    H139548   5.416   1.019   0.513 -0.2282 -0.7978 -0.0745
 6019TIP3    H239549   5.453   0.909   0.611 -2.2086 -0.2336  1.3638
 6020TIP3   OH239550   5.912   4.583  16.122  0.1373  0.6861  0.4065
 6020TIP3    H139551   5.974   4.642  16.166  0.1459  1.1869 -0.2603
 6020TIP3    H239552   5.847   4.562  16.189  1.1861 -0.0903  1.2073
 6021TIP3   OH239553   2.542   6.750  11.775 -0.1450 -0.1892 -0.0743
 6021TIP3    H139554   2.591   6.671  11.751 -1.5433 -1.1858  0.1954
 6021TIP3    H239555   2.604   6.802  11.826  0.5614 -1.4896  0.4371
 6022TIP3   OH239556   0.629   3.425  16.464 -0.2250  0.1491  0.0725
 6022TIP3    H139557   0.712   3.407  16.507  0.0938  0.0982 -0.5563
 6022TIP3    H239558   0.585   3.340  16.459 -0.7680  0.3361  1.3131
 6023TIP3   OH239559   0.983   2.335   0.181 -0.5237  0.0207  0.2962
 6023TIP3    H139560   1.052   2.296   0.234 -0.5412  0.1114  0.3848
 6023TIP3    H239561   0.914   2.359   0.243 -0.2880  0.6776  0.3091
 6024TIP3   OH239562   3.420   2.770  15.481 -0.2513 -0.3738  0.0197
 6024TIP3    H139563   3.353   2.724  15.429 -1.1717 -0.6166  1.3646
 6024TIP3    H239564   3.410   2.862  15.456 -0.8832 -0.4498 -0.0312
 6025TIP3   OH239565   5.886   0.834   0.196  0.1060  0.5160  0.7337
 6025TIP3    H139566   5.847   0.748   0.177 -0.2876  0.7204  0.5964
 6025TIP3    H239567   5.955   0.844   0.131  0.3811  0.1548  0.9678
 6026TIP3   OH239568   1.805   0.399  11.669 -0.6535  0.2298 -0.5435
 6026TIP3    H139569   1.720   0.372  11.704 -0.6942 -0.6165 -1.2488
 6026TIP3    H239570   1.864   0.397  11.744 -1.0781  0.0085 -0.2145
 6027TIP3   OH239571   0.076   1.385  10.396 -0.1036  0.1980  0.0960
 6027TIP3    H139572   0.094   1.297  10.428  0.4861  0.4286  0.4186
 6027TIP3    H239573   0.162   1.421  10.374 -0.4009  0.4342 -0.7257
 6028TIP3   OH239574   4.581   4.498  11.958  0.4925  0.2803 -0.5512
 6028TIP3    H139575   4.595   4.413  12.000 -0.1266  0.2752 -0.3439
 6028TIP3    H239576   4.486   4.508  11.956  0.5397  0.6319 -1.2567
 6029TIP3   OH239577   0.790   1.809  12.269 -0.3122  0.5322  0.0806
 6029TIP3    H139578   0.788   1.898  12.306 -3.4564  0.8872 -0.6476
 6029TIP3    H239579   0.726   1.812  12.197 -1.4765 -2.6131  0.8374
 6030TIP3   OH239580   3.808   5.147  10.493 -0.0398 -0.8392  0.5701
 6030TIP3    H139581   3.829   5.054  10.483  2.2009 -0.5055  1.6567
 6030TIP3    H239582   3.814   5.183  10.405  3.1753 -1.0145  0.5948
 6031TIP3   OH239583   1.372   1.286  11.734  0.0985 -0.9139 -0.1857
 6031TIP3    H139584   1.305   1.279  11.801 -0.6550  0.7979 -0.6922
 6031TIP3    H239585   1.412   1.373  11.748  0.8753 -1.1052 -1.0817
 6032TIP3   OH239586   1.497   4.197   4.156 -0.0847 -0.6185 -0.5737
 6032TIP3    H139587   1.459   4.267   4.210  0.9286  1.4476 -2.3477
 6032TIP3    H239588   1.590   4.197   4.180 -0.0702 -1.3342 -0.6323
 6033TIP3   OH239589   0.542   4.466  13.468  0.6557 -0.3221  0.2049
 6033TIP3    H139590   0.588   4.504  13.543  1.5448  0.2307 -0.5942
 6033TIP3    H239591   0.542   4.536  13.403  1.8292 -1.4805 -1.0947
 6034TIP3   OH239592   3.460   2.244   5.358 -0.5820 -0.3053 -0.5950
 6034TIP3    H139593   3.458   2.307   5.285 -0.7999  0.2859 -0.0918
 6034TIP3    H239594   3.368   2.235   5.383 -0.5721 -0.9860 -0.7896
 6035TIP3   OH239595   1.336   2.524   2.131 -0.2660 -0.2245  0.1233
 6035TIP3    H139596   1.331   2.537   2.226  0.5838 -3.0088  0.6601
 6035TIP3    H239597   1.428   2.541   2.110 -0.8198  2.1654 -0.5907
 6036TIP3   OH239598   6.692   5.206  13.884 -0.2628  0.4176 -0.5380
 6036TIP3    H139599   6.674   5.174  13.795 -1.4600 -0.3513 -0.0352
 6036TIP3    H239600   6.681   5.301  13.877 -2.1660  0.2212 -0.8394
 6037TIP3   OH239601   5.753   1.113  17.049  0.3260  0.4456 -0.2659
 6037TIP3    H139602   5.732   1.028  17.012 -0.5147  0.3930  0.2902
 6037TIP3    H239603   5.842   1.104  17.082  0.5867  0.0831 -1.0585
 6038TIP3   OH239604   3.730   0.629   0.739 -0.2761  0.0901 -0.2949
 6038TIP3    H139605   3.678   0.699   0.699 -0.5957  0.3418  0.5517
 6038TIP3    H239606   3.788   0.674   0.800  0.0132 -0.3222 -0.2605
 6039TIP3   OH239607   6.320   6.067   4.024  0.2545 -0.0460 -0.0429
 6039TIP3    H139608   6.246   6.033   3.974 -0.2137  0.1766  0.4909
 6039TIP3    H239609   6.280   6.118   4.095  0.9352  1.7823 -0.9212
 6040TIP3   OH239610   4.984   3.897  12.850  0.1393 -0.2303  0.2215
 6040TIP3    H139611   5.052   3.863  12.909 -0.2284 -0.7638  0.3447
 6040TIP3    H239612   4.930   3.954  12.906 -0.2615 -0.8052  0.4332
 6041TIP3   OH239613   0.464   4.313  16.447 -0.1176 -0.4895 -0.7610
 6041TIP3    H139614   0.455   4.218  16.450  0.6715 -0.5676 -0.5070
 6041TIP3    H239615   0.548   4.331  16.490  0.1708  0.2514 -1.5869
 6042TIP3   OH239616   1.191   0.574  14.134 -0.6207 -0.4226  0.0853
 6042TIP3    H139617   1.103   0.550  14.163 -1.4095  1.8566 -0.2244
 6042TIP3    H239618   1.186   0.570  14.038 -0.5534  0.2288  0.0528
 6043TIP3   OH239619   2.742   0.441  12.791 -0.4432  0.2223  0.2465
 6043TIP3    H139620   2.682   0.480  12.727 -2.3163 -0.9500  1.1876
 6043TIP3    H239621   2.822   0.424  12.742 -2.0863 -1.4163 -2.0735
 6044TIP3   OH239622   2.947   4.197  16.774  0.1562  0.2334  0.0422
 6044TIP3    H139623   2.938   4.270  16.712 -1.5254 -2.0800 -2.6367
 6044TIP3    H239624   3.026   4.151  16.745  1.6416  1.2365  2.1802
 6045TIP3   OH239625   6.630   6.784   0.364  0.0392 -0.7097  0.5485
 6045TIP3    H139626   6.631   6.869   0.320  0.3071 -0.0718  1.7361
 6045TIP3    H239627   6.628   6.805   0.458 -0.5887 -2.0171  0.8544
 6046TIP3   OH239628   4.592   0.712  17.186 -0.3478  0.1064 -0.2794
 6046TIP3    H139629   4.662   0.659  17.150  0.8023  1.7561 -0.5925
 6046TIP3    H239630   4.550   0.656  17.252  0.1750 -1.4800 -1.2490
 6047TIP3   OH239631   2.752   6.628  12.947 -0.7883 -0.4596  0.1805
 6047TIP3    H139632   2.762   6.723  12.953 -2.1383 -0.2871  0.0969
 6047TIP3    H239633   2.722   6.602  13.034  1.0077 -1.0425  0.6703
 6048TIP3   OH239634   3.008   1.983  15.132 -0.3876 -0.3285  0.4328
 6048TIP3    H139635   3.013   1.975  15.037 -0.6941 -0.5887  0.4356
 6048TIP3    H239636   2.930   1.933  15.156 -0.6677  0.2499  0.7605
 6049TIP3   OH239637   1.061   2.758   2.120  0.0890 -0.0740  0.4297
 6049TIP3    H139638   1.136   2.814   2.139  1.1833 -2.1866  3.1343
 6049TIP3    H239639   1.010   2.759   2.201 -0.3926 -2.0678  0.2132
 6050TIP3   OH239640   4.454   1.678  11.577  0.8580  0.1736 -0.7432
 6050TIP3    H139641   4.536   1.656  11.622  0.0596 -1.4936 -0.0209
 6050TIP3    H239642   4.390   1.687  11.647 -0.2325 -1.6598 -1.4569
 6051TIP3   OH239643   0.433   6.279  10.847 -0.4594 -0.4260 -0.3755
 6051TIP3    H139644   0.418   6.221  10.773  0.0713 -0.8374 -0.1725
 6051TIP3    H239645   0.397   6.364  10.820 -0.0253 -0.4996 -1.2082
 6052TIP3   OH239646   2.786   3.549   2.447  0.3014  0.1427 -0.3310
 6052TIP3    H139647   2.754   3.637   2.428  0.6233  0.0887 -1.1541
 6052TIP3    H239648   2.880   3.561   2.462  0.1847  0.0730  0.5300
 6053TIP3   OH239649   3.618   6.758  13.964 -0.4603  0.5258  0.3049
 6053TIP3    H139650   3.697   6.776  13.913  0.6766 -2.9373  0.5824
 6053TIP3    H239651   3.650   6.711  14.041 -2.6413  0.8857  1.5128
 6054TIP3   OH239652   3.247   4.066  16.362 -0.3952 -0.0247 -0.4301
 6054TIP3    H139653   3.332   4.042  16.400  0.1128  0.7826 -1.0099
 6054TIP3    H239654   3.260   4.155  16.329 -1.5901  0.2612 -0.1957
 6055TIP3   OH239655   6.521   5.127  11.715 -0.2253 -0.0799 -0.4423
 6055TIP3    H139656   6.604   5.174  11.723 -1.5399  2.0944  1.8242
 6055TIP3    H239657   6.519   5.098  11.624  0.6382  4.6217 -2.2434
 6056TIP3   OH239658   1.760   1.767  12.176 -0.4483 -0.5590  0.3235
 6056TIP3    H139659   1.831   1.782  12.114 -0.3973 -0.1829  0.4731
 6056TIP3    H239660   1.686   1.741  12.121 -0.4495 -0.0637  0.0859
 6057TIP3   OH239661   3.877   1.615   5.196  0.1980  0.1452  0.5271
 6057TIP3    H139662   3.861   1.700   5.237 -0.1401  0.5128 -0.3486
 6057TIP3    H239663   3.842   1.551   5.259 -0.8165  0.7259  0.5824
 6058TIP3   OH239664   6.242   4.997   1.816  0.1643 -0.1728 -0.0190
 6058TIP3    H139665   6.230   5.006   1.722  0.9972  0.8683 -0.0477
 6058TIP3    H239666   6.160   4.959   1.848 -0.0075 -0.8150 -1.1904
 6059TIP3   OH239667   1.688   6.795   4.755  0.3735  0.2129  1.0101
 6059TIP3    H139668   1.770   6.838   4.732  0.3142  1.2735  2.6215
 6059TIP3    H239669   1.704   6.702   4.734  0.7251  0.8386 -1.8854
 6060TIP3   OH239670   1.241   5.087   0.634 -0.1413  0.6956 -0.0290
 6060TIP3    H139671   1.199   5.005   0.660  0.6961  0.2629 -0.0128
 6060TIP3    H239672   1.319   5.060   0.586  0.7619  1.4679  0.9581
 6061TIP3   OH239673   2.660   4.784   5.037  0.4133  0.0482  0.2854
 6061TIP3    H139674   2.653   4.688   5.036 -2.6386  0.1375  1.3094
 6061TIP3    H239675   2.672   4.806   5.129  2.7477  0.6643 -0.1133
 6062TIP3   OH239676   0.417   1.558  12.054 -0.2226 -0.1333  0.3359
 6062TIP3    H139677   0.511   1.554  12.038 -0.5051 -0.0881 -1.5604
 6062TIP3    H239678   0.383   1.613  11.983 -1.7168 -0.5214  0.7251
 6063TIP3   OH239679   1.749   5.338  15.385 -0.2531 -0.1192  0.0972
 6063TIP3    H139680   1.799   5.370  15.460 -0.3698 -0.0310  0.1378
 6063TIP3    H239681   1.801   5.265  15.351 -0.9780 -1.1649  1.1980
 6064TIP3   OH239682   2.848   6.148  14.816  0.0243 -0.4436  0.0892
 6064TIP3    H139683   2.920   6.089  14.793  0.4240  0.3095 -0.6253
 6064TIP3    H239684   2.779   6.127  14.754 -0.1980 -0.8136  0.4524
 6065TIP3   OH239685   3.724   6.697   0.569 -0.6203  0.5220  0.2145
 6065TIP3    H139686   3.744   6.791   0.571 -0.7070  0.5982 -1.1993
 6065TIP3    H239687   3.683   6.684   0.483  0.4509 -1.0175 -0.0842
 6066TIP3   OH239688   5.271   3.961  15.993  0.3000 -0.1971 -0.4686
 6066TIP3    H139689   5.334   4.008  16.047  1.2087 -0.5507 -1.1911
 6066TIP3    H239690   5.185   3.985  16.029  0.8051  0.9376  0.0053
 6067TIP3   OH239691   0.507   5.689  15.328 -0.3438 -0.0177 -0.0650
 6067TIP3    H139692   0.523   5.599  15.300 -1.7214 -0.4033  0.3082
 6067TIP3    H239693   0.510   5.685  15.423  1.5449  0.7395 -0.0627
 6068TIP3   OH239694   5.846   4.977   5.210 -0.4804  0.0060 -0.0588
 6068TIP3    H139695   5.928   5.025   5.199  0.8463 -2.2901 -0.8696
 6068TIP3    H239696   5.872   4.894   5.250 -2.6979  0.0085  1.5554
 6069TIP3   OH239697   1.827   5.168   2.128 -0.7664  0.2137  0.3539
 6069TIP3    H139698   1.738   5.193   2.152 -1.0714  0.0660 -0.5747
 6069TIP3    H239699   1.817   5.088   2.076  0.0428 -0.7631  1.6222
 6070TIP3   OH239700   4.533   3.869  16.629  0.0029  0.3726  0.1886
 6070TIP3    H139701   4.461   3.929  16.647 -1.0118 -1.2909  2.1763
 6070TIP3    H239702   4.490   3.783  16.620  1.7246 -0.8480  2.4795
 6071TIP3   OH239703   3.287   6.231   2.795  0.2457 -0.0959  0.8192
 6071TIP3    H139704   3.272   6.323   2.774  0.8050  0.3398  2.1855
 6071TIP3    H239705   3.296   6.230   2.891  2.1424 -1.2837  0.6789
 6072TIP3   OH239706   2.927   4.216  17.043  0.2474 -0.4121 -0.1953
 6072TIP3    H139707   2.844   4.263  17.049  0.6892  0.2352  1.2287
 6072TIP3    H239708   2.935   4.194  16.950 -1.0652  0.3420 -0.5129
 6073TIP3   OH239709   1.060   6.123   2.026  0.1991  0.2831 -0.1102
 6073TIP3    H139710   1.045   6.199   2.083  0.3775 -0.4353  0.9203
 6073TIP3    H239711   1.148   6.138   1.990  0.4783  0.2832  0.5515
 6074TIP3   OH239712   1.567   4.395   5.447 -0.2187 -0.1501 -0.6427
 6074TIP3    H139713   1.556   4.311   5.490  2.9040  0.5238  1.9201
 6074TIP3    H239714   1.615   4.375   5.367  0.5153 -0.8660 -0.0471
 6075TIP3   OH239715   2.790   1.034  12.605  0.4114 -0.4043 -0.4550
 6075TIP3    H139716   2.696   1.044  12.621  0.7969  2.2605  0.5565
 6075TIP3    H239717   2.796   1.008  12.513 -1.2963 -0.0515 -0.6945
 6076TIP3   OH239718   1.362   4.865   2.512  0.0904 -0.6031  0.3800
 6076TIP3    H139719   1.316   4.900   2.589 -0.1117 -1.8679  0.8764
 6076TIP3    H239720   1.342   4.771   2.514 -1.4862 -0.4404 -2.2912
 6077TIP3   OH239721   2.573   0.976  15.675  0.2779  0.0724  0.5246
 6077TIP3    H139722   2.651   1.029  15.692 -0.2445  0.6825  1.0409
 6077TIP3    H239723   2.505   1.014  15.731 -0.4315 -0.3588 -0.0289
 6078TIP3   OH239724   4.792   5.864  15.111 -0.3313  0.3998 -0.0721
 6078TIP3    H139725   4.709   5.817  15.099  0.2303 -0.4437 -0.7818
 6078TIP3    H239726   4.774   5.953  15.081 -1.0522  0.2841  0.0075
 6079TIP3   OH239727   5.282   4.881   6.344 -0.0480  0.7951 -0.1283
 6079TIP3    H139728   5.349   4.817   6.369 -0.4851 -0.1560 -1.3004
 6079TIP3    H239729   5.323   4.966   6.361  0.3420  0.2398  2.0004
 6080TIP3   OH239730   0.088   2.818   3.993  0.2765 -0.1214  0.1169
 6080TIP3    H139731  -0.007   2.809   4.000  0.1420  1.0109 -0.0973
 6080TIP3    H239732   0.108   2.791   3.903 -0.2328  2.3776 -0.8252
 6081TIP3   OH239733   3.582   6.458   1.393  0.1203  0.3489 -0.0062
 6081TIP3    H139734   3.488   6.448   1.382  0.2216 -0.7095 -0.0179
 6081TIP3    H239735   3.591   6.508   1.474 -0.4659  1.9260 -0.8664
 6082TIP3   OH239736   4.914   1.199  14.368 -0.4023  0.6094  0.6109
 6082TIP3    H139737   4.921   1.139  14.294 -2.3265 -2.3706  2.6478
 6082TIP3    H239738   5.005   1.211  14.398  0.2219  0.4964 -1.1414
 6083TIP3   OH239739   2.954   2.300  14.420 -0.2833  0.4175  0.0087
 6083TIP3    H139740   3.013   2.278  14.492  0.8920  2.5046 -0.2553
 6083TIP3    H239741   2.924   2.215  14.388  1.3433 -0.6654  1.1658
 6084TIP3   OH239742   1.837   3.274  14.296 -0.0217  0.1373 -0.3131
 6084TIP3    H139743   1.784   3.264  14.218  0.0773  1.8051 -0.6359
 6084TIP3    H239744   1.779   3.317  14.359  0.6172  1.0549 -0.3291
 6085TIP3   OH239745   5.418   1.400  11.142  0.2309  0.3804  0.4935
 6085TIP3    H139746   5.487   1.439  11.089 -0.1716 -1.1726 -1.2587
 6085TIP3    H239747   5.336   1.432  11.104 -0.0676 -0.8657  0.0542
 6086TIP3   OH239748   0.956   0.555  10.258  0.0565  0.2516  0.5687
 6086TIP3    H139749   0.989   0.598  10.337 -1.2669  1.7470  0.3419
 6086TIP3    H239750   0.882   0.503  10.289  0.8853 -0.9405  0.6328
 6087TIP3   OH239751   4.972   0.986   4.695  0.0326 -0.0181  0.3552
 6087TIP3    H139752   4.987   0.966   4.787 -0.4405 -0.6176  0.3075
 6087TIP3    H239753   4.945   0.903   4.656 -0.3586  0.3566 -0.1940
 6088TIP3   OH239754   1.137   5.359  14.145 -0.2713  0.2045  0.2457
 6088TIP3    H139755   1.167   5.406  14.223 -0.3027  1.4551 -0.4660
 6088TIP3    H239756   1.051   5.396  14.126 -0.1328  0.1338 -0.5565
 6089TIP3   OH239757   0.452   0.859  15.492  0.1249 -0.6934 -0.5113
 6089TIP3    H139758   0.446   0.871  15.398  0.8904 -1.2239 -0.6438
 6089TIP3    H239759   0.433   0.766  15.505  1.2458 -0.9004 -0.2817
 6090TIP3   OH239760   1.538   4.312  13.919  0.1355 -0.8922  0.5661
 6090TIP3    H139761   1.516   4.401  13.947  1.7422  0.0887 -1.0630
 6090TIP3    H239762   1.459   4.281  13.874 -0.4248 -0.2796  1.1124
 6091TIP3   OH239763   4.000   0.197  12.088 -0.2606 -0.3316  0.1501
 6091TIP3    H139764   3.938   0.226  12.021 -2.5818 -0.0468  2.2717
 6091TIP3    H239765   3.983   0.254  12.163  3.3985  0.5029  0.5589
 6092TIP3   OH239766   4.618   1.249  15.826  0.4846  0.5152 -0.4398
 6092TIP3    H139767   4.573   1.172  15.793  2.7246 -2.1563  2.1834
 6092TIP3    H239768   4.580   1.322  15.777 -2.7621 -2.0291 -2.0962
 6093TIP3   OH239769   0.210   3.753  11.631 -0.3702 -0.0510 -0.6126
 6093TIP3    H139770   0.269   3.796  11.693  1.8457 -1.6631 -1.4823
 6093TIP3    H239771   0.133   3.810  11.628  0.0262  0.8508  2.4698
 6094TIP3   OH239772   3.353   5.933  15.945  0.1691 -0.0708  0.0365
 6094TIP3    H139773   3.308   5.848  15.942  1.4175 -0.7474 -0.2200
 6094TIP3    H239774   3.287   5.996  15.915 -1.0607 -0.8107  1.0785
 6095TIP3   OH239775   5.747   0.144   4.974  0.4161  0.2404  0.9106
 6095TIP3    H139776   5.834   0.112   4.998  0.6452  1.3359  1.5907
 6095TIP3    H239777   5.763   0.223   4.924 -0.1929  0.5855  1.2467
 6096TIP3   OH239778   2.202   1.757   0.209  0.1936 -0.3381  0.3385
 6096TIP3    H139779   2.141   1.687   0.187  0.4415 -0.4488 -0.0121
 6096TIP3    H239780   2.162   1.836   0.173  0.0322 -0.3398  0.5170
 6097TIP3   OH239781   4.848   6.607  13.279 -0.4890  0.8019 -0.6759
 6097TIP3    H139782   4.930   6.657  13.285 -0.7678  1.2978 -0.9949
 6097TIP3    H239783   4.780   6.673  13.266 -0.9848  0.4162 -0.1095
 6098TIP3   OH239784   0.724   4.399  11.407  0.1811 -0.1942 -0.6053
 6098TIP3    H139785   0.780   4.396  11.330  1.9573 -0.8645  0.6379
 6098TIP3    H239786   0.717   4.308  11.435 -0.0639  0.0806  0.2593
 6099TIP3   OH239787   2.391   5.347  12.816 -0.0271  0.1090  0.0414
 6099TIP3    H139788   2.400   5.416  12.881  0.7322 -0.3144  0.3850
 6099TIP3    H239789   2.470   5.354  12.762  0.5334 -1.1154  0.6800
 6100TIP3   OH239790   3.083   2.290   3.069  0.9147 -0.4942 -0.0952
 6100TIP3    H139791   3.056   2.301   3.160  0.3270 -1.2360 -0.1769
 6100TIP3    H239792   3.124   2.204   3.066 -0.9702 -1.4157 -0.9628
 6101TIP3   OH239793   1.225   1.967  11.306 -0.4029 -0.0202 -0.1411
 6101TIP3    H139794   1.140   2.011  11.300 -0.8458 -0.5847  1.3676
 6101TIP3    H239795   1.266   2.006  11.383  0.7825  0.3390 -0.9404
 6102TIP3   OH239796   5.689   0.117   5.411  0.1800  0.6401 -0.0608
 6102TIP3    H139797   5.719   0.202   5.378  2.4170  0.2316  0.7104
 6102TIP3    H239798   5.639   0.138   5.489 -0.5912  1.3188 -0.7236
 6103TIP3   OH239799   5.705   6.232   2.053  0.3240 -0.2331  0.1709
 6103TIP3    H139800   5.734   6.180   2.128 -0.3687  1.0564  1.3902
 6103TIP3    H239801   5.732   6.321   2.075  2.3543 -0.1138 -2.2921
 6104TIP3   OH239802   5.263   4.967   4.715  0.0931 -0.1502 -0.1797
 6104TIP3    H139803   5.243   4.896   4.776  0.0716 -1.0828 -1.2442
 6104TIP3    H239804   5.228   4.937   4.631 -1.2860  1.8012 -0.3513
 6105TIP3   OH239805   0.554   0.982  10.411 -0.0132 -0.9530 -0.1805
 6105TIP3    H139806   0.552   0.913  10.345 -0.1350 -3.2587  2.0672
 6105TIP3    H239807   0.592   0.940  10.489  0.8297  1.8132  1.0424
 6106TIP3   OH239808   0.274   0.748  10.687 -0.2388  0.6321 -0.1149
 6106TIP3    H139809   0.211   0.819  10.681  1.1588  1.8165 -1.4683
 6106TIP3    H239810   0.345   0.783  10.740  0.0802 -0.0506 -0.0819
 6107TIP3   OH239811   0.881   3.558  15.308 -0.7457  0.3833 -0.0150
 6107TIP3    H139812   0.843   3.557  15.221 -0.4569  0.6555 -0.1483
 6107TIP3    H239813   0.923   3.473  15.318  1.8961  1.4015 -1.3597
 6108TIP3   OH239814   2.510   3.909  11.621  0.1309  0.2055 -0.0183
 6108TIP3    H139815   2.604   3.892  11.617  0.2015 -0.1903  1.9149
 6108TIP3    H239816   2.470   3.822  11.619 -0.1142  0.3098  0.2327
 6109TIP3   OH239817   6.779   6.576   4.243 -0.0115 -0.0401 -0.0174
 6109TIP3    H139818   6.721   6.652   4.250  2.8341  2.4774 -1.3931
 6109TIP3    H239819   6.851   6.595   4.303  1.3862 -1.0190 -1.3086
 6110TIP3   OH239820   1.379   2.824   5.342 -0.5814 -0.1747  0.6574
 6110TIP3    H139821   1.400   2.895   5.402 -1.0083 -0.6159  1.3423
 6110TIP3    H239822   1.287   2.838   5.319 -0.2535  0.3681 -0.4353
 6111TIP3   OH239823   2.703   5.712  17.070  0.4216 -0.3524 -0.6402
 6111TIP3    H139824   2.705   5.776  17.142 -0.2800 -0.0821 -0.8547
 6111TIP3    H239825   2.771   5.742  17.010  2.6941 -1.8822  0.9688
 6112TIP3   OH239826   6.758   6.661   3.232 -0.7013 -0.5777 -0.3120
 6112TIP3    H139827   6.819   6.616   3.174 -1.9472 -1.6650 -0.8133
 6112TIP3    H239828   6.734   6.596   3.298  0.9013  0.7177  1.6581
 6113TIP3   OH239829   3.135   6.802   5.701  0.0624 -1.0628 -0.0125
 6113TIP3    H139830   3.124   6.853   5.781 -0.4719  1.0492 -1.3272
 6113TIP3    H239831   3.047   6.771   5.680 -0.8118  2.2861 -2.0845
 6114TIP3   OH239832   6.318   2.014   1.175 -0.3437 -0.7640  0.4091
 6114TIP3    H139833   6.380   2.048   1.239  0.0373  0.7084 -0.6698
 6114TIP3    H239834   6.363   1.941   1.133  0.3800 -0.1845  0.1572
 6115TIP3   OH239835   4.658   4.493   4.427  0.1171  0.0510  0.0812
 6115TIP3    H139836   4.726   4.543   4.472 -1.9755  0.8359  2.6028
 6115TIP3    H239837   4.656   4.408   4.471 -0.6348  0.1157  0.1965
 6116TIP3   OH239838   3.564   4.035  11.607  0.3874  0.1522  0.2723
 6116TIP3    H139839   3.587   4.089  11.682 -0.5621 -0.5313  1.0741
 6116TIP3    H239840   3.475   4.004  11.626 -0.1911  0.6037 -1.4946
 6117TIP3   OH239841   1.794   2.549  12.068  0.5104 -0.1619 -0.3066
 6117TIP3    H139842   1.860   2.496  12.023  0.0399  0.1406 -1.3889
 6117TIP3    H239843   1.830   2.637  12.068  0.1603 -0.0091 -0.8366
 6118TIP3   OH239844   3.671   0.946  13.241 -0.3426  0.3827 -0.3562
 6118TIP3    H139845   3.615   0.893  13.184 -1.5802 -0.2877  1.4023
 6118TIP3    H239846   3.615   1.018  13.270 -0.1488  0.0199  0.9800
 6119TIP3   OH239847   0.181   0.625   1.418  0.7041 -0.7165 -0.0870
 6119TIP3    H139848   0.089   0.638   1.441  0.4880 -3.3611  0.8776
 6119TIP3    H239849   0.190   0.662   1.331 -1.0497  0.3526  0.1423
 6120TIP3   OH239850   2.476   3.993   3.596  0.0632  0.1759  0.5001
 6120TIP3    H139851   2.525   4.033   3.668 -0.1289 -0.7098  1.1424
 6120TIP3    H239852   2.538   3.991   3.523 -0.1937  2.4164  0.1617
 6121TIP3   OH239853   0.948   2.324   0.712 -0.8638  0.1987  0.3066
 6121TIP3    H139854   0.915   2.296   0.627 -0.4366 -1.0550  0.5286
 6121TIP3    H239855   0.936   2.248   0.769 -2.9008  1.6223  1.8980
 6122TIP3   OH239856   2.505   2.459  11.850 -0.6176  0.4179  0.2643
 6122TIP3    H139857   2.466   2.387  11.900 -0.0822  0.2919  0.5135
 6122TIP3    H239858   2.572   2.417  11.795 -1.5699  0.4790 -0.9796
 6123TIP3   OH239859   0.761   4.186  11.848  0.8613 -0.0051 -0.3962
 6123TIP3    H139860   0.797   4.201  11.760 -0.2755 -1.2487 -1.1240
 6123TIP3    H239861   0.835   4.154  11.899  0.9785 -2.1450 -1.7443
 6124TIP3   OH239862   5.704   1.259   3.771  0.2058  0.1737  0.6307
 6124TIP3    H139863   5.759   1.183   3.788 -1.6698 -1.1051  1.2315
 6124TIP3    H239864   5.719   1.280   3.679  0.9195 -0.7691  0.5237
 6125TIP3   OH239865   5.851   5.043  12.326  0.3986 -0.0628  0.6727
 6125TIP3    H139866   5.898   4.959  12.328  0.6306 -0.0286 -1.1790
 6125TIP3    H239867   5.844   5.063  12.233 -0.5253  1.5051  1.0577
 6126TIP3   OH239868   1.423   1.084   3.308 -0.4616 -0.4743 -0.0604
 6126TIP3    H139869   1.477   1.142   3.362  0.8309 -0.9406 -0.8059
 6126TIP3    H239870   1.341   1.075   3.356  0.6743 -0.9643  1.8751
 6127TIP3   OH239871   1.572   2.983   2.164  0.8106 -0.0876 -0.0843
 6127TIP3    H139872   1.521   2.990   2.245 -0.9910 -0.1671 -1.1580
 6127TIP3    H239873   1.630   3.059   2.166 -1.6884  1.9472 -0.3209
 6128TIP3   OH239874   6.552   0.757   5.281  0.3495  0.0876 -0.2058
 6128TIP3    H139875   6.637   0.712   5.281  0.0976 -0.3905 -0.3893
 6128TIP3    H239876   6.568   0.838   5.233  0.4695 -0.4390 -1.0658
 6129TIP3   OH239877   6.201   0.289   5.056  0.0466 -0.5193  0.4778
 6129TIP3    H139878   6.146   0.244   4.993 -1.0072  1.3884 -0.0111
 6129TIP3    H239879   6.250   0.353   5.005 -0.7621  0.9992  1.5447
 6130TIP3   OH239880   5.850   0.162  12.385 -0.1459 -0.3549 -0.8146
 6130TIP3    H139881   5.942   0.186  12.375 -0.2796 -0.1257 -1.5026
 6130TIP3    H239882   5.831   0.107  12.309 -0.3909 -0.9810 -0.3086
 6131TIP3   OH239883   4.231   3.282  16.171  0.5150  0.1118 -0.1588
 6131TIP3    H139884   4.318   3.315  16.148  0.3256  1.8583  1.3747
 6131TIP3    H239885   4.245   3.189  16.188  1.8726  0.1399 -0.9176
 6132TIP3   OH239886   1.608   0.513  14.730 -0.0828 -0.4624 -0.4906
 6132TIP3    H139887   1.533   0.493  14.674 -0.1479 -0.7221 -0.3111
 6132TIP3    H239888   1.667   0.563  14.674 -0.0112 -0.9809 -0.8864
 6133TIP3   OH239889   4.151   6.663  13.693 -0.0885 -0.1710 -0.7659
 6133TIP3    H139890   4.137   6.737  13.752  2.8462  2.2315 -2.8029
 6133TIP3    H239891   4.079   6.669  13.630 -0.9334 -0.2862  0.1553
 6134TIP3   OH239892   6.588   2.893  10.676  0.1206  0.3233  0.4591
 6134TIP3    H139893   6.577   2.839  10.597 -1.8176 -0.0541  0.9423
 6134TIP3    H239894   6.559   2.980  10.649 -1.0765  0.0710  0.8654
 6135TIP3   OH239895   1.685   0.183  15.251  0.4766  0.4442 -0.2555
 6135TIP3    H139896   1.734   0.158  15.172 -0.0316  1.1711 -0.8206
 6135TIP3    H239897   1.593   0.172  15.226  0.3051 -2.2032  1.2292
 6136TIP3   OH239898   6.135   4.530   2.579  0.2075  0.2889 -0.2470
 6136TIP3    H139899   6.158   4.554   2.669 -0.5183  2.8375 -0.6559
 6136TIP3    H239900   6.041   4.542   2.574  0.3772  1.2741 -1.6105
 6137TIP3   OH239901   1.393   6.081  15.958 -0.3933 -0.1706 -0.2234
 6137TIP3    H139902   1.463   6.143  15.938  0.8504 -1.5483 -0.3363
 6137TIP3    H239903   1.362   6.107  16.045  1.4148 -0.5134  0.5609
 6138TIP3   OH239904   1.597   4.475  12.738 -0.1069  0.0366 -0.5261
 6138TIP3    H139905   1.546   4.444  12.663  1.2448  0.8817 -1.8409
 6138TIP3    H239906   1.688   4.474  12.708  0.6378 -0.8654  1.5587
 6139TIP3   OH239907   2.859   0.576  13.709  0.0196 -0.4958 -0.1052
 6139TIP3    H139908   2.954   0.565  13.710  0.1305 -0.3399 -2.3088
 6139TIP3    H239909   2.845   0.670  13.716  0.3589  0.0015 -3.7600
 6140TIP3   OH239910   5.925   1.565   2.941  0.1421 -0.3329 -0.6547
 6140TIP3    H139911   5.992   1.608   2.888  0.2751 -1.2871 -1.3070
 6140TIP3    H239912   5.942   1.471   2.928 -0.0856 -0.5834  0.7726
 6141TIP3   OH239913   4.684   0.758   4.412 -0.1717 -0.1736  0.5413
 6141TIP3    H139914   4.637   0.746   4.329 -0.7899 -0.9365  0.9885
 6141TIP3    H239915   4.615   0.777   4.476 -0.0688 -2.4946  1.4521
 6142TIP3   OH239916   6.426   2.246  15.678  0.1425 -0.2848 -0.4551
 6142TIP3    H139917   6.414   2.200  15.761 -0.4973 -1.6653 -1.2572
 6142TIP3    H239918   6.487   2.191  15.629  1.0170  0.8531 -0.6569
 6143TIP3   OH239919   1.117   2.672  12.877 -0.4821  0.3050 -0.3005
 6143TIP3    H139920   1.199   2.645  12.919 -1.3382  0.1687  1.3350
 6143TIP3    H239921   1.140   2.754  12.832  0.7860 -0.2580 -0.7478
 6144TIP3   OH239922   2.908   2.355   0.707 -0.2885  0.5003  0.2815
 6144TIP3    H139923   2.861   2.271   0.707  0.9538 -0.2087 -0.6041
 6144TIP3    H239924   2.977   2.344   0.773 -1.3549  1.5810  1.6565
 6145TIP3   OH239925   3.537   4.443   3.245 -0.1423  0.2339  0.3708
 6145TIP3    H139926   3.498   4.403   3.167 -0.1141  0.6226  0.1563
 6145TIP3    H239927   3.468   4.439   3.311 -0.0433 -0.4315  0.4390
 6146TIP3   OH239928   6.164   5.248  14.202 -0.4986 -0.5657  0.7605
 6146TIP3    H139929   6.145   5.338  14.177  2.8648  0.0569 -0.1030
 6146TIP3    H239930   6.236   5.255  14.264  0.5333 -2.6440 -0.1085
 6147TIP3   OH239931   4.132   1.782  14.283  0.1840 -0.0948 -0.2065
 6147TIP3    H139932   4.036   1.777  14.285  0.0968  1.0056 -0.7642
 6147TIP3    H239933   4.155   1.834  14.360  0.1431  1.5895 -1.2695
 6148TIP3   OH239934   5.137   3.338   4.395 -0.2417  0.1215 -0.2479
 6148TIP3    H139935   5.158   3.277   4.466 -0.8492 -0.1462 -0.2916
 6148TIP3    H239936   5.049   3.313   4.368 -0.9349  1.7085  0.4507
 6149TIP3   OH239937   5.692   0.857   2.016  0.2962  0.1190  0.0646
 6149TIP3    H139938   5.783   0.825   2.010  0.5926  0.8370  0.5884
 6149TIP3    H239939   5.685   0.921   1.945  0.1438 -0.0713 -0.0904
 6150TIP3   OH239940   3.264   0.255  13.295  0.4939 -0.0047 -0.1371
 6150TIP3    H139941   3.322   0.323  13.264  2.5171 -1.6067 -0.0866
 6150TIP3    H239942   3.303   0.226  13.378 -0.9656 -0.4375  0.4353
 6151TIP3   OH239943   0.082   0.241   2.105  0.2880  0.0337  0.6600
 6151TIP3    H139944  -0.001   0.241   2.058 -0.0127  1.0726  1.1471
 6151TIP3    H239945   0.117   0.153   2.092  0.0153  0.1403 -1.1239
 6152TIP3   OH239946   4.654   3.950  13.399  0.6744  0.2842 -0.2704
 6152TIP3    H139947   4.670   3.977  13.308  3.1659  0.9953  0.3043
 6152TIP3    H239948   4.667   4.030  13.450  0.6341 -0.3903  0.8210
 6153TIP3   OH239949   2.783   0.926  14.052  0.5499  0.4884  0.0233
 6153TIP3    H139950   2.710   0.880  14.013  0.8620 -0.6068  0.6898
 6153TIP3    H239951   2.776   0.909  14.146 -0.1822  3.0455  0.5210
 6154TIP3   OH239952   6.265   6.760  13.132 -0.0943  0.0477 -0.5438
 6154TIP3    H139953   6.218   6.843  13.147 -0.9516 -0.4491 -0.4097
 6154TIP3    H239954   6.288   6.762  13.039  0.8494  0.9134 -0.3093
 6155TIP3   OH239955   1.036   0.903  11.421 -0.2733 -0.3147  0.6952
 6155TIP3    H139956   1.105   0.841  11.443 -0.3702 -0.9800 -0.8214
 6155TIP3    H239957   0.960   0.872  11.471 -0.0920 -0.9142  0.6083
 6156TIP3   OH239958   4.697   2.222  15.477 -0.7775  0.5627  0.7474
 6156TIP3    H139959   4.727   2.246  15.565 -1.1870 -0.0634  1.0696
 6156TIP3    H239960   4.749   2.276  15.418  0.6195 -0.1470  1.3032
 6157TIP3   OH239961   3.231   2.081   3.170 -0.1225  0.5277 -0.1843
 6157TIP3    H139962   3.161   2.041   3.221  1.1558 -0.2726  1.0226
 6157TIP3    H239963   3.279   2.007   3.132  0.6414  1.0085 -0.1854
 6158TIP3   OH239964   0.708   0.493  16.593  0.2413 -0.8557 -0.0188
 6158TIP3    H139965   0.670   0.471  16.508 -2.4837 -0.8271  1.0941
 6158TIP3    H239966   0.692   0.415  16.646  0.0587 -0.1240  1.0157
 6159TIP3   OH239967   6.114   6.263  11.997  0.0273 -0.2647  0.0041
 6159TIP3    H139968   6.205   6.285  11.974  0.8078 -1.3234  1.8213
 6159TIP3    H239969   6.085   6.206  11.926  0.7768  0.0874 -0.6038
 6160TIP3   OH239970   2.924   5.839  11.025  0.2225 -0.4303 -0.5228
 6160TIP3    H139971   3.006   5.887  11.041 -0.8368  1.0854  0.6446
 6160TIP3    H239972   2.951   5.761  10.977  2.2476  0.4505 -0.9075
 6161TIP3   OH239973   1.603   1.127  16.439 -0.0715 -0.6228  0.0665
 6161TIP3    H139974   1.649   1.075  16.374 -0.5390 -0.3684 -0.4731
 6161TIP3    H239975   1.520   1.082  16.452  0.0130 -0.6693  0.4893
 6162TIP3   OH239976   0.518   1.565  16.764 -0.4084 -0.6310  0.8237
 6162TIP3    H139977   0.491   1.547  16.674 -0.6194  1.5072  0.4071
 6162TIP3    H239978   0.442   1.541  16.817 -1.2794  0.5189  0.1482
 6163TIP3   OH239979   5.569   3.286  12.603 -0.0138  0.1967  0.0483
 6163TIP3    H139980   5.608   3.331  12.678  1.1899 -1.4183  0.4526
 6163TIP3    H239981   5.495   3.238  12.640 -0.2092  0.4266 -0.0436
 6164TIP3   OH239982   3.555   1.172  13.471  0.8784 -0.3367  0.0670
 6164TIP3    H139983   3.557   1.262  13.504  1.2428 -1.5754  3.9330
 6164TIP3    H239984   3.647   1.149  13.459  0.7475  0.1301 -2.2122
 6165TIP3   OH239985   6.262   3.921  11.692 -0.8489  0.1410  0.1202
 6165TIP3    H139986   6.306   4.005  11.678  0.5114 -0.1730  2.0728
 6165TIP3    H239987   6.287   3.869  11.616  0.4447  0.6868  0.1401
 6166TIP3   OH239988   6.335   1.116  12.201 -0.7574 -0.1526  0.1499
 6166TIP3    H139989   6.314   1.157  12.285 -1.2600 -0.3296  0.1181
 6166TIP3    H239990   6.307   1.180  12.136  1.1749  0.7154  0.1101
 6167TIP3   OH239991   0.314   5.534   6.338  0.0265 -0.0206  0.6769
 6167TIP3    H139992   0.410   5.540   6.342  0.0784 -0.6281  0.5748
 6167TIP3    H239993   0.283   5.612   6.383  0.5712  0.0762  0.9019
 6168TIP3   OH239994   2.645   5.151  12.959 -0.0799  0.4718 -0.2979
 6168TIP3    H139995   2.608   5.134  12.873 -0.1025 -0.2260 -0.1554
 6168TIP3    H239996   2.692   5.234  12.949  2.3533 -0.9768 -1.7663
 6169TIP3   OH239997   0.243   5.560   3.374 -0.5074  0.4174 -0.1622
 6169TIP3    H139998   0.150   5.540   3.385 -0.1049 -1.2068  0.5394
 6169TIP3    H239999   0.262   5.626   3.441 -1.2584  1.1830 -0.6857
 6170TIP3   OH240000   6.052   3.711   2.346  0.6947  0.2063  0.1048
 6170TIP3    H140001   6.023   3.771   2.414 -0.3759 -0.0572 -0.1027
 6170TIP3    H240002   6.136   3.747   2.317  1.7529 -0.3179  2.3181
 6171TIP3   OH240003   3.942   6.791  15.674  0.3764  0.0721  0.7188
 6171TIP3    H140004   3.907   6.815  15.588  0.9295  0.9241  0.7153
 6171TIP3    H240005   4.008   6.725  15.655  0.6088  0.3717  0.4621
 6172TIP3   OH240006   3.910   4.740   5.237  0.2148  0.4679 -0.3956
 6172TIP3    H140007   3.972   4.767   5.305 -0.8499  2.0132  0.0167
 6172TIP3    H240008   3.824   4.752   5.277 -0.4110 -1.3725 -1.0452
 6173TIP3   OH240009   2.977   6.441   0.620 -0.0157  0.0083 -0.3060
 6173TIP3    H140010   2.992   6.519   0.674 -2.2554  0.4574 -0.2516
 6173TIP3    H240011   2.943   6.376   0.681  0.4620 -0.5542 -0.6249
 6174TIP3   OH240012   0.214   0.453   0.605  0.2397 -0.3725 -0.0500
 6174TIP3    H140013   0.260   0.522   0.558  0.7759 -1.1269 -0.6521
 6174TIP3    H240014   0.122   0.477   0.600  0.4162  0.2707 -0.2899
 6175TIP3   OH240015   5.943   3.522   1.895 -0.8303  0.2181  0.3429
 6175TIP3    H140016   5.891   3.591   1.935 -1.6172  0.1634 -0.5710
 6175TIP3    H240017   5.916   3.520   1.804  2.9206  2.2688 -1.0235
 6176TIP3   OH240018   0.987   4.227   2.984 -0.1929 -0.3769 -0.1153
 6176TIP3    H140019   1.025   4.239   2.896 -1.9942 -1.4241 -1.0874
 6176TIP3    H240020   1.039   4.156   3.022 -0.1161 -0.6906 -0.7834
 6177TIP3   OH240021   0.490   2.441  17.077  0.0318 -0.0272 -0.0612
 6177TIP3    H140022   0.580   2.466  17.054 -0.7641  2.7568 -0.5802
 6177TIP3    H240023   0.447   2.525  17.095 -2.7556 -1.1925 -0.8793
 6178TIP3   OH240024   0.791   0.391   5.537 -0.6336 -0.7071  0.3441
 6178TIP3    H140025   0.831   0.308   5.512  0.5260 -0.3086  0.8219
 6178TIP3    H240026   0.779   0.438   5.455 -0.5809 -1.0336  0.1493
 6179TIP3   OH240027   1.065   6.374   4.384  0.5649 -0.1788  0.6890
 6179TIP3    H140028   1.107   6.326   4.313  0.9209 -0.7448  1.2687
 6179TIP3    H240029   0.990   6.319   4.409 -0.1720  0.5201  0.0770
 6180TIP3   OH240030   5.442   0.954  14.940 -0.5764  0.3311  0.4677
 6180TIP3    H140031   5.358   0.936  14.897 -0.4886  2.7102 -0.8226
 6180TIP3    H240032   5.441   1.048  14.957  2.4276  0.7171 -0.9772
 6181TIP3   OH240033   2.156   5.226  12.520  0.5943  0.6113  0.1108
 6181TIP3    H140034   2.060   5.229  12.522  0.6024  0.6534  1.3885
 6181TIP3    H240035   2.183   5.296  12.580  1.4749  1.9116 -1.7050
 6182TIP3   OH240036   5.165   0.530   2.908  0.2769 -0.1859  0.0550
 6182TIP3    H140037   5.171   0.438   2.883  0.9541  0.2778 -1.6089
 6182TIP3    H240038   5.182   0.530   3.002 -0.9005 -1.8614  0.3054
 6183TIP3   OH240039   6.614   6.199  12.290  0.1009 -0.9293  0.0318
 6183TIP3    H140040   6.612   6.251  12.370 -1.5942 -1.1679  0.1952
 6183TIP3    H240041   6.662   6.120  12.313  3.0326  0.6421 -0.3254
 6184TIP3   OH240042   3.290   3.810  14.707  0.7393 -0.6071 -0.0602
 6184TIP3    H140043   3.368   3.770  14.667 -0.2470 -3.7591  0.9476
 6184TIP3    H240044   3.217   3.779  14.654 -0.1279 -0.5868  1.0841
 6185TIP3   OH240045   4.064   0.199   5.817 -0.3742 -0.0758 -0.3623
 6185TIP3    H140046   4.144   0.158   5.850  0.4635  0.9898 -0.9980
 6185TIP3    H240047   4.092   0.244   5.737 -1.4699  0.8912 -0.2177
 6186TIP3   OH240048   0.606   4.390  12.329  0.2858  0.0295  0.0790
 6186TIP3    H140049   0.605   4.427  12.241 -0.5591  1.8574  0.8058
 6186TIP3    H240050   0.554   4.311  12.323  0.4154  0.0261 -1.1038
 6187TIP3   OH240051   3.553   6.754  13.201 -0.3703  0.5147  0.0265
 6187TIP3    H140052   3.550   6.667  13.160 -1.4864  0.4027  0.3028
 6187TIP3    H240053   3.520   6.739  13.290 -0.3334  1.1798  0.1564
 6188TIP3   OH240054   6.667   5.988   4.759 -0.2007 -0.0709  0.1203
 6188TIP3    H140055   6.716   6.016   4.682  0.2753  0.8496  0.7240
 6188TIP3    H240056   6.721   5.919   4.798  0.7645  1.0515  0.8755
 6189TIP3   OH240057   1.167   4.016  14.157  0.2334 -0.3764 -0.0850
 6189TIP3    H140058   1.108   4.049  14.089 -0.0790 -1.6802 -0.4753
 6189TIP3    H240059   1.113   4.010  14.235 -0.0936 -1.2875 -0.3688
 6190TIP3   OH240060   5.318   1.113   2.709  0.1813 -0.8402 -0.4910
 6190TIP3    H140061   5.266   1.135   2.786  1.6282 -0.2799  0.3685
 6190TIP3    H240062   5.258   1.124   2.635 -0.5791  0.9692  0.3557
 6191TIP3   OH240063   3.939   0.571  12.026  0.3750  0.0079  0.0564
 6191TIP3    H140064   3.897   0.486  12.036  0.7945 -0.5200 -2.2087
 6191TIP3    H240065   3.866   0.633  12.016  0.0940 -0.1596  0.9171
 6192TIP3   OH240066   4.726   4.070  15.319  0.8276 -0.4079  0.2619
 6192TIP3    H140067   4.763   4.090  15.405  0.9481 -0.7585  0.2942
 6192TIP3    H240068   4.703   3.977  15.324  1.6910 -0.6767 -0.3881
 6193TIP3   OH240069   2.419   5.002  11.521 -0.3230 -0.0171  0.0412
 6193TIP3    H140070   2.329   4.972  11.534 -0.6523 -0.1156 -2.1045
 6193TIP3    H240071   2.410   5.083  11.471  0.7291  1.2974  1.8731
 6194TIP3   OH240072   0.304   4.323  15.266 -0.0891  0.7100 -0.5512
 6194TIP3    H140073   0.379   4.283  15.310  0.1293  1.0574 -0.6029
 6194TIP3    H240074   0.232   4.314  15.329 -0.0107  0.3596 -0.5088
 6195TIP3   OH240075   0.477   0.229   2.806 -0.2382  0.5575  0.5917
 6195TIP3    H140076   0.415   0.185   2.748  0.2197  2.5056 -1.5057
 6195TIP3    H240077   0.559   0.182   2.794 -0.1348  0.9814 -0.4296
 6196TIP3   OH240078   3.730   5.675  11.719 -0.5246  0.0757  0.9537
 6196TIP3    H140079   3.825   5.681  11.729 -0.4286 -0.8872  0.6898
 6196TIP3    H240080   3.696   5.740  11.780  0.3162  0.9170  0.5646
 6197TIP3   OH240081   0.115   3.407   4.465 -0.3388  0.0856  0.0209
 6197TIP3    H140082   0.190   3.467   4.466 -1.2640  1.3064  2.0860
 6197TIP3    H240083   0.079   3.412   4.553 -1.9015 -1.7309 -0.4447
 6198TIP3   OH240084   1.861   5.229   5.456 -0.0715  0.7670 -0.2552
 6198TIP3    H140085   1.813   5.310   5.467 -2.4629 -0.7879  1.9626
 6198TIP3    H240086   1.923   5.227   5.529  1.3233  1.3865 -1.3787
 6199TIP3   OH240087   3.045   2.912  16.578 -0.3165 -0.2705 -0.3084
 6199TIP3    H140088   2.976   2.916  16.511  0.7839  1.4061 -1.4121
 6199TIP3    H240089   3.059   2.818  16.591 -2.7826 -0.6799 -0.0172
 6200TIP3   OH240090   0.893   6.791   5.897  0.1124 -0.0750  0.6898
 6200TIP3    H140091   0.965   6.855   5.901  2.3198 -2.3327 -0.2801
 6200TIP3    H240092   0.876   6.769   5.989  0.5001  0.6667  0.9497
 6201TIP3   OH240093   2.238   2.648  15.392 -0.0352  0.1624  0.4671
 6201TIP3    H140094   2.324   2.654  15.350 -0.5156  2.3872 -0.3365
 6201TIP3    H240095   2.244   2.707  15.467 -0.3760 -0.9325  1.3796
 6202TIP3   OH240096   6.319   5.464  12.308 -0.2954  0.0842  0.1260
 6202TIP3    H140097   6.395   5.453  12.250 -1.0325  1.8389 -1.2826
 6202TIP3    H240098   6.309   5.559  12.316 -1.9091 -0.1153  0.8805
 6203TIP3   OH240099   5.823   6.421   4.014  0.0534  0.5928  0.4837
 6203TIP3    H140100   5.912   6.389   4.029  0.0986  0.0895 -0.7338
 6203TIP3    H240101   5.815   6.426   3.918 -2.2160 -2.3566  0.3852
 6204TIP3   OH240102   2.293   3.338  11.900 -0.2722  0.0835 -0.5978
 6204TIP3    H140103   2.271   3.411  11.843 -0.9520 -1.0706 -1.8758
 6204TIP3    H240104   2.210   3.294  11.916 -0.1513  0.5747  1.6326
 6205TIP3   OH240105   5.017   2.171  16.694 -0.5022  0.1261  0.1105
 6205TIP3    H140106   5.032   2.201  16.784  0.1050 -0.2537  0.1450
 6205TIP3    H240107   5.074   2.226  16.641  1.4873 -1.6575  0.2889
 6206TIP3   OH240108   1.732   2.443   0.875  0.3076 -0.3169  0.9761
 6206TIP3    H140109   1.677   2.412   0.947 -0.1289  1.6680  1.5496
 6206TIP3    H240110   1.712   2.537   0.868  2.2485  0.0706 -0.0432
 6207TIP3   OH240111   1.741   0.858  14.059 -0.1749 -0.5637 -0.4895
 6207TIP3    H140112   1.751   0.950  14.084  0.7007 -0.5150 -0.9703
 6207TIP3    H240113   1.736   0.811  14.143  1.2229 -0.2536 -0.2092
 6208TIP3   OH240114   3.175   0.421   3.030 -0.4296 -0.3505 -0.1698
 6208TIP3    H140115   3.085   0.390   3.038 -0.8669  1.1218  1.2387
 6208TIP3    H240116   3.167   0.510   2.997  0.5662 -0.4682 -0.7708
 6209TIP3   OH240117   3.723   3.957   5.573 -0.1945 -0.1581  0.5405
 6209TIP3    H140118   3.815   3.977   5.585  0.0381  0.1843 -1.4608
 6209TIP3    H240119   3.680   3.990   5.652  1.2153  0.8452  0.9183
 6210TIP3   OH240120   2.883   5.583  10.932 -0.0878  0.3600  0.0956
 6210TIP3    H140121   2.797   5.540  10.928  1.5458 -3.1216 -1.3497
 6210TIP3    H240122   2.910   5.591  10.840  1.7877 -0.0914  0.5683
 6211TIP3   OH240123   0.682   4.142   3.477 -0.0499 -0.8670 -0.2048
 6211TIP3    H140124   0.615   4.073   3.478 -0.3474 -0.6094  1.9163
 6211TIP3    H240125   0.671   4.187   3.560  1.6232  0.3279 -0.5836
 6212TIP3   OH240126   3.667   2.785  15.371 -0.5217 -0.7538  0.3076
 6212TIP3    H140127   3.692   2.872  15.402  0.6851 -0.9700 -0.0104
 6212TIP3    H240128   3.588   2.764  15.420 -1.3039  0.8587 -0.1974
 6213TIP3   OH240129   2.265   6.525  13.901 -0.2630 -0.0229 -0.8853
 6213TIP3    H140130   2.307   6.610  13.916 -2.4465  0.7248  1.9538
 6213TIP3    H240131   2.211   6.538  13.823 -1.6190  1.7000  0.2886
 6214TIP3   OH240132   4.296   5.023   5.687 -0.2467  0.0725 -0.2493
 6214TIP3    H140133   4.269   5.082   5.757 -0.8646  0.8609 -1.1258
 6214TIP3    H240134   4.238   4.947   5.696 -1.8197  1.1102 -1.2049
 6215TIP3   OH240135   2.186   4.443  15.207  0.7087 -0.0718  0.5875
 6215TIP3    H140136   2.244   4.492  15.149 -1.3709  1.4532 -0.3207
 6215TIP3    H240137   2.153   4.371  15.153  1.3604 -0.6693  0.9653
 6216TIP3   OH240138   1.624   3.058   5.978  0.1370  0.9973  0.0751
 6216TIP3    H140139   1.591   3.055   6.068 -1.0231 -2.0032 -0.3158
 6216TIP3    H240140   1.582   3.134   5.939 -2.4126  0.1858  1.0563
 6217TIP3   OH240141   2.905   3.120  15.106  0.3845 -0.5535  0.2950
 6217TIP3    H140142   2.883   3.113  15.013  0.3617 -0.7905  0.3173
 6217TIP3    H240143   2.857   3.197  15.137 -0.3649 -1.0261  0.3321
 6218TIP3   OH240144   4.252   0.314   1.258 -0.2508 -0.1010 -0.0036
 6218TIP3    H140145   4.175   0.267   1.290 -1.7338  1.2396 -1.3770
 6218TIP3    H240146   4.260   0.390   1.317 -1.1683  0.7594 -0.9368
 6219TIP3   OH240147   5.808   6.630   2.723 -0.1616  0.1165  0.1166
 6219TIP3    H140148   5.776   6.710   2.682 -0.7240  0.5197  1.2877
 6219TIP3    H240149   5.807   6.565   2.654 -0.7011  0.8655 -0.5987
 6220TIP3   OH240150   2.150   5.675   4.783 -0.4209 -0.4445  0.3916
 6220TIP3    H140151   2.067   5.722   4.787 -0.9084 -1.3114  0.7403
 6220TIP3    H240152   2.164   5.660   4.689 -1.2543 -1.2865  0.3799
 6221TIP3   OH240153   6.307   1.686   1.826  0.6397 -0.4095  0.4367
 6221TIP3    H140154   6.252   1.746   1.775 -1.3774 -2.0118  0.5810
 6221TIP3    H240155   6.332   1.738   1.903 -1.3192  0.2191  0.7271
 6222TIP3   OH240156   0.236   4.333  16.303  0.1101 -0.4344  0.1517
 6222TIP3    H140157   0.181   4.407  16.329 -1.0764 -1.5207  0.8114
 6222TIP3    H240158   0.316   4.344  16.354  0.1456  0.6271 -0.0965
 6223TIP3   OH240159   4.058   0.936  16.174 -0.2141 -0.3236  0.0284
 6223TIP3    H140160   4.012   0.906  16.095 -0.6254 -2.8462  1.1524
 6223TIP3    H240161   4.133   0.878  16.182  0.7357  0.9415  0.6598
 6224TIP3   OH240162   4.731   0.694  16.217  0.1529  0.2734  0.0341
 6224TIP3    H140163   4.736   0.644  16.299 -1.1795  0.5105  0.2754
 6224TIP3    H240164   4.753   0.630  16.150 -0.3371 -0.3396  0.4457
 6225TIP3   OH240165   2.639   1.883  11.800  0.0508  0.2211  0.1113
 6225TIP3    H140166   2.722   1.911  11.839  0.2442  1.8988 -1.3596
 6225TIP3    H240167   2.589   1.847  11.873  0.8306  2.1484  1.7059
 6226TIP3   OH240168   6.757   0.503  14.309  0.5024  0.4301  0.3244
 6226TIP3    H140169   6.811   0.573  14.346  1.2276  2.0527 -3.3545
 6226TIP3    H240170   6.678   0.547  14.279  0.1613 -0.6352 -0.4081
 6227TIP3   OH240171   2.554   2.900  13.297 -0.5552  0.4848  0.4020
 6227TIP3    H140172   2.466   2.862  13.294  0.0053 -0.8754  0.4091
 6227TIP3    H240173   2.596   2.857  13.372  1.1113 -1.2740 -1.3978
 6228TIP3   OH240174   1.715   3.371   1.221  0.0414  0.3579 -0.1140
 6228TIP3    H140175   1.765   3.325   1.289 -1.2577 -0.0569  0.5961
 6228TIP3    H240176   1.775   3.438   1.189  1.0162 -0.0499  0.7808
 6229TIP3   OH240177   1.121   0.014  15.740 -0.2100 -0.3008  0.1546
 6229TIP3    H140178   1.146   0.043  15.653  1.3492  1.2752  1.0751
 6229TIP3    H240179   1.187   0.050  15.798 -2.0666  0.0441  2.2034
 6230TIP3   OH240180   0.016   6.160   2.669 -0.3211 -0.1947 -0.1902
 6230TIP3    H140181   0.018   6.226   2.738 -0.5441  0.8891 -1.1911
 6230TIP3    H240182  -0.073   6.162   2.635 -1.0061 -2.5947  1.1986
 6231TIP3   OH240183   0.816   2.497  11.120  0.6911  0.8067 -0.1706
 6231TIP3    H140184   0.732   2.462  11.094  0.8057 -0.6936  1.2770
 6231TIP3    H240185   0.879   2.461  11.057  0.3686  1.2325 -0.7384
 6232TIP3   OH240186   5.736   6.279  13.023 -0.7788 -0.0174 -0.3654
 6232TIP3    H140187   5.821   6.243  13.047  0.0227  1.5215 -0.7500
 6232TIP3    H240188   5.732   6.272  12.927 -0.2676  1.5580 -0.5271
 6233TIP3   OH240189   6.400   4.724  15.158  0.1766  0.1463 -0.4297
 6233TIP3    H140190   6.395   4.738  15.064  0.4962  0.2974 -0.4248
 6233TIP3    H240191   6.312   4.746  15.189  0.1908  0.5247 -0.6407
 6234TIP3   OH240192   0.019   1.569  16.881 -0.5694  0.2896  0.0499
 6234TIP3    H140193  -0.027   1.640  16.836 -1.7078  1.0197  2.2695
 6234TIP3    H240194  -0.049   1.504  16.901 -0.0528 -0.0975  0.5842
 6235TIP3   OH240195   3.926   3.070  15.283 -0.5190  0.1715  0.1853
 6235TIP3    H140196   3.903   2.981  15.311  0.1400  0.0710  0.4326
 6235TIP3    H240197   3.947   3.116  15.364 -1.8612  0.8765  0.1721
 6236TIP3   OH240198   3.944   0.627  12.575 -0.3043  0.4100  0.2351
 6236TIP3    H140199   3.920   0.685  12.503 -1.0175  1.2940  1.1425
 6236TIP3    H240200   4.005   0.565  12.537 -1.2460  0.3774 -1.3008
 6237TIP3   OH240201   0.765   0.216   3.089  0.1483  0.1551  0.3454
 6237TIP3    H140202   0.780   0.121   3.087 -1.7689 -0.2161  1.4472
 6237TIP3    H240203   0.840   0.252   3.042  0.2809 -1.9774 -1.2637
 6238TIP3   OH240204   1.900   2.018   0.055  0.0621 -0.5048  0.5413
 6238TIP3    H140205   1.837   2.060   0.113  0.8516  1.3147  0.1387
 6238TIP3    H240206   1.942   2.090   0.009  2.3271 -1.6743  0.6642
 6239TIP3   OH240207   3.919   4.698  15.367  0.2396 -0.3456  0.1828
 6239TIP3    H140208   3.836   4.730  15.402  0.6641 -0.1066  0.9851
 6239TIP3    H240209   3.944   4.627  15.426  0.5275 -0.5274 -0.1519
 6240TIP3   OH240210   6.368   1.329   2.631  0.5809  0.2272  0.6416
 6240TIP3    H140211   6.403   1.340   2.542 -2.6636  0.1941 -0.7623
 6240TIP3    H240212   6.356   1.235   2.641  1.5325  0.1669  1.4353
 6241TIP3   OH240213   5.470   6.615   2.968  0.3091 -0.1404 -0.3464
 6241TIP3    H140214   5.392   6.568   2.999 -1.3672  1.9143 -1.1071
 6241TIP3    H240215   5.532   6.610   3.041 -2.1718  1.6344  2.1117
 6242TIP3   OH240216   4.061   0.434   3.215 -0.2618  0.5473  0.2252
 6242TIP3    H140217   4.110   0.399   3.140 -0.1446  0.3121  0.4125
 6242TIP3    H240218   4.053   0.361   3.276 -1.4139  0.4000 -0.0768
 6243TIP3   OH240219   6.054   4.317  12.069  1.0133 -0.2309  0.4167
 6243TIP3    H140220   6.107   4.396  12.056  1.2426 -0.7532 -2.5612
 6243TIP3    H240221   6.058   4.301  12.163  1.9435  2.6075  0.9677
 6244TIP3   OH240222   0.619   1.113  11.534  0.1909 -0.3645  0.2862
 6244TIP3    H140223   0.600   1.190  11.587  0.5597  0.3583 -0.5928
 6244TIP3    H240224   0.695   1.073  11.575  0.4367  0.1565  0.3489
 6245TIP3   OH240225   5.076   1.398  16.125 -0.6752  0.0957 -0.1780
 6245TIP3    H140226   5.056   1.455  16.051 -0.8213  0.3765  0.0799
 6245TIP3    H240227   5.162   1.428  16.155 -0.4961 -0.1893 -0.3966
 6246TIP3   OH240228   5.679   1.397  17.067 -0.8161  0.1465  0.5591
 6246TIP3    H140229   5.633   1.438  16.994  0.2984  0.8416  0.2208
 6246TIP3    H240230   5.692   1.306  17.038 -0.0820  0.5003 -0.2717
 6247TIP3   OH240231   2.476   2.355   4.785  0.0104  0.4914  0.3875
 6247TIP3    H140232   2.385   2.359   4.753  0.3715  1.5770 -0.6021
 6247TIP3    H240233   2.529   2.353   4.706  0.8701  0.0891  0.9587
 6248TIP3   OH240234   1.174   2.428  15.514  0.1275  0.2293  0.1681
 6248TIP3    H140235   1.250   2.387  15.473 -1.2320 -0.3482 -1.8959
 6248TIP3    H240236   1.205   2.454  15.601  3.5677  2.6319 -1.5182
 6249TIP3   OH240237   4.132   1.836  16.627 -0.0380 -0.2778  0.1655
 6249TIP3    H140238   4.225   1.824  16.611  0.4562  1.8916  1.0809
 6249TIP3    H240239   4.123   1.827  16.722 -0.9123 -1.1496  0.0236
 6250TIP3   OH240240   6.735   5.506  15.308 -0.2308  0.1142  0.2944
 6250TIP3    H140241   6.753   5.552  15.226  0.3188 -0.3921  0.1208
 6250TIP3    H240242   6.672   5.438  15.285  0.8612 -0.8312  0.0185
 6251TIP3   OH240243   1.362   3.017  15.792 -0.5466 -0.0038 -0.4501
 6251TIP3    H140244   1.397   3.059  15.713  0.9377  1.4335  0.8845
 6251TIP3    H240245   1.339   3.090  15.850  2.1289 -0.8984  1.9700
 6252TIP3   OH240246   2.431   6.494   1.708  0.6860  0.3086  0.7058
 6252TIP3    H140247   2.400   6.421   1.763 -0.2527  0.0706 -0.1120
 6252TIP3    H240248   2.488   6.453   1.643 -1.3097 -0.0448 -0.9379
 6253TIP3   OH240249   3.392   5.244   0.800  0.0518 -0.2659 -0.2289
 6253TIP3    H140250   3.481   5.235   0.765 -0.5005 -0.9317 -1.5761
 6253TIP3    H240251   3.380   5.166   0.854  0.0420 -0.5884 -0.6815
 6254TIP3   OH240252   6.107   0.360  12.675  0.0968 -0.1837 -0.0381
 6254TIP3    H140253   6.134   0.450  12.657  0.1518 -0.2082 -0.0774
 6254TIP3    H240254   6.188   0.316  12.701 -0.0585 -0.0374  0.6994
 6255TIP3   OH240255   1.350   4.660  10.864 -0.3942  0.0462 -0.1882
 6255TIP3    H140256   1.363   4.630  10.774 -0.5502  0.9111 -0.5101
 6255TIP3    H240257   1.344   4.580  10.916 -1.1225 -0.4817 -1.0599
 6256TIP3   OH240258   1.840   2.100  12.666 -0.3374  0.3285 -0.0305
 6256TIP3    H140259   1.848   2.069  12.576  1.4764 -0.7149  0.4315
 6256TIP3    H240260   1.911   2.055  12.713 -1.4068  0.6129  1.9771
 6257TIP3   OH240261   5.832   2.198  15.876 -0.7399 -0.7092 -0.0766
 6257TIP3    H140262   5.849   2.285  15.842  0.5016 -0.0035  2.1341
 6257TIP3    H240263   5.871   2.139  15.811 -0.5393  0.4286 -1.0245
 6258TIP3   OH240264   0.186   1.564   1.153 -0.0997 -0.1133  0.0321
 6258TIP3    H140265   0.129   1.638   1.172 -0.2118 -0.2834  0.3554
 6258TIP3    H240266   0.204   1.524   1.238 -0.8779 -1.0719 -0.2450
 6259TIP3   OH240267   6.685   5.190   2.536  0.0173  0.2649  0.5704
 6259TIP3    H140268   6.765   5.184   2.587 -0.8347 -0.7444  1.8659
 6259TIP3    H240269   6.664   5.283   2.534  0.5895  0.4102  1.2185
 6260TIP3   OH240270   6.102   5.046   2.360 -0.1823 -0.1338  0.4277
 6260TIP3    H140271   6.170   5.098   2.404  2.1163  1.2467 -4.0293
 6260TIP3    H240272   6.141   4.959   2.351  0.7420  0.3878 -1.2276
 6261TIP3   OH240273   1.736   5.466   1.871 -0.8132 -0.2458  0.0307
 6261TIP3    H140274   1.722   5.530   1.801 -0.5837 -0.8822 -0.6119
 6261TIP3    H240275   1.695   5.386   1.839 -1.8265 -0.2143  1.1872
 6262TIP3   OH240276   4.437   6.670   2.256 -0.1465 -0.1783 -0.3464
 6262TIP3    H140277   4.526   6.639   2.241 -0.6092 -1.9735  0.3382
 6262TIP3    H240278   4.444   6.730   2.330  0.4652 -0.4458 -0.1849
 6263TIP3   OH240279   2.655   4.775  12.209 -0.3989  0.5481 -0.7721
 6263TIP3    H140280   2.583   4.778  12.146 -0.7171  2.1506 -0.3934
 6263TIP3    H240281   2.673   4.867  12.229  2.1536  0.2389 -1.2718
 6264TIP3   OH240282   0.337   5.508   4.473 -0.0956 -0.0254  0.1334
 6264TIP3    H140283   0.372   5.472   4.554  0.0943  0.7525  0.4086
 6264TIP3    H240284   0.243   5.490   4.477  0.0483 -0.8291  0.0715
 6265TIP3   OH240285   5.748   6.110   0.508 -0.4159 -0.6659 -0.2129
 6265TIP3    H140286   5.795   6.060   0.442 -1.6907 -2.2191 -0.0301
 6265TIP3    H240287   5.787   6.083   0.591 -1.1012 -1.4345 -0.1148
 6266TIP3   OH240288   2.687   5.914  15.409  0.2141 -0.4103 -0.0168
 6266TIP3    H140289   2.623   5.947  15.473 -0.2326  1.3140 -1.2949
 6266TIP3    H240290   2.772   5.938  15.446  0.0763 -1.3642  0.9587
 6267TIP3   OH240291   0.094   3.113  13.529 -0.4316 -0.4176 -0.0259
 6267TIP3    H140292   0.150   3.181  13.492 -1.0470  1.2367  1.9011
 6267TIP3    H240293   0.148   3.072  13.597 -0.8377 -0.2694  0.3873
 6268TIP3   OH240294   0.798   5.129  16.409  0.2750 -0.8131 -0.1148
 6268TIP3    H140295   0.808   5.199  16.345  1.9545 -1.0216 -0.1441
 6268TIP3    H240296   0.843   5.161  16.487  1.7065 -2.0718 -0.3597
 6269TIP3   OH240297   2.008   6.556  15.971 -0.8217 -0.5163  0.3551
 6269TIP3    H140298   2.084   6.518  16.016  0.0092  0.1781 -0.4180
 6269TIP3    H240299   1.951   6.587  16.042 -1.0589 -2.2491  0.9873
 6270TIP3   OH240300   2.157   2.690  15.938  0.5266 -0.4291  0.1432
 6270TIP3    H140301   2.171   2.724  15.850  2.4351  2.2285  1.3621
 6270TIP3    H240302   2.244   2.663  15.968 -0.3862 -3.3296  0.5513
 6271TIP3   OH240303   0.142   3.623  12.748  0.1936 -0.0877  0.0088
 6271TIP3    H140304   0.179   3.595  12.665  0.5528 -0.5350  0.3138
 6271TIP3    H240305   0.064   3.673  12.724  0.0862 -0.5246 -0.5837
 6272TIP3   OH240306   0.615   6.741  10.896  0.0732  0.0551  0.9738
 6272TIP3    H140307   0.703   6.774  10.877  0.3865 -0.1214  2.0445
 6272TIP3    H240308   0.599   6.674  10.830  0.3238  0.7850  0.1501
 6273TIP3   OH240309   4.543   0.422  14.389  0.5261 -0.0849  0.0318
 6273TIP3    H140310   4.592   0.454  14.464  0.6284  0.3846 -0.2331
 6273TIP3    H240311   4.472   0.486  14.377 -0.0945 -0.6979  0.3519
 6274TIP3   OH240312   5.779   1.401   4.016  0.1222 -0.3708 -0.5314
 6274TIP3    H140313   5.758   1.319   4.061 -0.0036 -0.7339 -1.2435
 6274TIP3    H240314   5.754   1.386   3.925  1.9352 -0.2495 -1.0871
 6275TIP3   OH240315   5.555   2.326  16.709  0.2985  0.5053  0.1778
 6275TIP3    H140316   5.540   2.383  16.784  0.2618  0.6518  0.0610
 6275TIP3    H240317   5.507   2.246  16.729 -0.3275  0.8231 -0.0185
 6276TIP3   OH240318   0.968   6.206  12.894  0.2318  0.4537 -0.4475
 6276TIP3    H140319   0.906   6.272  12.864 -1.7363 -1.3625 -0.6803
 6276TIP3    H240320   1.000   6.239  12.978  0.2234  2.2111 -1.1034
 6277TIP3   OH240321   6.790   6.221   5.578 -0.1990 -0.0865 -0.1105
 6277TIP3    H140322   6.753   6.294   5.627  0.6090  0.5427 -0.4152
 6277TIP3    H240323   6.718   6.190   5.523 -0.3386  0.9918 -0.5559
 6278TIP3   OH240324   1.707   0.432   2.891 -0.4594  0.4367  0.5754
 6278TIP3    H140325   1.685   0.397   2.805  4.2220 -0.6635 -0.4291
 6278TIP3    H240326   1.694   0.358   2.951  0.6921 -0.3015 -0.0432
 6279TIP3   OH240327   1.011   6.055  14.383  0.1103 -0.2082 -0.0542
 6279TIP3    H140328   0.985   6.074  14.474  2.3459  0.0670  0.5975
 6279TIP3    H240329   1.052   6.135  14.352 -0.9093 -0.1956 -1.4593
 6280TIP3   OH240330   0.415   5.633   5.323  0.2256 -0.1070  0.5746
 6280TIP3    H140331   0.331   5.661   5.286 -0.4298 -2.1773  0.3996
 6280TIP3    H240332   0.480   5.662   5.259 -0.4310  0.7033  0.2558
 6281TIP3   OH240333   2.484   1.038   5.704  1.0894 -0.2844 -0.4063
 6281TIP3    H140334   2.487   1.120   5.753 -0.3792  0.4262 -1.4028
 6281TIP3    H240335   2.575   1.011   5.696  1.3861 -1.0202  3.5135
 6282TIP3   OH240336   4.383   4.442   1.145 -0.0094  0.4793  0.2262
 6282TIP3    H140337   4.453   4.452   1.080 -1.7226  2.5577 -1.4644
 6282TIP3    H240338   4.318   4.508   1.120 -1.0494  1.0061  3.7673
 6283TIP3   OH240339   5.795   3.664  11.998 -0.3703 -0.0409  0.0769
 6283TIP3    H140340   5.888   3.664  11.976 -0.2048  0.1709  0.7294
 6283TIP3    H240341   5.750   3.638  11.918 -0.0130  3.1824 -1.2985
 6284TIP3   OH240342   1.740   3.778   5.355 -0.2930 -0.2762 -0.1949
 6284TIP3    H140343   1.814   3.839   5.349 -1.1930  1.2933  2.7677
 6284TIP3    H240344   1.780   3.695   5.379  0.5750  0.8843  2.9094
 6285TIP3   OH240345   2.833   4.689  15.336  0.0208 -0.4032 -0.0453
 6285TIP3    H140346   2.758   4.748  15.335 -0.1863 -0.6523  0.5849
 6285TIP3    H240347   2.795   4.602  15.341  0.3558 -0.5018  1.0848
 6286TIP3   OH240348   5.289   3.377   1.175 -0.0164 -0.4112 -0.0430
 6286TIP3    H140349   5.342   3.397   1.252 -0.5544  0.2823  0.1604
 6286TIP3    H240350   5.331   3.301   1.136  1.2667  0.2847 -0.0378
 6287TIP3   OH240351   4.112   6.601   4.613 -0.4955 -0.3040 -0.4450
 6287TIP3    H140352   4.067   6.685   4.613 -1.3248 -0.7108  1.2370
 6287TIP3    H240353   4.143   6.591   4.523 -1.9793  0.9453 -1.1456
 6288TIP3   OH240354   1.949   4.312  13.572  0.5522 -0.0903  0.4091
 6288TIP3    H140355   1.868   4.361  13.558 -0.8410 -2.5553 -0.8573
 6288TIP3    H240356   2.000   4.326  13.493  1.5673  1.6826  1.3193
 6289TIP3   OH240357   2.237   5.658  16.947 -0.8656  0.2361 -0.0656
 6289TIP3    H140358   2.172   5.706  16.896  0.7721  0.2135 -2.3045
 6289TIP3    H240359   2.294   5.726  16.983 -1.6495  0.2111  1.3090
 6290TIP3   OH240360   3.196   5.341   5.544 -0.2934 -0.3535  0.2350
 6290TIP3    H140361   3.222   5.266   5.491  1.0834 -0.4936  1.0795
 6290TIP3    H240362   3.165   5.304   5.627  1.2433  0.0181  1.0064
 6291TIP3   OH240363   3.387   0.396  11.767 -0.4752 -0.0035 -0.2198
 6291TIP3    H140364   3.384   0.395  11.863 -0.6027 -2.8021 -0.1897
 6291TIP3    H240365   3.479   0.407  11.745 -0.4434  0.6130  0.1817
 6292TIP3   OH240366   5.334   5.845   4.060 -0.2564 -0.7766  0.3917
 6292TIP3    H140367   5.359   5.754   4.046 -0.5038 -0.7020 -0.6104
 6292TIP3    H240368   5.239   5.842   4.073 -0.6751 -0.4641 -2.0519
 6293TIP3   OH240369   0.708   0.093   3.708  0.1236 -0.1153  0.3797
 6293TIP3    H140370   0.686   0.056   3.794 -1.9115  1.6098  0.6879
 6293TIP3    H240371   0.632   0.073   3.654 -0.0034  1.5150 -0.0909
 6294TIP3   OH240372   4.539   2.393   3.273  0.3640  0.3456 -0.5240
 6294TIP3    H140373   4.519   2.434   3.189 -0.0366  0.5546 -0.3290
 6294TIP3    H240374   4.524   2.462   3.337  0.2273  0.0540 -0.2414
 6295TIP3   OH240375   5.009   3.187  11.031 -0.2129 -0.2210  0.5022
 6295TIP3    H140376   4.936   3.210  10.974  0.4605  1.1500  0.1538
 6295TIP3    H240377   4.974   3.119  11.089 -1.1072 -1.1488 -1.0604
 6296TIP3   OH240378   4.941   2.635   2.989  0.2412  0.2554 -0.0846
 6296TIP3    H140379   5.012   2.571   2.997  0.7411  0.9826  2.1462
 6296TIP3    H240380   4.901   2.637   3.076  0.2047  2.8714 -0.0669
 6297TIP3   OH240381   6.683   5.812  14.773  0.1297  0.5935  0.7570
 6297TIP3    H140382   6.771   5.830  14.806  0.5917 -1.9530  1.1311
 6297TIP3    H240383   6.680   5.855  14.688  2.6063 -1.0224 -0.2814
 6298TIP3   OH240384   2.858   1.574  11.999 -0.1454  0.1238 -0.1045
 6298TIP3    H140385   2.849   1.664  11.970 -0.6551  0.0534 -0.1720
 6298TIP3    H240386   2.890   1.526  11.922 -0.8361  0.0636 -0.3595
 6299TIP3   OH240387   3.905   5.441  13.606 -0.0505 -1.1521 -0.0311
 6299TIP3    H140388   3.872   5.425  13.695  0.6972  1.0903  0.7264
 6299TIP3    H240389   3.833   5.415  13.549 -1.3118 -0.7850  1.3368
 6300TIP3   OH240390   1.703   2.195  16.953 -0.3416 -0.7131  0.0216
 6300TIP3    H140391   1.787   2.152  16.974 -0.8451 -1.1142  1.3225
 6300TIP3    H240392   1.727   2.283  16.927  0.3912 -0.1591  2.3593
 6301TIP3   OH240393   3.188   2.078  10.807  0.1829 -0.1151  0.0344
 6301TIP3    H140394   3.243   2.131  10.750 -0.7775 -0.3763 -1.1752
 6301TIP3    H240395   3.237   2.072  10.889  1.7587 -0.0112 -0.8641
 6302TIP3   OH240396   1.861   4.804   6.191 -0.2903  0.3281  0.0198
 6302TIP3    H140397   1.862   4.710   6.212 -1.7812  0.1461 -0.5990
 6302TIP3    H240398   1.916   4.844   6.258 -0.0804 -0.9199  0.6314
 6303TIP3   OH240399   4.414   1.910  14.891 -0.2188 -1.0656  0.3051
 6303TIP3    H140400   4.445   1.856  14.818  1.7928 -0.2456  0.4798
 6303TIP3    H240401   4.400   1.848  14.962 -1.4236 -1.7742 -0.5071
 6304TIP3   OH240402   1.122   0.105  15.494 -0.4617  0.7435 -0.0773
 6304TIP3    H140403   1.134   0.196  15.521 -0.2996  0.7884 -0.2917
 6304TIP3    H240404   1.065   0.111  15.417 -0.3742  0.6740 -0.1481
 6305TIP3   OH240405   6.761   0.818   3.510  0.1120  0.5730 -0.0335
 6305TIP3    H140406   6.786   0.907   3.486  0.5694  0.2292 -0.9028
 6305TIP3    H240407   6.677   0.804   3.466 -1.0389  1.2844  1.8368
 6306TIP3   OH240408   1.895   4.018   5.677  0.1996  0.0069 -0.2388
 6306TIP3    H140409   1.901   4.088   5.742  0.7519  0.4133 -0.7188
 6306TIP3    H240410   1.803   3.991   5.679  0.0907  0.3977  0.3067
 6307TIP3   OH240411   1.767   4.412  16.557 -0.3285  0.3926 -0.1571
 6307TIP3    H140412   1.727   4.464  16.487  0.3621 -2.1243 -2.6588
 6307TIP3    H240413   1.861   4.422  16.543 -0.1722  0.0535  0.5971
 6308TIP3   OH240414   1.284   0.239   1.440 -0.1652  0.4498 -0.2545
 6308TIP3    H140415   1.246   0.323   1.464 -2.7140 -1.0521  1.5156
 6308TIP3    H240416   1.209   0.188   1.407  0.8447 -1.7945  0.7135
 6309TIP3   OH240417   1.528   2.505  11.976  0.1783 -0.1872  0.0566
 6309TIP3    H140418   1.463   2.448  12.015  0.6818 -0.7356  0.1128
 6309TIP3    H240419   1.598   2.509  12.042  0.6552 -0.4377 -0.4271
 6310TIP3   OH240420   2.331   1.210   3.575 -0.3869 -0.3058  0.0606
 6310TIP3    H140421   2.382   1.140   3.533  0.7347  0.3643  0.2633
 6310TIP3    H240422   2.396   1.262   3.622 -0.3317  3.6145 -3.7395
 6311TIP3   OH240423   3.529   6.476  13.161 -0.1675  0.7203  0.5727
 6311TIP3    H140424   3.490   6.471  13.248  0.0776  0.9062  0.6965
 6311TIP3    H240425   3.476   6.418  13.107 -0.0776  0.2877  0.9433
 6312TIP3   OH240426   6.007   6.437  17.235 -0.1337 -0.0901  0.1194
 6312TIP3    H140427   5.991   6.417  17.143 -1.0470 -3.1740  0.8415
 6312TIP3    H240428   6.087   6.390  17.257 -0.1867  0.2138  1.0326
 6313TIP3   OH240429   4.166   0.260   3.465 -0.5704 -0.2088  0.2342
 6313TIP3    H140430   4.257   0.289   3.460 -0.2414 -1.3301 -0.8079
 6313TIP3    H240431   4.127   0.315   3.533  1.2511 -0.6536  1.7354
 6314TIP3   OH240432   2.277   0.074   2.337 -0.2116  0.0649  0.0283
 6314TIP3    H140433   2.205   0.013   2.356  0.3889 -0.1704  1.7455
 6314TIP3    H240434   2.234   0.159   2.328 -0.7692 -0.1566  0.5010
 6315TIP3   OH240435   0.491   2.422   6.486 -0.3264 -0.2534 -0.6389
 6315TIP3    H140436   0.481   2.366   6.409  0.6835 -0.6740 -0.4758
 6315TIP3    H240437   0.540   2.369   6.548  1.0189  0.9389 -0.6327
 6316TIP3   OH240438   2.923   3.453   3.099  0.1195  0.3466  1.2530
 6316TIP3    H140439   2.917   3.359   3.112  0.2750 -0.2894 -2.2759
 6316TIP3    H240440   3.016   3.469   3.079 -0.5090  0.4196 -2.2915
 6317TIP3   OH240441   1.850   2.818  11.959  0.0870 -0.2228 -0.1374
 6317TIP3    H140442   1.888   2.800  11.873 -0.2335  1.2963 -0.6202
 6317TIP3    H240443   1.898   2.893  11.992 -0.2749 -0.3497  0.7060
 6318TIP3   OH240444   4.031   2.681   4.051 -0.5575  0.2770 -0.3569
 6318TIP3    H140445   4.083   2.699   4.129  0.1337  0.8511 -0.9258
 6318TIP3    H240446   4.077   2.609   4.008 -0.1768  0.8248 -0.8926
 6319TIP3   OH240447   4.772   5.018  14.058  0.4121 -0.5143 -0.5877
 6319TIP3    H140448   4.820   5.086  14.107 -2.7145  0.5619  1.2634
 6319TIP3    H240449   4.831   4.943  14.059  2.6473  1.1137  0.2550
 6320TIP3   OH240450   2.369   4.119  15.120 -0.6126 -0.3375 -0.0531
 6320TIP3    H140451   2.354   4.178  15.046 -0.0793 -0.9113 -0.6309
 6320TIP3    H240452   2.449   4.071  15.097 -0.5642 -0.6809  0.7941
 6321TIP3   OH240453   0.140   0.228  12.890  0.5066 -0.4820  1.0367
 6321TIP3    H140454   0.067   0.282  12.862 -1.5344 -2.7968  1.4786
 6321TIP3    H240455   0.162   0.260  12.978  0.6552  0.8282  0.5307
 6322TIP3   OH240456   4.037   5.763  16.721 -0.1745 -0.5402 -0.0939
 6322TIP3    H140457   4.000   5.812  16.647 -1.5848 -3.4503 -1.4595
 6322TIP3    H240458   3.974   5.775  16.792  0.2276  0.7053  0.0876
 6323TIP3   OH240459   5.037   2.177   0.081  0.6702 -0.2097 -0.4148
 6323TIP3    H140460   5.051   2.090   0.118  0.6370 -0.4267 -0.9044
 6323TIP3    H240461   5.110   2.230   0.115  0.2034 -0.1908  0.5957
 6324TIP3   OH240462   6.595   4.418   1.623 -0.2419 -0.0638  0.3123
 6324TIP3    H140463   6.632   4.338   1.585  1.2655 -0.1004  1.7612
 6324TIP3    H240464   6.618   4.487   1.561 -0.9011 -0.6217 -0.5771
 6325TIP3   OH240465   6.196   1.753  11.235  0.2206 -0.0457 -0.2311
 6325TIP3    H140466   6.167   1.733  11.145 -0.7597  1.6821 -0.3327
 6325TIP3    H240467   6.138   1.701  11.290 -0.7414  0.6732 -0.5447
 6326TIP3   OH240468   5.935   3.813   4.050  0.7015 -0.7627 -0.3241
 6326TIP3    H140469   5.963   3.903   4.065  2.0520 -0.9854 -1.3195
 6326TIP3    H240470   5.843   3.821   4.024  0.8039  0.3342 -0.3998
 6327TIP3   OH240471   3.340   0.677   2.797  0.1857  0.0053  0.3236
 6327TIP3    H140472   3.321   0.707   2.886 -2.0077  0.4599 -0.2159
 6327TIP3    H240473   3.364   0.757   2.750  0.3152 -0.0636  0.2725
 6328TIP3   OH240474   6.753   2.303   3.905  0.0053  0.3208 -0.4953
 6328TIP3    H140475   6.726   2.333   3.819 -1.8184  2.2254  0.6452
 6328TIP3    H240476   6.836   2.348   3.921 -0.7342  1.7127 -0.4247
 6329TIP3   OH240477   2.679   5.591  11.771 -0.3514  0.3955 -0.0852
 6329TIP3    H140478   2.768   5.616  11.747 -0.4367  1.0056  0.2158
 6329TIP3    H240479   2.624   5.626  11.701 -0.4964  1.2994  0.4607
 6330TIP3   OH240480   5.037   4.737  14.575  0.3079  0.1803  0.0816
 6330TIP3    H140481   4.978   4.698  14.511  1.4940 -1.6532  0.0167
 6330TIP3    H240482   5.069   4.817  14.533 -2.7576  1.7543  0.5045
 6331TIP3   OH240483   1.172   0.877  12.280  0.5577 -0.2086  0.2365
 6331TIP3    H140484   1.162   0.783  12.289  0.0718 -0.0382  1.6666
 6331TIP3    H240485   1.088   0.907  12.244  0.0855 -0.1447  1.3499
 6332TIP3   OH240486   6.250   4.183   5.958  0.2477  0.3231 -0.0004
 6332TIP3    H140487   6.266   4.212   5.868  0.0183 -1.2420 -0.5767
 6332TIP3    H240488   6.291   4.251   6.012  2.5851  0.0690 -1.3122
 6333TIP3   OH240489   4.328   4.497   1.413 -0.3095 -0.3164 -0.3864
 6333TIP3    H140490   4.320   4.487   1.319 -0.3566 -1.9842 -0.2418
 6333TIP3    H240491   4.275   4.426   1.450 -1.0826  0.8884  0.9178
 6334TIP3   OH240492   3.305   3.730   2.377  0.2621 -0.0887 -0.5929
 6334TIP3    H140493   3.282   3.730   2.284  0.3995 -1.6630 -0.6441
 6334TIP3    H240494   3.369   3.660   2.387 -1.5393 -1.6110  1.0966
 6335TIP3   OH240495   5.100   1.125   1.021 -0.4269  0.8533  0.3284
 6335TIP3    H140496   5.103   1.134   0.925 -1.9234 -2.4738 -0.1487
 6335TIP3    H240497   5.192   1.125   1.047  0.0857  0.3364 -1.3163
 6336TIP3   OH240498   2.225   0.669   5.051 -0.6993  0.0904 -0.0785
 6336TIP3    H140499   2.253   0.749   5.096  0.2936 -0.2554 -0.0513
 6336TIP3    H240500   2.183   0.617   5.120  0.8116 -0.4365  0.5096
 6337TIP3   OH240501   5.576   0.517   5.798  0.3609  0.5741  0.1906
 6337TIP3    H140502   5.597   0.480   5.884 -0.6157  2.1816  1.1830
 6337TIP3    H240503   5.571   0.611   5.813  1.8388  1.0871 -2.0217
 6338TIP3   OH240504   1.487   0.672  14.501 -0.1195  0.2373 -0.1649
 6338TIP3    H140505   1.555   0.700  14.439  0.0571 -1.1761 -0.6337
 6338TIP3    H240506   1.490   0.576  14.498 -0.5563  0.1502  1.5528
 6339TIP3   OH240507   1.274   3.534  15.037 -0.2310  0.0605 -0.1504
 6339TIP3    H140508   1.319   3.560  15.117  0.8614 -1.1305 -0.3352
 6339TIP3    H240509   1.222   3.610  15.012  0.4384  0.9069  0.9745
 6340TIP3   OH240510   4.803   5.313   4.751  0.6569 -0.1707 -0.2349
 6340TIP3    H140511   4.736   5.264   4.799 -1.4445  1.3071 -1.4573
 6340TIP3    H240512   4.827   5.384   4.811 -0.0841  0.2051 -0.3635
 6341TIP3   OH240513   3.195   1.675  16.578 -0.2090  0.3910 -0.7500
 6341TIP3    H140514   3.162   1.593  16.541 -0.2381  0.0738 -0.0334
 6341TIP3    H240515   3.140   1.742  16.540 -1.8742 -0.1470  0.5875
 6342TIP3   OH240516   2.598   4.800  15.449 -0.8467 -0.0530 -0.4271
 6342TIP3    H140517   2.603   4.729  15.514  1.4146  0.5478  0.1428
 6342TIP3    H240518   2.565   4.875  15.499  1.3494  0.5411  0.2438
 6343TIP3   OH240519   6.550   2.257   0.209 -0.0694 -0.4672  0.3744
 6343TIP3    H140520   6.553   2.177   0.157  0.9462 -0.3749  0.2607
 6343TIP3    H240521   6.466   2.253   0.255 -0.1517 -1.4540  0.1626
 6344TIP3   OH240522   6.469   6.256   5.621  0.0236 -0.4082 -0.9359
 6344TIP3    H140523   6.442   6.189   5.683 -1.4098  0.8897 -0.0916
 6344TIP3    H240524   6.450   6.339   5.665  0.2601  0.5594 -2.5696
 6345TIP3   OH240525   0.904   4.354  17.230  0.1470 -0.2670 -0.2997
 6345TIP3    H140526   0.964   4.380  17.300  1.3459 -0.8372 -1.0883
 6345TIP3    H240527   0.859   4.277  17.265  0.7462 -0.5532 -0.1353
 6346TIP3   OH240528   3.647   5.672  16.697 -0.4620  0.8269 -0.2617
 6346TIP3    H140529   3.575   5.610  16.707 -0.4305  1.0344  1.6134
 6346TIP3    H240530   3.605   5.754  16.670 -0.6450  0.3417 -1.4852
 6347TIP3   OH240531   6.606   5.953  13.391  0.2029 -0.1009  0.7279
 6347TIP3    H140532   6.583   6.032  13.342 -0.7189  1.5283  3.5093
 6347TIP3    H240533   6.702   5.953  13.393  0.2283  0.5117  0.0337
 6348TIP3   OH240534   3.152   6.062  13.885 -0.1057  0.2538 -0.0783
 6348TIP3    H140535   3.090   6.020  13.944 -1.1329  1.5641 -0.1580
 6348TIP3    H240536   3.097   6.108  13.822  0.9545  1.0247 -0.4771
 6349TIP3   OH240537   0.524   4.800   1.798 -0.0493 -0.4694 -0.3418
 6349TIP3    H140538   0.614   4.821   1.823 -0.3508  0.4857  0.0239
 6349TIP3    H240539   0.493   4.879   1.752 -1.0029 -0.3836  0.4070
 6350TIP3   OH240540   5.055   6.616  12.897  0.2547  0.2425  0.1072
 6350TIP3    H140541   5.040   6.581  12.809 -0.5868  0.1465  0.2778
 6350TIP3    H240542   4.987   6.575  12.951 -0.1889  1.4339  0.4963
 6351TIP3   OH240543   4.902   1.760  13.749 -0.1955 -0.1656  0.4224
 6351TIP3    H140544   4.893   1.694  13.817 -1.1147  0.9103  1.3663
 6351TIP3    H240545   4.824   1.814  13.756  0.7855  1.3806  0.0615
 6352TIP3   OH240546   5.752   2.961  16.940 -0.3027 -1.2350 -0.3270
 6352TIP3    H140547   5.698   2.962  17.019  1.5191  2.9991  1.1537
 6352TIP3    H240548   5.690   2.977  16.869 -1.3995  2.3025  1.1846
 6353TIP3   OH240549   1.200   4.863   2.836 -0.0380  0.2554  0.6299
 6353TIP3    H140550   1.155   4.787   2.874 -0.7583  1.9639  3.5363
 6353TIP3    H240551   1.131   4.930   2.830  0.4372  0.5989 -2.4014
 6354TIP3   OH240552   3.023   2.163   6.023  0.1950  0.0695  0.5077
 6354TIP3    H140553   3.114   2.175   6.047 -0.0541  0.7820  1.1125
 6354TIP3    H240554   2.983   2.122   6.100  0.2017 -1.1308 -0.1052
 6355TIP3   OH240555   6.021   2.436  15.022  0.2789 -0.2470  0.1325
 6355TIP3    H140556   5.938   2.476  14.995  0.4720  0.4667  0.5789
 6355TIP3    H240557   6.059   2.402  14.941 -0.0887  0.0955 -0.1886
 6356TIP3   OH240558   5.610   3.693   5.234 -0.3731 -0.2764 -0.0106
 6356TIP3    H140559   5.686   3.735   5.273 -1.8213  1.1297  1.3971
 6356TIP3    H240560   5.597   3.613   5.285 -1.0676  0.5498  1.1382
 6357TIP3   OH240561   0.393   2.472  12.450 -0.2652 -0.2884  0.5347
 6357TIP3    H140562   0.447   2.549  12.466 -0.7175  0.0192  0.6016
 6357TIP3    H240563   0.356   2.487  12.362  0.6682 -1.0440  0.0010
 6358TIP3   OH240564   1.592   6.003   4.573  0.4091  0.0212 -0.6165
 6358TIP3    H140565   1.674   5.954   4.581  0.2185 -0.2973 -0.5927
 6358TIP3    H240566   1.617   6.086   4.533  0.9208  0.3876  0.4175
 6359TIP3   OH240567   4.880   5.528   4.882  0.5281 -0.0664  0.4853
 6359TIP3    H140568   4.966   5.517   4.923  0.6416  0.8006  0.5045
 6359TIP3    H240569   4.899   5.552   4.792  0.2767 -3.1651 -0.5044
 6360TIP3   OH240570   0.853   0.788   3.082  0.2014 -0.3338  0.0473
 6360TIP3    H140571   0.856   0.812   3.175  0.5980  1.3052 -0.3653
 6360TIP3    H240572   0.939   0.750   3.064  0.3548 -0.0638  0.2049
 6361TIP3   OH240573   2.193   3.765  13.006 -0.0539 -0.6781  0.1597
 6361TIP3    H140574   2.196   3.712  13.085  1.4881 -0.6551  0.1449
 6361TIP3    H240575   2.231   3.849  13.032  0.4923 -0.6781 -0.6065
 6362TIP3   OH240576   2.332   2.370   3.755 -0.2418 -0.3015 -0.5868
 6362TIP3    H140577   2.298   2.458   3.772  1.5745  0.0243  1.9768
 6362TIP3    H240578   2.405   2.384   3.694 -0.1698 -0.0616 -0.4477
 6363TIP3   OH240579   2.718   0.439   4.647  0.4115  0.0164  0.6328
 6363TIP3    H140580   2.680   0.428   4.734  1.3752 -0.3174  1.0238
 6363TIP3    H240581   2.714   0.533   4.631  0.3257  0.0896  1.0765
 6364TIP3   OH240582   0.212   4.281  12.776 -0.1224  1.3348  0.5524
 6364TIP3    H140583   0.225   4.375  12.771 -1.8730  1.5487 -0.3853
 6364TIP3    H240584   0.158   4.259  12.700 -0.3713 -0.3096  1.1565
 6365TIP3   OH240585   1.136   4.781  17.097  0.4591 -0.0480 -0.0491
 6365TIP3    H140586   1.093   4.751  17.176 -2.5963 -1.2225 -1.9831
 6365TIP3    H240587   1.068   4.779  17.030  2.4850  2.3509 -2.4171
 6366TIP3   OH240588   6.235   4.273  13.878  0.9384 -0.4326 -0.0205
 6366TIP3    H140589   6.305   4.327  13.914  0.9514 -0.6291  0.2572
 6366TIP3    H240590   6.180   4.252  13.954  0.3667  0.0370 -0.2979
 6367TIP3   OH240591   3.354   0.905  12.619  0.0132 -0.1078  0.0116
 6367TIP3    H140592   3.423   0.938  12.677 -0.3684  3.3117 -1.2230
 6367TIP3    H240593   3.281   0.886  12.678  1.3212 -1.9716  1.1288
 6368TIP3   OH240594   5.055   3.449  16.150 -0.5838  0.6820  0.4010
 6368TIP3    H140595   5.140   3.424  16.186 -1.4928 -4.7213 -0.2505
 6368TIP3    H240596   5.069   3.453  16.055 -0.8123  0.9589  0.3788
 6369TIP3   OH240597   2.275   4.547   5.499  0.0835  0.5218 -0.1059
 6369TIP3    H140598   2.258   4.539   5.593  0.5901  0.6647  0.0004
 6369TIP3    H240599   2.370   4.551   5.492  0.1659 -1.5547 -0.7899
 6370TIP3   OH240600   5.306   1.584  15.975 -0.0599 -0.4318  0.1446
 6370TIP3    H140601   5.296   1.658  15.915  0.0251  0.3246  1.0357
 6370TIP3    H240602   5.397   1.590  16.004  0.4191 -1.8476 -0.9836
 6371TIP3   OH240603   6.307   1.370  17.092 -0.0542 -0.2649  0.2602
 6371TIP3    H140604   6.246   1.322  17.147 -2.3012  1.1671 -0.8354
 6371TIP3    H240605   6.286   1.462  17.107  0.7252  0.2179 -1.3806
 6372TIP3   OH240606   1.392   3.436  12.462  0.5580 -0.8244 -0.3694
 6372TIP3    H140607   1.470   3.387  12.436  1.2726 -0.1051  0.3837
 6372TIP3    H240608   1.425   3.518  12.498 -0.5187 -0.7580  0.5190
 6373TIP3   OH240609   4.479   5.547   1.561  0.5337  0.3322 -0.3890
 6373TIP3    H140610   4.435   5.559   1.477 -1.5112  0.6191  0.6662
 6373TIP3    H240611   4.502   5.636   1.589 -1.6506  0.6036  0.7609
 6374TIP3   OH240612   1.954   4.214  11.194 -0.1358  0.0060 -0.0284
 6374TIP3    H140613   1.943   4.280  11.126  0.1122  1.1050  0.9586
 6374TIP3    H240614   1.913   4.252  11.272  0.8483 -0.5826  0.8174
 6375TIP3   OH240615   3.217   0.527   0.912  0.2281 -0.4835 -0.2714
 6375TIP3    H140616   3.277   0.557   0.844 -0.3105  1.1792 -0.0625
 6375TIP3    H240617   3.180   0.608   0.948 -1.2522 -1.4225  0.3947
 6376TIP3   OH240618   0.610   5.510  13.809 -0.0883 -0.3234  0.1379
 6376TIP3    H140619   0.681   5.574  13.814  1.5653 -1.9622 -0.8183
 6376TIP3    H240620   0.627   5.451  13.883  0.6160 -1.7093 -1.0851
 6377TIP3   OH240621   5.323   2.455   0.394 -0.1014  0.0901  0.6807
 6377TIP3    H140622   5.232   2.481   0.409 -0.1473  2.2953 -2.4239
 6377TIP3    H240623   5.317   2.387   0.326  0.5512 -0.6888  1.3820
 6378TIP3   OH240624   2.225   6.395   2.764  0.2388  0.0524 -0.0925
 6378TIP3    H140625   2.186   6.482   2.775 -1.6703 -0.7976  0.2675
 6378TIP3    H240626   2.204   6.349   2.844 -0.4708 -1.3489 -1.0449
 6379TIP3   OH240627   3.395   0.913  14.846 -0.0434  0.7841 -0.7355
 6379TIP3    H140628   3.360   0.825  14.836  1.2220  0.1143  0.5260
 6379TIP3    H240629   3.322   0.970  14.822 -0.8634 -0.5880 -1.6185
 6380TIP3   OH240630   0.249   0.627  12.362 -0.0583 -0.0914  0.4846
 6380TIP3    H140631   0.306   0.566  12.410 -0.7988 -0.9972  0.2366
 6380TIP3    H240632   0.177   0.573  12.330 -1.7512  1.2260  1.8405
 6381TIP3   OH240633   6.154   0.303   3.162  0.4334  0.1727 -0.1482
 6381TIP3    H140634   6.135   0.358   3.237  0.8861 -1.3745  1.1647
 6381TIP3    H240635   6.069   0.290   3.119 -0.2672 -0.7037  1.4021
 6382TIP3   OH240636   5.716   6.250  11.472 -0.0727 -0.3488  0.4168
 6382TIP3    H140637   5.767   6.272  11.550 -0.9899  0.3142  0.8479
 6382TIP3    H240638   5.675   6.166  11.492  1.8793 -1.6020 -0.4688
 6383TIP3   OH240639   6.326   5.765  11.317  0.2543 -0.1194  0.2046
 6383TIP3    H140640   6.257   5.739  11.377 -1.5902 -2.9610 -2.8320
 6383TIP3    H240641   6.293   5.844  11.274 -0.7759 -0.9539 -0.5876
 6384TIP3   OH240642   4.967   5.250  12.969 -0.5246 -0.6946 -0.1382
 6384TIP3    H140643   5.060   5.259  12.950 -0.9948  0.4150 -2.2538
 6384TIP3    H240644   4.960   5.171  13.022  1.6881 -0.3038  0.8330
 6385TIP3   OH240645   6.141   0.816  14.516 -0.3385  0.0964 -0.3850
 6385TIP3    H140646   6.096   0.851  14.439  1.1644 -1.1193 -1.8665
 6385TIP3    H240647   6.230   0.800  14.487  1.0469  2.0187  2.3447
 6386TIP3   OH240648   2.552   2.539   1.198  0.4255 -0.4150  0.6738
 6386TIP3    H140649   2.568   2.633   1.208 -1.0541 -0.0147 -0.2655
 6386TIP3    H240650   2.539   2.527   1.104  0.0033 -1.4514  0.8519
 6387TIP3   OH240651   4.286   4.974  15.442 -0.7361 -0.2127  0.1344
 6387TIP3    H140652   4.341   4.955  15.366 -1.2807  2.9695 -1.2224
 6387TIP3    H240653   4.254   4.888  15.471  3.2129 -2.0183 -0.2185
 6388TIP3   OH240654   6.475   0.025  12.525  0.1157  0.0123 -0.5875
 6388TIP3    H140655   6.417  -0.043  12.490 -0.2694 -0.1676  0.3812
 6388TIP3    H240656   6.563  -0.004  12.500  0.0825 -1.5892  0.9718
 6389TIP3   OH240657   5.780   2.863   4.493  0.0046  0.0568 -0.0638
 6389TIP3    H140658   5.822   2.815   4.422  0.1149 -0.9946  0.6800
 6389TIP3    H240659   5.689   2.833   4.492 -0.1092  0.4080 -0.0761
 6390TIP3   OH240660   1.017   0.938   4.591  0.1987  0.3481  0.3690
 6390TIP3    H140661   0.973   0.921   4.674  1.0485 -0.5154  0.6659
 6390TIP3    H240662   1.110   0.943   4.614  0.2974  1.9596 -0.2705
 6391TIP3   OH240663   6.821   4.786   5.330  0.1239  0.3065  0.1722
 6391TIP3    H140664   6.874   4.710   5.355 -0.5719 -0.2171  0.0918
 6391TIP3    H240665   6.733   4.750   5.314 -0.1648  1.0952 -0.0769
 6392TIP3   OH240666   5.523   2.545   2.337  0.4705  0.4637 -0.1307
 6392TIP3    H140667   5.436   2.542   2.296  1.2699 -0.3397 -1.8716
 6392TIP3    H240668   5.514   2.491   2.415 -0.7476  0.8729  0.0299
 6393TIP3   OH240669   3.781   1.035  14.464  0.1860  0.0979  0.1998
 6393TIP3    H140670   3.725   1.032  14.541 -0.5769 -1.5608 -0.3705
 6393TIP3    H240671   3.797   1.128  14.450  0.6304  0.4274  2.5252
 6394TIP3   OH240672   0.726   6.686   1.525  0.6531  0.2711  0.5934
 6394TIP3    H140673   0.659   6.746   1.555 -0.3368 -0.9657  0.9544
 6394TIP3    H240674   0.698   6.659   1.438  0.8637  0.0153  0.6022
 6395TIP3   OH240675   4.189   4.308  13.444  0.3300  0.6037 -0.3429
 6395TIP3    H140676   4.229   4.275  13.363 -0.0491 -0.7276 -0.0235
 6395TIP3    H240677   4.137   4.383  13.416  1.5774  1.2320 -1.0486
 6396TIP3   OH240678   3.668   4.072  16.707 -0.0320  0.0581 -0.1893
 6396TIP3    H140679   3.640   4.059  16.798 -1.4376  1.2830 -0.4277
 6396TIP3    H240680   3.719   3.993  16.687 -2.3233 -1.7625  0.6551
 6397TIP3   OH240681   6.214   3.276  11.018 -0.0271  0.8061  0.2098
 6397TIP3    H140682   6.282   3.248  10.956 -1.1807 -3.8075  0.6959
 6397TIP3    H240683   6.135   3.282  10.965 -0.5879 -1.0237  0.7852
 6398TIP3   OH240684   4.458   2.328  14.112  0.1271 -0.1377 -0.1924
 6398TIP3    H140685   4.445   2.233  14.115 -1.8853  0.0915  0.0099
 6398TIP3    H240686   4.486   2.351  14.201  1.2773 -0.6119 -0.4268
 6399TIP3   OH240687   6.292   5.467  11.918  0.4665 -0.2151  0.3633
 6399TIP3    H140688   6.251   5.443  12.001 -0.1620  0.9263  0.4144
 6399TIP3    H240689   6.294   5.386  11.867 -0.2118 -0.6723  1.0482
 6400TIP3   OH240690   1.849   1.122   3.364 -0.3724  0.1554 -0.1630
 6400TIP3    H140691   1.807   1.036   3.371  1.6097 -0.7758  1.3602
 6400TIP3    H240692   1.873   1.130   3.272 -0.1249 -1.1700 -0.2316
 6401TIP3   OH240693   5.176   2.379  16.641  0.6051 -0.4847 -0.0818
 6401TIP3    H140694   5.213   2.457  16.682 -0.4836 -0.3907  0.7816
 6401TIP3    H240695   5.245   2.348  16.581  1.2960  0.7539  0.0389
 6402TIP3   OH240696   2.044   0.031   5.276 -0.2435  0.0788  0.2024
 6402TIP3    H140697   2.073   0.013   5.365  0.1847 -1.2984 -0.1986
 6402TIP3    H240698   2.094  -0.029   5.221  0.3048  1.6603 -1.1022
 6403TIP3   OH240699   3.664   6.694  12.751  0.3057 -0.0597  0.1904
 6403TIP3    H140700   3.588   6.733  12.795 -0.6807 -0.1678 -1.3180
 6403TIP3    H240701   3.676   6.749  12.673  1.9497  0.0938  0.5305
 6404TIP3   OH240702   0.806   4.652  12.064 -0.0579  0.0458 -0.7159
 6404TIP3    H140703   0.771   4.691  12.144 -0.8878  0.8767 -1.4640
 6404TIP3    H240704   0.782   4.560  12.069 -2.6106  0.6157 -1.3021
 6405TIP3   OH240705   5.010   2.988   1.785 -0.2341  0.0926 -0.2099
 6405TIP3    H140706   4.999   2.932   1.862 -2.2433 -0.5352 -0.8824
 6405TIP3    H240707   4.988   3.076   1.815 -1.0208 -0.1514 -0.0510
 6406TIP3   OH240708   3.722   1.579   0.488 -0.5536 -0.3572  0.6269
 6406TIP3    H140709   3.788   1.582   0.557 -0.4112  2.3394  0.4987
 6406TIP3    H240710   3.646   1.623   0.526 -1.5577 -1.5351  0.0571
 6407TIP3   OH240711   0.928   6.477  16.636 -0.0866 -0.1269  0.4110
 6407TIP3    H140712   0.928   6.572  16.629  0.3147 -0.0585  1.1396
 6407TIP3    H240713   0.960   6.460  16.725  0.9195 -0.9669 -0.0819
 6408TIP3   OH240714   5.741   4.412  17.165 -0.1071 -0.2215  0.1516
 6408TIP3    H140715   5.809   4.351  17.195 -0.0071 -1.1340 -1.7496
 6408TIP3    H240716   5.683   4.422  17.240  1.8656  0.2599  1.7040
 6409TIP3   OH240717   1.592   0.058   1.029  0.7302  0.6484  0.1820
 6409TIP3    H140718   1.592   0.036   0.935 -0.2013 -0.1980  0.3678
 6409TIP3    H240719   1.518   0.118   1.039  0.0214 -0.2690  0.5824
 6410TIP3   OH240720   0.951   2.495  13.308  0.2069 -0.1006 -0.5400
 6410TIP3    H140721   0.936   2.590  13.314  0.7581 -0.0604  0.3931
 6410TIP3    H240722   0.967   2.479  13.215 -1.7238  0.4244 -1.0230
 6411TIP3   OH240723   5.067   3.303  12.209 -0.0967  0.3034  0.1890
 6411TIP3    H140724   5.134   3.360  12.247  0.2865 -0.4534  0.6559
 6411TIP3    H240725   4.996   3.303  12.273  0.1139 -0.1363  0.4286
 6412TIP3   OH240726   0.112   3.805   3.432  0.5683 -0.3163  0.3249
 6412TIP3    H140727   0.196   3.809   3.479 -0.4038  2.0475  2.0073
 6412TIP3    H240728   0.106   3.888   3.386 -0.2376 -1.0631 -0.9841
 6413TIP3   OH240729   0.392   3.270  15.595  0.3295 -0.6543 -0.3682
 6413TIP3    H140730   0.359   3.359  15.585 -0.5630 -0.8044  0.9733
 6413TIP3    H240731   0.480   3.281  15.631  0.2086 -0.3187 -0.1723
 6414TIP3   OH240732   2.167   5.530   5.007 -0.0762 -0.0973  0.2290
 6414TIP3    H140733   2.190   5.447   4.965 -1.0710 -0.2260 -0.0881
 6414TIP3    H240734   2.173   5.595   4.937 -0.9622 -0.1825  0.0692
 6415TIP3   OH240735   4.212   0.517   3.619 -0.0688  0.5911  0.0466
 6415TIP3    H140736   4.116   0.520   3.616 -0.1612 -1.3614 -0.0084
 6415TIP3    H240737   4.233   0.553   3.705 -1.0294 -1.1793  1.0808
 6416TIP3   OH240738   0.008   5.379  17.163  0.1999  0.2625  0.6250
 6416TIP3    H140739   0.002   5.468  17.129 -0.9561  0.3886  1.1218
 6416TIP3    H240740   0.022   5.324  17.086 -0.4550  0.7387  0.1597
 6417TIP3   OH240741   5.992   5.602   1.844  0.5349  1.4017 -0.0275
 6417TIP3    H140742   6.060   5.669   1.852  2.5164 -0.2031 -2.1202
 6417TIP3    H240743   5.979   5.591   1.750  0.0419 -0.8770  0.2398
 6418TIP3   OH240744   3.409   6.648  17.170 -0.2459  0.5672  0.2541
 6418TIP3    H140745   3.402   6.655  17.265 -0.7259  2.0515  0.1324
 6418TIP3    H240746   3.480   6.585  17.155 -0.4347  0.0214  1.5792
 6419TIP3   OH240747   3.024   3.236   3.438 -0.1012 -0.5694 -0.7165
 6419TIP3    H140748   2.990   3.150   3.464 -0.2146 -0.4088 -0.3345
 6419TIP3    H240749   3.097   3.215   3.379  1.0734 -0.9764  0.8278
 6420TIP3   OH240750   0.404   6.721  16.673 -0.3372 -0.7301  0.0859
 6420TIP3    H140751   0.463   6.650  16.646  1.1097  0.5184 -0.1532
 6420TIP3    H240752   0.420   6.791  16.611  0.0824  0.7213  1.7513
 6421TIP3   OH240753   6.254   4.650   5.368  0.0733  0.0047 -0.0401
 6421TIP3    H140754   6.283   4.563   5.395 -3.4448 -0.9090  1.3652
 6421TIP3    H240755   6.247   4.645   5.273  0.4145 -1.0756 -0.0271
 6422TIP3   OH240756   1.477   1.372   3.754 -0.0170 -0.0442  0.0362
 6422TIP3    H140757   1.388   1.395   3.781  0.0737  0.7408 -0.3055
 6422TIP3    H240758   1.533   1.412   3.821  0.0897 -0.3568  0.1338
 6423TIP3   OH240759   5.484   2.214  11.647 -0.4270  0.5345 -0.1330
 6423TIP3    H140760   5.402   2.203  11.695  0.0415  0.7385  0.7385
 6423TIP3    H240761   5.457   2.236  11.558 -1.3328 -0.8789 -0.2426
 6424TIP3   OH240762   4.529   6.147  15.862  0.4004 -0.7184  0.0874
 6424TIP3    H140763   4.502   6.055  15.865 -4.1524  0.3499  2.6270
 6424TIP3    H240764   4.454   6.192  15.824  0.1527  2.3117  3.5712
 6425TIP3   OH240765   2.003   4.598   0.892  0.2533 -0.9754  0.3205
 6425TIP3    H140766   2.032   4.597   0.983  0.9264 -0.6001  0.1128
 6425TIP3    H240767   2.003   4.506   0.866  2.3056 -0.9294  0.0115
 6426TIP3   OH240768   3.382   4.725   0.991  0.2880  0.1569  0.5195
 6426TIP3    H140769   3.336   4.674   0.925  1.2485 -0.3737  0.2495
 6426TIP3    H240770   3.355   4.686   1.074 -0.3491  0.3594  0.4175
 6427TIP3   OH240771   2.813   5.213   3.919  0.1819 -0.4261 -0.1205
 6427TIP3    H140772   2.907   5.216   3.898  0.8732 -0.6229  2.4812
 6427TIP3    H240773   2.780   5.299   3.895  1.2990  0.0324 -0.1150
 6428TIP3   OH240774   3.064   0.435  12.942  0.1204  0.2534  0.3593
 6428TIP3    H140775   3.047   0.501  12.875  0.2233  1.0627  1.1174
 6428TIP3    H240776   3.107   0.483  13.013  0.8831 -0.7752  0.6123
 6429TIP3   OH240777   2.769   4.559  14.730  0.3317 -0.4687 -0.3138
 6429TIP3    H140778   2.754   4.562  14.635  0.4403 -0.9115 -0.3460
 6429TIP3    H240779   2.862   4.536  14.738  0.5534  0.4643 -0.1042
 6430TIP3   OH240780   4.071   5.533  15.124 -0.3415 -0.1201 -0.8898
 6430TIP3    H140781   4.048   5.615  15.167 -1.0409 -0.5948 -0.3368
 6430TIP3    H240782   4.097   5.559  15.036 -0.1100  0.7396 -0.5779
 6431TIP3   OH240783   6.116   5.879   5.038 -0.8602  0.5920  0.2193
 6431TIP3    H140784   6.056   5.941   4.996 -1.5132 -0.9531 -1.2421
 6431TIP3    H240785   6.118   5.804   4.979  2.4650  0.5129  0.2753
 6432TIP3   OH240786   0.197   1.914   1.000  0.1964 -0.0809  0.1016
 6432TIP3    H140787   0.122   1.887   1.053 -0.5140 -1.2191 -1.3974
 6432TIP3    H240788   0.161   1.921   0.911  2.1561 -2.1366 -0.9477
 6433TIP3   OH240789   2.611   0.408   3.438 -0.3385 -0.1680  0.1037
 6433TIP3    H140790   2.528   0.454   3.425  0.3034  1.1721  0.5828
 6433TIP3    H240791   2.590   0.316   3.425 -1.5148  0.3022 -1.6816
 6434TIP3   OH240792   5.078   6.171  11.909 -0.1654  0.6811  0.6854
 6434TIP3    H140793   5.051   6.262  11.898  0.2378  0.6049 -1.1676
 6434TIP3    H240794   5.003   6.120  11.877 -0.0312  0.3795  0.8443
 6435TIP3   OH240795   6.444   0.180   5.159 -0.0993  1.0316  0.0679
 6435TIP3    H140796   6.501   0.229   5.099  0.9638  0.4100  0.5417
 6435TIP3    H240797   6.359   0.223   5.150  0.2548  1.5390 -1.1868
 6436TIP3   OH240798   1.555   2.453   5.102 -0.3915  0.5807 -0.1975
 6436TIP3    H140799   1.590   2.383   5.156 -1.1473  0.8074  0.6156
 6436TIP3    H240800   1.557   2.419   5.013 -0.8565 -0.5282  0.2007
 6437TIP3   OH240801   1.160   4.359   3.704  0.3882 -0.5405 -0.3171
 6437TIP3    H140802   1.106   4.283   3.682  0.0024 -0.7459  1.2203
 6437TIP3    H240803   1.099   4.433   3.704  0.0617 -0.7692  1.3993
 6438TIP3   OH240804   4.574   6.375   1.033 -0.1257 -0.1449  0.2246
 6438TIP3    H140805   4.493   6.377   1.083  0.1731 -0.8062  0.7526
 6438TIP3    H240806   4.546   6.379   0.942 -0.6345  2.4878  0.3989
 6439TIP3   OH240807   3.592   2.093  15.807 -0.2075 -0.1269  0.0720
 6439TIP3    H140808   3.578   2.173  15.858 -0.8646  0.3826 -0.8559
 6439TIP3    H240809   3.679   2.063  15.832 -0.5233  0.0763  1.5027
 6440TIP3   OH240810   3.976   0.493  11.505 -0.9622 -0.0916 -0.3261
 6440TIP3    H140811   4.026   0.431  11.559  0.3183  0.5336 -0.7312
 6440TIP3    H240812   3.905   0.442  11.468  0.0240 -1.3036 -0.5922
 6441TIP3   OH240813   6.579   5.514  12.818 -0.2435  0.3180 -0.1565
 6441TIP3    H140814   6.655   5.471  12.859  0.2705  2.1708  0.9224
 6441TIP3    H240815   6.612   5.597  12.786 -1.6869  0.8871 -0.2460
 6442TIP3   OH240816   1.668   5.351  14.407  0.5131  0.0217 -0.1031
 6442TIP3    H140817   1.576   5.330  14.398  0.0189  0.8885  2.1698
 6442TIP3    H240818   1.700   5.360  14.318 -1.6579 -0.0363 -0.9339
 6443TIP3   OH240819   3.467   5.560   4.737  0.4045  0.2379  0.1214
 6443TIP3    H140820   3.402   5.568   4.807 -0.8351  0.4009 -1.0112
 6443TIP3    H240821   3.489   5.467   4.735  0.6999  0.2834  0.9318
 6444TIP3   OH240822   5.039   3.408   4.970  0.4006 -0.6160  0.8260
 6444TIP3    H140823   5.071   3.494   4.941  2.5457 -1.5511  0.2802
 6444TIP3    H240824   4.988   3.427   5.049  1.2951  1.0875  1.0411
 6445TIP3   OH240825   0.755   5.589  14.707 -0.0633  0.3301  0.2539
 6445TIP3    H140826   0.767   5.506  14.754 -1.2594  0.5563  0.9927
 6445TIP3    H240827   0.731   5.562  14.618 -1.2597 -0.1475  0.6989
 6446TIP3   OH240828   1.979   0.455   2.925 -0.1057 -0.6301 -0.3811
 6446TIP3    H140829   2.031   0.381   2.894 -0.5367 -0.3579 -1.8475
 6446TIP3    H240830   1.891   0.438   2.892 -0.2523  0.4307 -0.5831
 6447TIP3   OH240831   5.458   6.632  16.101  0.4772 -0.4566 -0.2021
 6447TIP3    H140832   5.419   6.569  16.041 -1.6050  0.7473 -0.2139
 6447TIP3    H240833   5.543   6.653  16.063 -0.4898 -0.2511 -2.3851
 6448TIP3   OH240834   6.402   5.054   6.018 -0.3079  0.2402  0.3828
 6448TIP3    H140835   6.475   5.037   6.078 -0.0868  1.8613  0.6223
 6448TIP3    H240836   6.379   4.968   5.983  2.4772 -0.2067 -0.5937
 6449TIP3   OH240837   2.095   0.884   0.639  0.5105 -0.2902 -0.0279
 6449TIP3    H140838   2.054   0.968   0.660 -2.0251 -1.5002  0.3263
 6449TIP3    H240839   2.189   0.902   0.641  0.0823  2.3942  0.5444
 6450TIP3   OH240840   0.777   3.515  13.611  0.4893  0.2611  0.1643
 6450TIP3    H140841   0.860   3.530  13.565  1.4382  2.2877  2.3295
 6450TIP3    H240842   0.800   3.458  13.685 -0.2956 -0.1463  0.1058
 6451TIP3   OH240843   5.757   5.258  11.526  0.4328 -0.4791  0.3917
 6451TIP3    H140844   5.768   5.208  11.445 -1.3346 -1.2332  0.5704
 6451TIP3    H240845   5.719   5.341  11.497  2.0893  0.2690  0.2383
 6452TIP3   OH240846   0.077   4.781   1.053  0.3364 -0.2373 -0.0855
 6452TIP3    H140847   0.140   4.794   0.982  0.2584  0.8925  0.0459
 6452TIP3    H240848  -0.007   4.767   1.008  0.2840  0.4861 -0.2189
 6453TIP3   OH240849   3.351   1.461  12.063  0.1656  0.0519 -0.1402
 6453TIP3    H140850   3.279   1.480  12.003 -0.2255  1.9139  0.8281
 6453TIP3    H240851   3.410   1.404  12.014 -1.2217 -0.2710 -1.4847
 6454TIP3   OH240852   1.497   2.775   4.616  0.3433  0.3370 -0.3471
 6454TIP3    H140853   1.435   2.785   4.688  1.9098 -0.7376  1.2313
 6454TIP3    H240854   1.487   2.855   4.564 -1.7445  0.5432  0.2896
 6455TIP3   OH240855   5.328   0.062   5.566 -0.0106  0.0974  0.3553
 6455TIP3    H140856   5.374   0.042   5.648  0.2759 -0.9466 -0.0371
 6455TIP3    H240857   5.245   0.101   5.593 -0.3999 -1.2566  1.1872
 6456TIP3   OH240858   3.846   4.141  12.272 -0.0960  0.3457  0.4577
 6456TIP3    H140859   3.914   4.164  12.209  1.1001 -0.7579  1.2792
 6456TIP3    H240860   3.879   4.173  12.356 -1.4255  1.3443  0.6251
 6457TIP3   OH240861   6.810   0.174  14.543  0.7593  0.1393  0.0216
 6457TIP3    H140862   6.747   0.219  14.486  2.1004 -1.4570 -2.9708
 6457TIP3    H240863   6.782   0.083  14.545  3.3211 -0.8623 -2.2768
 6458TIP3   OH240864   6.256   3.867  16.725  0.3356 -0.3300 -0.0762
 6458TIP3    H140865   6.338   3.883  16.772 -0.0294  0.0141  0.4614
 6458TIP3    H240866   6.214   3.953  16.719 -1.3191 -0.8757  2.2030
 6459TIP3   OH240867   0.187   3.708  15.184 -0.0926 -0.5496 -0.0851
 6459TIP3    H140868   0.257   3.648  15.208  0.6303  0.1453 -0.4016
 6459TIP3    H240869   0.130   3.712  15.262  0.8632 -0.2299  0.6141
 6460TIP3   OH240870   5.722   2.397  12.943 -0.2117  0.6260  0.2365
 6460TIP3    H140871   5.808   2.378  12.981 -0.1060  0.7647  0.0713
 6460TIP3    H240872   5.661   2.341  12.991  0.0896 -0.1088 -0.2277
 6461TIP3   OH240873   3.160   1.411  16.521 -0.3662 -0.0906  0.6102
 6461TIP3    H140874   3.137   1.322  16.549 -0.4103 -0.3313 -0.1648
 6461TIP3    H240875   3.255   1.416  16.531 -0.5534  0.4478  2.5222
 6462TIP3   OH240876   3.780   6.333  11.072 -0.4073 -0.2911 -0.0916
 6462TIP3    H140877   3.797   6.256  11.127 -0.9081 -0.0374  0.4403
 6462TIP3    H240878   3.756   6.402  11.135 -0.4535  0.1549 -0.5945
 6463TIP3   OH240879   0.666   1.437  16.408  0.3078  0.1750 -0.1972
 6463TIP3    H140880   0.595   1.472  16.462  0.7461 -0.0013  0.5027
 6463TIP3    H240881   0.622   1.380  16.345 -0.4026  1.7447 -1.1897
 6464TIP3   OH240882   2.170   6.459   5.633  0.0829 -0.2021  0.0090
 6464TIP3    H140883   2.134   6.496   5.713 -0.7475  0.6106 -0.7373
 6464TIP3    H240884   2.170   6.364   5.649  1.5715  0.0202  1.6448
 6465TIP3   OH240885   3.793   5.447  12.467  0.1564  0.2877 -0.2317
 6465TIP3    H140886   3.792   5.359  12.428 -1.5160 -0.0160  0.4200
 6465TIP3    H240887   3.826   5.434  12.556 -1.8764 -0.0369  0.5295
 6466TIP3   OH240888   4.523   6.076   2.730  0.3633 -0.3894  0.5115
 6466TIP3    H140889   4.467   6.028   2.791 -1.8161  0.9885 -0.2953
 6466TIP3    H240890   4.507   6.168   2.751  1.5832  0.0551 -0.4198
 6467TIP3   OH240891   0.701   0.663   0.541 -0.9094  0.3787  0.0240
 6467TIP3    H140892   0.714   0.658   0.635 -1.4393 -0.5295  0.0582
 6467TIP3    H240893   0.785   0.637   0.503 -0.8607  0.2104  0.2466
 6468TIP3   OH240894   3.287   1.221  13.899  0.3421  0.3059  0.0747
 6468TIP3    H140895   3.213   1.160  13.898 -0.1430  0.8514 -1.9438
 6468TIP3    H240896   3.348   1.183  13.962 -0.5454 -1.5470 -0.1090
 6469TIP3   OH240897   4.563   6.293  11.633 -0.1435 -0.0454  0.1202
 6469TIP3    H140898   4.471   6.319  11.621  0.2598  0.9743 -0.8862
 6469TIP3    H240899   4.569   6.206  11.594 -0.6038  0.0190 -0.0975
 6470TIP3   OH240900   4.297   5.961  12.095  0.0521 -0.1076 -0.1768
 6470TIP3    H140901   4.269   5.982  12.006  0.7657  1.4278 -0.0671
 6470TIP3    H240902   4.229   5.998  12.152  0.7573  1.0021 -0.0221
 6471TIP3   OH240903   6.088   4.343   2.054  0.4888 -0.1597  0.2502
 6471TIP3    H140904   6.135   4.412   2.008 -0.6799 -0.4308 -1.4105
 6471TIP3    H240905   6.054   4.286   1.985  1.3440 -2.3871  1.5602
 6472TIP3   OH240906   3.114   4.765   3.169 -0.3796 -0.4691 -0.4682
 6472TIP3    H140907   3.197   4.772   3.121 -0.1027  0.9660  0.1785
 6472TIP3    H240908   3.059   4.834   3.132 -0.0911  0.8004  1.3606
 6473TIP3   OH240909   4.397   6.648   2.698  0.6172  0.3898  0.1582
 6473TIP3    H140910   4.489   6.662   2.718  0.7065  0.5317 -0.3310
 6473TIP3    H240911   4.375   6.719   2.637  0.6430 -0.6601 -1.1064
 6474TIP3   OH240912   0.637   2.527   0.898  0.2202 -0.1987  0.3983
 6474TIP3    H140913   0.664   2.508   0.808  0.1720  0.8017  0.1632
 6474TIP3    H240914   0.666   2.451   0.949 -1.8755 -1.9407 -0.8503
 6475TIP3   OH240915   0.538   6.233   5.066  0.5482 -0.9309  0.1120
 6475TIP3    H140916   0.453   6.275   5.052  1.6929  1.5648  0.1404
 6475TIP3    H240917   0.561   6.196   4.981  0.9640  1.4903 -0.9205
 6476TIP3   OH240918   0.755   5.030  13.351  0.0406 -0.0129 -0.3395
 6476TIP3    H140919   0.685   4.996  13.407 -0.3948  0.9010 -0.3018
 6476TIP3    H240920   0.710   5.058  13.272  0.3955  0.3664 -0.4112
 6477TIP3   OH240921   6.430   2.343   2.678  0.1936  0.3489  0.1325
 6477TIP3    H140922   6.420   2.368   2.586 -0.0496 -0.1133  0.0294
 6477TIP3    H240923   6.501   2.279   2.678  2.1737  2.4073  0.6529
 6478TIP3   OH240924   6.572   4.154   3.833  0.6159 -0.3373 -0.0349
 6478TIP3    H140925   6.569   4.164   3.928  1.2395  1.4781 -0.1606
 6478TIP3    H240926   6.597   4.063   3.819  0.7304 -0.5787  1.5461
 6479TIP3   OH240927   1.077   6.648  13.550  0.5539  0.0447  0.3385
 6479TIP3    H140928   1.003   6.605  13.592  0.1428 -0.8840 -1.2750
 6479TIP3    H240929   1.143   6.654  13.619 -0.4254 -0.5529  1.3656
 6480TIP3   OH240930   0.811   5.337  13.442  0.3662 -0.4046 -0.5913
 6480TIP3    H140931   0.892   5.389  13.448  0.2097  0.0285 -1.9605
 6480TIP3    H240932   0.833   5.255  13.485  0.9112  0.4285  0.8058
 6481TIP3   OH240933   3.985   2.912  15.079 -0.1564  0.8975 -0.1254
 6481TIP3    H140934   3.957   2.985  15.134  0.2049  1.5812 -0.8256
 6481TIP3    H240935   4.069   2.940  15.043 -0.0220  0.1439 -0.4123
 6482TIP3   OH240936   1.447   6.781   0.483  0.3224 -0.4675  0.4162
 6482TIP3    H140937   1.413   6.830   0.558  0.1306 -0.1212  0.1056
 6482TIP3    H240938   1.470   6.696   0.519  0.6425 -0.1565  0.9606
 6483TIP3   OH240939   3.869   3.869   4.474 -0.9865  0.0800 -0.1301
 6483TIP3    H140940   3.801   3.925   4.511  0.6369  0.8697  1.8438
 6483TIP3    H240941   3.905   3.821   4.549  1.4847  0.6665 -0.8427
 6484TIP3   OH240942   5.629   0.791  11.798 -0.8789 -0.5327  0.3682
 6484TIP3    H140943   5.672   0.850  11.737 -0.6061 -2.6096 -1.5685
 6484TIP3    H240944   5.660   0.818  11.885  0.6045  0.9838 -0.5921
 6485TIP3   OH240945   2.076   4.738   5.151  0.0827  0.1685 -0.5199
 6485TIP3    H140946   2.126   4.663   5.181  1.7460  2.0671  1.8059
 6485TIP3    H240947   2.138   4.790   5.100 -0.2403  1.2596  0.1582
 6486TIP3   OH240948   1.016   4.425  15.778  0.6468  0.0299 -0.0448
 6486TIP3    H140949   1.014   4.381  15.864  1.2065  0.7126  0.3222
 6486TIP3    H240950   1.083   4.492  15.787 -0.4792  1.2537 -0.4543
 6487TIP3   OH240951   3.192   1.689  16.943 -0.2082  0.5182  0.2011
 6487TIP3    H140952   3.176   1.663  17.034  3.7177  1.8481  1.4551
 6487TIP3    H240953   3.212   1.782  16.947 -0.0891  0.6601 -2.1078
 6488TIP3   OH240954   5.254   4.379   4.424 -0.0656  0.0303  0.0102
 6488TIP3    H140955   5.312   4.329   4.366  0.5941 -0.0700  0.7496
 6488TIP3    H240956   5.258   4.334   4.508  0.0030  0.9217  0.4995
 6489TIP3   OH240957   2.048   3.403   3.417  0.4227 -0.3537  0.2021
 6489TIP3    H140958   2.067   3.433   3.505 -0.4435  0.0423  0.2644
 6489TIP3    H240959   2.093   3.465   3.359  0.9557 -0.5901  0.3583
 6490TIP3   OH240960   5.981   5.368   0.332 -0.3279  0.5361  0.6672
 6490TIP3    H140961   5.998   5.392   0.424 -1.5130 -0.9777  1.3196
 6490TIP3    H240962   5.889   5.389   0.319 -0.3151  0.1941 -0.0020
 6491TIP3   OH240963   2.820   2.550   0.527 -0.2125  0.7070 -0.3825
 6491TIP3    H140964   2.847   2.486   0.592 -1.2580  1.7754  1.1720
 6491TIP3    H240965   2.888   2.546   0.459  1.3506  0.1240  1.1546
 6492TIP3   OH240966   3.551   5.101   5.635  0.1872  0.1046  0.0073
 6492TIP3    H140967   3.524   5.188   5.664 -0.5353  0.2154 -0.9446
 6492TIP3    H240968   3.534   5.044   5.710  2.5583  1.0680  1.3856
 6493TIP3   OH240969   4.424   0.047  15.519  0.1569  0.1624  0.1643
 6493TIP3    H140970   4.489  -0.009  15.561  0.3606  0.6728  0.5440
 6493TIP3    H240971   4.393   0.105  15.589 -0.3090  0.2892 -0.1382
 6494TIP3   OH240972   6.489   0.178  16.261 -0.1079  0.2452  0.1676
 6494TIP3    H140973   6.424   0.228  16.310  1.0402  0.3911  1.5967
 6494TIP3    H240974   6.556   0.242  16.237  0.2640 -0.1856  0.0413
 6495TIP3   OH240975   2.167   5.780   3.843 -0.0413  0.4400 -0.1061
 6495TIP3    H140976   2.234   5.728   3.887  0.4314  0.9742 -0.1712
 6495TIP3    H240977   2.210   5.811   3.763  0.0271  1.7079  0.3862
 6496TIP3   OH240978   4.682   1.622  13.544 -0.8397  0.0827 -0.0779
 6496TIP3    H140979   4.587   1.621  13.547 -0.8425 -0.7594 -0.3929
 6496TIP3    H240980   4.706   1.711  13.573 -1.6814  0.0398  0.7855
 6497TIP3   OH240981   5.768   2.520  14.876 -0.7977 -0.2210 -0.4521
 6497TIP3    H140982   5.783   2.607  14.840  2.6519 -0.5099 -0.0480
 6497TIP3    H240983   5.774   2.461  14.801  0.8016 -0.3580 -0.2596
 6498TIP3   OH240984   4.058   6.134  15.516 -0.1918  0.0740 -0.1258
 6498TIP3    H140985   3.972   6.163  15.545 -0.6482  0.1438 -1.4929
 6498TIP3    H240986   4.060   6.154  15.422  1.2624 -0.0477 -0.1415
 6499TIP3   OH240987   0.074   4.045  10.933  0.3722  0.3390  0.2335
 6499TIP3    H140988   0.056   3.973  10.874 -0.5479  0.9894 -0.3104
 6499TIP3    H240989   0.098   4.118  10.876 -0.9911  1.1096  0.5824
 6500TIP3   OH240990   2.733   2.898   0.414 -0.6039  0.2983  0.3169
 6500TIP3    H140991   2.774   2.870   0.496  0.6221  0.5274 -0.2023
 6500TIP3    H240992   2.680   2.823   0.387  0.1887 -0.3511  0.5297
 6501TIP3   OH240993   3.307   1.394  13.682 -1.0972  0.0838 -0.4115
 6501TIP3    H140994   3.396   1.423  13.704 -1.3574  0.7852 -0.2604
 6501TIP3    H240995   3.292   1.318  13.738 -0.6390  0.0308 -0.3515
 6502TIP3   OH240996   3.359   1.429   3.507  0.4232  0.4422 -0.1762
 6502TIP3    H140997   3.426   1.362   3.518  1.6657  1.7734  0.7338
 6502TIP3    H240998   3.278   1.380   3.490  1.4959 -1.2166 -0.7312
 6503TIP3   OH240999   2.731   1.198   0.094 -0.7017  0.0567  0.0546
 6503TIP3    H141000   2.818   1.224   0.063  0.4692 -3.2246  0.1970
 6503TIP3    H241001   2.683   1.281   0.104  2.2123  1.9578 -0.5032
 6504TIP3   OH241002   2.008   5.109   2.966  0.4552  0.0048  0.5246
 6504TIP3    H141003   1.979   5.058   2.891  1.8908 -0.8139  0.4790
 6504TIP3    H241004   1.934   5.166   2.988 -0.2897 -0.3584 -0.9597
 6505TIP3   OH241005   2.192   0.207  10.873 -0.1680 -0.3226  0.4019
 6505TIP3    H141006   2.151   0.180  10.791 -0.9076  0.5910  0.4562
 6505TIP3    H241007   2.120   0.214  10.935  0.0096  1.4417  0.4696
 6506TIP3   OH241008   6.065   0.820   1.392  0.1315 -0.1820  0.4692
 6506TIP3    H141009   6.034   0.730   1.379 -1.5792  0.4573 -0.2488
 6506TIP3    H241010   6.158   0.811   1.414  0.3130 -2.0503 -0.8417
 6507TIP3   OH241011   0.328   1.247  11.817  0.2544  0.9299 -0.3839
 6507TIP3    H141012   0.251   1.272  11.766 -0.2863  0.4851  0.2169
 6507TIP3    H241013   0.310   1.158  11.846  1.3454  0.5165 -0.9085
 6508TIP3   OH241014   4.240   6.565   2.907 -0.1852 -0.3766 -0.4258
 6508TIP3    H141015   4.156   6.575   2.862 -0.9746  0.1777  1.0882
 6508TIP3    H241016   4.302   6.613   2.853 -1.1713  0.5819 -0.7379
 6509TIP3   OH241017   5.284   5.311   1.857  0.3690  0.2067 -0.2273
 6509TIP3    H141018   5.214   5.316   1.792  0.4775 -0.3228 -0.3937
 6509TIP3    H241019   5.306   5.218   1.861  0.2549  0.2091  0.6883
 6510TIP3   OH241020   2.446   0.561   5.233 -0.2067  0.5239  0.4811
 6510TIP3    H141021   2.436   0.559   5.138  0.6438  0.8024  0.3742
 6510TIP3    H241022   2.419   0.650   5.258  0.6333  0.8247  0.3556
 6511TIP3   OH241023   2.142   1.448   4.865 -0.3290 -0.4750 -0.0953
 6511TIP3    H141024   2.052   1.428   4.889  0.1567 -2.7294  0.1435
 6511TIP3    H241025   2.141   1.539   4.837 -2.6059 -0.3672  0.2022
 6512TIP3   OH241026   5.545   5.614   4.710 -0.7294 -0.0540  0.2601
 6512TIP3    H141027   5.607   5.664   4.657 -0.2811 -0.9990 -0.1271
 6512TIP3    H241028   5.509   5.549   4.649 -1.0475 -0.4245  0.8424
 6513TIP3   OH241029   0.162   1.597  17.109 -0.3664  0.2433  0.6798
 6513TIP3    H141030   0.190   1.689  17.118 -0.0922  0.2082  0.2458
 6513TIP3    H241031   0.107   1.597  17.031  0.0933 -0.0598  0.3506
 6514TIP3   OH241032   5.554   5.591   6.444  0.3879 -0.2495  0.0371
 6514TIP3    H141033   5.578   5.683   6.457 -2.0781  0.5317 -0.4330
 6514TIP3    H241034   5.465   5.594   6.409  0.5937 -2.8129 -0.9176
 6515TIP3   OH241035   1.681   6.369  17.221  0.0134  0.2286 -0.5032
 6515TIP3    H141036   1.737   6.367  17.299  0.3227  1.2406 -0.6952
 6515TIP3    H241037   1.592   6.375  17.256  0.0877 -0.2493 -0.2180
 6516TIP3   OH241038   0.368   6.343   0.477 -0.0691 -0.4437 -0.8118
 6516TIP3    H141039   0.350   6.368   0.386 -0.9334  0.4008 -0.4346
 6516TIP3    H241040   0.463   6.349   0.485 -0.1348  2.9091 -0.7943
 6517TIP3   OH241041   5.486   4.355   3.661  0.0652 -0.4623 -0.0155
 6517TIP3    H141042   5.455   4.281   3.610  1.4727 -0.2779 -1.2060
 6517TIP3    H241043   5.408   4.409   3.676 -0.7915 -1.6987  0.0656
 6518TIP3   OH241044   3.393   5.228  15.868  0.1205 -0.1137  0.0066
 6518TIP3    H141045   3.301   5.251  15.852 -0.6299 -2.2580  0.8618
 6518TIP3    H241046   3.415   5.274  15.949 -0.7919 -0.9309  0.7524
 6519TIP3   OH241047   5.750   2.570   6.201 -0.0799 -0.4507  0.4249
 6519TIP3    H141048   5.845   2.556   6.199  0.1065  0.6185  1.2466
 6519TIP3    H241049   5.734   2.621   6.280 -1.2540  0.0645 -0.1139
 6520TIP3   OH241050   6.787   2.248   5.627  0.3597  0.3158 -0.3819
 6520TIP3    H141051   6.725   2.230   5.698  0.1764  0.7874 -0.4148
 6520TIP3    H241052   6.782   2.343   5.615 -0.4288  0.1208 -1.7675
 6521TIP3   OH241053   2.039   3.977   3.474 -0.2646 -0.0661  0.1935
 6521TIP3    H141054   2.096   4.037   3.521 -0.0710  1.1102 -1.4438
 6521TIP3    H241055   2.058   3.993   3.381 -3.2730  0.4533 -0.4598
 6522TIP3   OH241056   5.563   6.149  16.817  0.0011 -0.5036  0.4080
 6522TIP3    H141057   5.568   6.232  16.768  0.4643 -0.9749 -0.3604
 6522TIP3    H241058   5.654   6.126  16.835 -0.1784 -0.1317  1.8818
 6523TIP3   OH241059   2.351   0.069  12.922 -0.3131 -0.5674  0.2643
 6523TIP3    H141060   2.434   0.059  12.967 -1.1270 -1.9609  1.5553
 6523TIP3    H241061   2.316   0.152  12.953  0.3572 -0.2317  0.1203
 6524TIP3   OH241062   1.612   4.613   4.667  0.4564  0.1989 -0.0098
 6524TIP3    H141063   1.662   4.600   4.748  0.9529 -0.2529 -0.3746
 6524TIP3    H241064   1.658   4.684   4.622  0.1086  0.5319  0.1609
 6525TIP3   OH241065   6.123   4.413  15.287 -0.1906  0.2717  0.4136
 6525TIP3    H141066   6.214   4.412  15.315 -0.5155  1.2666  1.5842
 6525TIP3    H241067   6.102   4.321  15.271  0.7178 -0.0739  1.1016
 6526TIP3   OH241068   0.064   5.283   3.673 -0.7227 -0.1852 -0.2240
 6526TIP3    H141069   0.041   5.376   3.678 -1.3861 -0.3893  0.8804
 6526TIP3    H241070  -0.020   5.237   3.667 -0.4080 -0.7256 -0.6567
 6527TIP3   OH241071   4.915   4.620  16.048  0.1085  0.5765 -0.2624
 6527TIP3    H141072   4.960   4.548  16.092 -0.2610  0.9641  0.8058
 6527TIP3    H241073   4.862   4.661  16.117  0.1280  1.7250 -0.8903
 6528TIP3   OH241074   0.140   3.970  17.258  0.5647  0.0624 -0.0621
 6528TIP3    H141075   0.113   4.040  17.318  2.4584  0.2626  0.6372
 6528TIP3    H241076   0.141   3.891  17.313  1.6006  0.1141  0.0177
 6529TIP3   OH241077   4.321   3.522  15.072  0.3844  0.8338  0.1601
 6529TIP3    H141078   4.403   3.570  15.084  1.4426 -1.1131  1.2707
 6529TIP3    H241079   4.282   3.519  15.159  0.1260  0.0608  0.0258
 6530TIP3   OH241080   4.551   5.455   4.130 -0.4569 -0.0281  0.2703
 6530TIP3    H141081   4.482   5.492   4.185 -1.6130 -0.1165 -1.0743
 6530TIP3    H241082   4.577   5.374   4.174  0.3903  1.1057  1.9564
 6531TIP3   OH241083   6.076   2.541  16.321 -0.1531  0.5344  0.1238
 6531TIP3    H141084   6.129   2.589  16.257  0.3898 -1.6631 -1.1660
 6531TIP3    H241085   5.998   2.595  16.333  1.4079  2.8407  0.5036
 6532TIP3   OH241086   2.636   2.278  12.795 -0.3446 -0.2050  0.6533
 6532TIP3    H141087   2.627   2.373  12.788  1.3138 -0.1326 -3.6115
 6532TIP3    H241088   2.730   2.262  12.785 -0.6146 -2.2974  1.0133
 6533TIP3   OH241089   5.744   0.827   5.001  0.4114 -0.0699  0.1747
 6533TIP3    H141090   5.726   0.733   4.991 -0.9090  0.2578 -0.6962
 6533TIP3    H241091   5.665   0.870   4.969  1.1425  1.3593  0.2397
 6534TIP3   OH241092   2.926   6.792  16.184 -0.2507 -0.0219 -0.5399
 6534TIP3    H141093   2.956   6.881  16.204  1.5079 -0.4795 -0.9383
 6534TIP3    H241094   2.832   6.793  16.202 -0.3429  2.0249 -0.9450
 6535TIP3   OH241095   2.184   5.343  13.294 -0.2307  0.4845  0.0273
 6535TIP3    H141096   2.187   5.299  13.379  0.0736 -1.4114 -0.9101
 6535TIP3    H241097   2.240   5.290  13.238 -0.2670  1.8112 -1.3104
 6536TIP3   OH241098   4.808   6.027  15.508 -0.3901 -0.6353  0.0717
 6536TIP3    H141099   4.794   6.100  15.448 -0.6230 -0.7515 -0.0156
 6536TIP3    H241100   4.730   5.972  15.498  0.2039 -1.3862 -0.5601
 6537TIP3   OH241101   3.073   0.684   2.966  0.1844 -0.7736 -0.3536
 6537TIP3    H141102   3.040   0.690   3.055  0.5296  1.1212 -0.3185
 6537TIP3    H241103   2.996   0.700   2.911  0.1850 -0.8145 -0.3661
 6538TIP3   OH241104   4.518   3.237  16.179 -0.1001  0.1896 -0.9256
 6538TIP3    H141105   4.613   3.230  16.170 -0.3089 -0.5989 -3.2875
 6538TIP3    H241106   4.504   3.318  16.229  1.8013 -0.3930  0.6710
 6539TIP3   OH241107   0.297   5.691  14.924 -0.0655  0.4821  0.0416
 6539TIP3    H141108   0.272   5.684  15.016 -0.0823  0.8155  0.0639
 6539TIP3    H241109   0.355   5.616  14.909  0.9020  1.0828  0.6434
 6540TIP3   OH241110   2.386   6.259  14.672 -0.0246 -0.2227  1.0102
 6540TIP3    H141111   2.300   6.251  14.715 -1.4137 -0.1968 -1.5836
 6540TIP3    H241112   2.403   6.353  14.671  0.0843 -0.2335  1.6145
 6541TIP3   OH241113   4.641   4.145   1.708 -0.6174  0.0327  0.1838
 6541TIP3    H141114   4.699   4.191   1.769  0.2076  1.2787 -1.4868
 6541TIP3    H241115   4.553   4.174   1.732 -0.3470  0.1781  1.0340
 6542TIP3   OH241116   2.385   4.513  17.018 -0.5194  0.0764  0.1997
 6542TIP3    H141117   2.451   4.580  17.037  1.6801 -2.2095  1.1049
 6542TIP3    H241118   2.379   4.512  16.922 -2.3524  3.0635  0.1624
 6543TIP3   OH241119   5.221   5.820  15.454  0.0261  0.4138  0.0455
 6543TIP3    H141120   5.129   5.834  15.433  0.1217 -0.1965 -0.8817
 6543TIP3    H241121   5.243   5.889  15.516 -1.5317 -0.5491  1.7740
 6544TIP3   OH241122   5.082   2.355  12.294  0.3083 -0.3390  0.2059
 6544TIP3    H141123   5.110   2.315  12.212  1.7621 -1.0413  0.9946
 6544TIP3    H241124   5.072   2.448  12.273  0.4864 -0.5362 -0.8059
 6545TIP3   OH241125   5.851   3.855  15.588  0.3708 -0.0526 -0.7029
 6545TIP3    H141126   5.916   3.917  15.620  0.9879 -0.4076 -1.2496
 6545TIP3    H241127   5.791   3.843  15.661 -1.1461  2.9541 -1.2574
 6546TIP3   OH241128   3.962   0.706   5.322  0.9489  0.1705  0.6576
 6546TIP3    H141129   3.920   0.760   5.255  0.3491 -0.4230  0.5457
 6546TIP3    H241130   3.998   0.768   5.384  0.3653  0.7048  0.4693
 6547TIP3   OH241131   3.507   0.931   3.282  0.0450  0.0071  0.4301
 6547TIP3    H141132   3.524   0.854   3.336  0.2357 -0.8536 -0.8079
 6547TIP3    H241133   3.581   0.989   3.300  0.7720 -0.8086  0.1742
 6548TIP3   OH241134   3.021   6.515   1.427  0.2410 -0.5430 -0.2495
 6548TIP3    H141135   3.097   6.521   1.369 -0.6819 -2.7123 -1.8118
 6548TIP3    H241136   3.049   6.454   1.495  0.1484 -0.7663 -0.4110
 6549TIP3   OH241137   4.568   2.228  13.428  0.0867  0.4294 -0.4536
 6549TIP3    H141138   4.564   2.221  13.333 -0.7133  1.9083 -0.5594
 6549TIP3    H241139   4.659   2.249  13.447  0.1586  0.5591 -0.9349
 6550TIP3   OH241140   0.717   4.414   4.305  0.3374  0.2136 -0.2692
 6550TIP3    H141141   0.707   4.502   4.343  0.6859 -0.0835  0.5418
 6550TIP3    H241142   0.804   4.386   4.334 -0.4375 -1.0689  0.9225
 6551TIP3   OH241143   3.085   4.875   0.971 -0.0999  0.1169  0.3563
 6551TIP3    H141144   3.061   4.808   1.036  1.3641  0.9071  1.7809
 6551TIP3    H241145   3.089   4.956   1.021  0.1995  0.9221 -0.9327
 6552TIP3   OH241146   5.124   0.661  14.363 -0.6616  0.2040  0.5490
 6552TIP3    H141147   5.086   0.633  14.446 -5.5177  3.4641 -0.1733
 6552TIP3    H241148   5.188   0.728  14.388 -1.0868  0.2034  1.7061
 6553TIP3   OH241149   3.983   6.216   2.193  0.8978  0.1298  0.2932
 6553TIP3    H141150   4.057   6.253   2.242 -0.5424  0.1938  2.5999
 6553TIP3    H241151   3.987   6.122   2.211  1.6960 -0.2042 -1.4759
 6554TIP3   OH241152   4.359   0.122  16.872 -0.5978 -0.0091 -0.7532
 6554TIP3    H141153   4.288   0.161  16.820 -2.7276 -2.1255  0.3634
 6554TIP3    H241154   4.417   0.195  16.892 -1.9072  1.6421 -2.5810
 6555TIP3   OH241155   3.949   0.877   6.599 -0.0603  0.1999  0.4101
 6555TIP3    H141156   3.881   0.872   6.666  1.8095 -0.1185  2.3885
 6555TIP3    H241157   3.993   0.792   6.601  0.7743  0.5808 -0.3970
 6556TIP3   OH241158   0.970   6.493   4.937 -0.8183  0.3528  0.0792
 6556TIP3    H141159   1.034   6.522   5.002  0.9810 -1.5154 -0.7589
 6556TIP3    H241160   0.886   6.494   4.984 -0.2856  2.9780  1.1640
 6557TIP3   OH241161   2.215   3.912   2.852 -0.2142  0.1291 -0.2450
 6557TIP3    H141162   2.265   3.938   2.774  0.8863  0.0663  0.4163
 6557TIP3    H241163   2.135   3.964   2.848  0.4256  1.0993 -0.7185
 6558TIP3   OH241164   3.782   1.535   1.636 -0.1641 -0.2771  0.4845
 6558TIP3    H141165   3.788   1.468   1.704 -1.3495  0.2253  1.1011
 6558TIP3    H241166   3.791   1.618   1.682 -2.0241  0.1201  0.2177
 6559TIP3   OH241167   1.714   4.384   3.595  0.2760 -0.0931  0.6151
 6559TIP3    H141168   1.715   4.326   3.518  1.7323  0.6002  0.0814
 6559TIP3    H241169   1.623   4.384   3.623 -0.3060 -0.3399 -1.1453
 6560TIP3   OH241170   6.695   4.294  15.818 -0.0591  0.1691  0.1651
 6560TIP3    H141171   6.722   4.202  15.805  1.3362  0.7108 -1.1540
 6560TIP3    H241172   6.600   4.290  15.826  0.0466 -1.4993  1.3105
 6561TIP3   OH241173   5.690   6.488  13.835  0.3017 -0.3074  0.0892
 6561TIP3    H141174   5.597   6.465  13.828 -0.2002  1.5370  0.0009
 6561TIP3    H241175   5.713   6.521  13.749  0.6817  0.4020  0.4498
 6562TIP3   OH241176   4.019   4.746   4.728 -0.1905  0.2064 -0.2926
 6562TIP3    H141177   3.927   4.727   4.747  0.4314 -1.7040  1.1579
 6562TIP3    H241178   4.035   4.705   4.644 -0.0473 -1.8166  0.6741
 6563TIP3   OH241179   1.066   4.957  10.872 -0.1142  0.3851 -0.0726
 6563TIP3    H141180   1.064   4.995  10.784 -0.7689  0.6646  0.0479
 6563TIP3    H241181   1.150   4.984  10.909  0.0365  0.5122 -0.5055
 6564TIP3   OH241182   4.288   5.469   4.899 -0.0394 -0.1123 -0.2264
 6564TIP3    H141183   4.375   5.429   4.895  0.0639  0.1745 -1.0083
 6564TIP3    H241184   4.300   5.557   4.865 -0.6049 -0.0083 -0.1686
 6565TIP3   OH241185   2.327   4.831   5.038 -0.5419 -0.2761  0.2583
 6565TIP3    H141186   2.397   4.771   5.065 -1.5125 -0.9719  1.3417
 6565TIP3    H241187   2.335   4.835   4.943  1.8502  0.7984  0.4188
 6566TIP3   OH241188   2.243   1.040   0.365 -0.5832  0.6114 -0.3484
 6566TIP3    H141189   2.220   1.050   0.457 -2.9218 -2.6264 -0.4140
 6566TIP3    H241190   2.337   1.023   0.365 -0.4582  1.1526  1.3643
 6567TIP3   OH241191   6.491   4.978  13.615  0.3267  0.2124  0.0807
 6567TIP3    H141192   6.455   5.014  13.696 -0.8953 -0.2945 -0.2137
 6567TIP3    H241193   6.417   4.976  13.555  1.5595  2.0668 -1.6077
 6568TIP3   OH241194   3.996   3.585  15.385 -0.0434  0.0201  0.2282
 6568TIP3    H141195   4.026   3.670  15.354 -1.3572  0.8868  1.2174
 6568TIP3    H241196   3.933   3.555  15.320  2.4938 -1.6409 -1.6702
 6569TIP3   OH241197   4.545   4.099   5.880  0.0982 -0.3548  0.6467
 6569TIP3    H141198   4.455   4.085   5.850 -0.0181 -0.3318  0.9849
 6569TIP3    H241199   4.599   4.060   5.811 -0.1922 -1.1356  0.8404
 6570TIP3   OH241200   6.695   2.138  16.373  0.1252 -0.2529 -0.4276
 6570TIP3    H141201   6.786   2.109  16.373 -0.0048 -0.7588  1.4948
 6570TIP3    H241202   6.700   2.234  16.370  0.7810 -0.2216  0.9656
 6571TIP3   OH241203   2.826   4.276   3.749  0.5087 -0.1522 -0.0951
 6571TIP3    H141204   2.871   4.217   3.809 -0.1058  0.0710  0.5912
 6571TIP3    H241205   2.734   4.267   3.771  0.5181  2.2822  1.1482
 6572TIP3   OH241206   5.237   3.917  13.416 -0.2946  0.2728  0.0415
 6572TIP3    H141207   5.176   3.953  13.480 -1.5754  1.0450 -1.5368
 6572TIP3    H241208   5.202   3.944  13.331 -0.0440 -2.8031 -1.1568
 6573TIP3   OH241209   0.588   6.492  15.467  0.1427 -1.0476 -0.3252
 6573TIP3    H141210   0.552   6.403  15.463  2.3166 -2.1249  1.6021
 6573TIP3    H241211   0.678   6.483  15.436  0.0788  0.7481 -1.1659
 6574TIP3   OH241212   0.382   0.025  17.177  0.2378 -0.0447  0.8518
 6574TIP3    H141213   0.356   0.022  17.269  1.5961 -0.3396  1.2618
 6574TIP3    H241214   0.345   0.106  17.144  0.2689  0.3920  1.8470
 6575TIP3   OH241215   4.238   2.460  14.069  0.0574 -0.5630 -0.5957
 6575TIP3    H141216   4.230   2.540  14.017  1.2678 -0.4095 -0.5704
 6575TIP3    H241217   4.327   2.428  14.050 -0.2736 -1.6892 -0.3063
 6576TIP3   OH241218   4.598   4.225  14.090  0.4983 -0.3344 -0.2086
 6576TIP3    H141219   4.635   4.218  14.178  0.4171 -1.5036 -0.2422
 6576TIP3    H241220   4.645   4.158  14.040 -0.9039 -1.1283 -0.5129
 6577TIP3   OH241221   0.273   2.971   0.187 -0.4075 -0.0826 -0.1764
 6577TIP3    H141222   0.218   3.035   0.141 -1.2633 -0.1441  0.7213
 6577TIP3    H241223   0.266   2.892   0.135 -1.1898 -0.0890 -0.0742
 6578TIP3   OH241224   6.704   6.153   5.988  0.2475 -0.4984 -0.3256
 6578TIP3    H141225   6.682   6.244   6.009 -1.2754 -0.0947 -3.1184
 6578TIP3    H241226   6.786   6.159   5.939  0.4306 -0.6907 -0.0413
 6579TIP3   OH241227   1.428   0.694  12.500 -0.3494 -0.2813  0.1248
 6579TIP3    H141228   1.414   0.775  12.450  1.0696  0.5843  1.0289
 6579TIP3    H241229   1.340   0.662  12.520 -0.9427  0.8198 -0.5997
 6580TIP3   OH241230   2.476   2.235  14.949 -0.9095  0.1509  0.4331
 6580TIP3    H141231   2.411   2.241  14.878 -2.0529  0.3647  1.4482
 6580TIP3    H241232   2.433   2.181  15.015  0.1244 -0.0154  0.9771
 6581TIP3   OH241233   5.461   2.297  13.595  0.3853  0.0139  0.0002
 6581TIP3    H141234   5.420   2.224  13.642  0.8006  1.0304  2.0176
 6581TIP3    H241235   5.510   2.254  13.524 -1.5600 -1.4420 -0.5875
 6582TIP3   OH241236   3.018   4.698  14.539 -0.7234  0.3158 -0.1184
 6582TIP3    H141237   2.961   4.767  14.507  0.1649  1.6135  1.0149
 6582TIP3    H241238   3.037   4.721  14.630  0.5199 -0.7914 -0.0576
 6583TIP3   OH241239   4.152   0.684  15.437 -0.0812 -0.0963 -0.6078
 6583TIP3    H141240   4.115   0.746  15.500  1.0032  0.0320 -0.0709
 6583TIP3    H241241   4.113   0.708  15.353 -0.7422  0.4049 -0.1667
 6584TIP3   OH241242   5.432   0.869  15.635  0.1378 -0.1155 -0.4172
 6584TIP3    H141243   5.492   0.940  15.611 -1.4625  1.4413 -0.0191
 6584TIP3    H241244   5.391   0.842  15.553 -0.5955  0.7244 -0.3404
 6585TIP3   OH241245   2.872   1.918   2.000 -0.2187 -0.2444 -0.0267
 6585TIP3    H141246   2.936   1.852   1.974 -1.7113 -1.5878 -0.4387
 6585TIP3    H241247   2.904   2.000   1.961  1.1953 -0.8982 -0.2685
 6586TIP3   OH241248   5.772   5.291   4.947  0.3648  0.1441 -0.1357
 6586TIP3    H141249   5.767   5.202   4.981  4.1405 -0.8059 -1.6158
 6586TIP3    H241250   5.771   5.347   5.026  1.0556 -1.4293  1.0400
 6587TIP3   OH241251   4.114   4.363  16.616  0.1065  0.1857 -0.2028
 6587TIP3    H141252   4.038   4.306  16.603 -0.5844  1.1725 -0.6106
 6587TIP3    H241253   4.152   4.334  16.699  0.5956 -1.7737 -1.0604
 6588TIP3   OH241254   1.429   2.371  15.023 -0.4303  0.3137 -0.0197
 6588TIP3    H141255   1.418   2.420  14.942 -0.3133 -0.7692 -0.7154
 6588TIP3    H241256   1.524   2.365  15.035 -0.4488  0.7970  0.4114
 6589TIP3   OH241257   2.570   5.428  13.693  0.1589 -0.2055 -0.4418
 6589TIP3    H141258   2.601   5.514  13.663 -0.2935 -0.3023 -1.2348
 6589TIP3    H241259   2.517   5.447  13.770  0.9601  0.1139  0.0344
 6590TIP3   OH241260   0.504   5.225   0.639  0.1400  1.1108 -0.5154
 6590TIP3    H141261   0.424   5.245   0.591 -1.1126  1.1115  1.4733
 6590TIP3    H241262   0.476   5.217   0.730  2.5140  1.8409  0.3564
 6591TIP3   OH241263   6.032   2.559   3.089  0.0065  0.0772  0.7565
 6591TIP3    H141264   6.081   2.621   3.142 -1.8270  1.2734  1.1560
 6591TIP3    H241265   5.942   2.591   3.092 -0.7343 -1.7453 -0.3214
 6592TIP3   OH241266   3.683   1.095  16.095 -0.1749  0.3558 -0.0349
 6592TIP3    H141267   3.679   1.022  16.033 -0.3301  1.2283 -1.1008
 6592TIP3    H241268   3.591   1.115  16.114 -0.1320 -1.2337  2.1579
 6593TIP3   OH241269   1.421   3.629  15.629  0.6812  0.3061 -0.3348
 6593TIP3    H141270   1.503   3.647  15.675  0.5348 -0.2708  0.1665
 6593TIP3    H241271   1.444   3.562  15.564  0.2903 -1.1345  0.9416
 6594TIP3   OH241272   4.708   0.082   3.005  0.2732 -0.1683  0.4153
 6594TIP3    H141273   4.653   0.148   3.046 -0.9740 -2.0354  1.9055
 6594TIP3    H241274   4.795   0.122   3.002 -0.5416  1.7228  0.7639
 6595TIP3   OH241275   5.548   0.526  12.656 -0.6153  0.0735  0.1677
 6595TIP3    H141276   5.512   0.548  12.571 -0.1880 -0.1429 -0.0715
 6595TIP3    H241277   5.630   0.480  12.637 -0.8650 -0.6105  0.6751
 6596TIP3   OH241278   1.059   1.869   2.183 -0.2415 -0.0742 -0.2682
 6596TIP3    H141279   1.142   1.871   2.231  0.0097  1.0496 -0.7340
 6596TIP3    H241280   1.075   1.921   2.104 -1.7130  1.0711  0.1569
 6597TIP3   OH241281   5.630   6.402   0.363  0.0332  0.2647 -0.6306
 6597TIP3    H141282   5.553   6.382   0.311  1.0713 -0.2286 -2.0512
 6597TIP3    H241283   5.702   6.359   0.317  1.3164  1.5486  0.0759
 6598TIP3   OH241284   0.189   6.569   3.867  0.1750  0.5000 -0.9807
 6598TIP3    H141285   0.204   6.548   3.775 -1.2567 -0.9165 -0.9386
 6598TIP3    H241286   0.094   6.566   3.877  0.3325 -2.7359  1.1867
 6599TIP3   OH241287   5.732   3.666   1.326  0.2749 -0.5020  0.0153
 6599TIP3    H141288   5.683   3.748   1.318 -1.3342 -1.3206  0.8853
 6599TIP3    H241289   5.736   3.650   1.421  1.6541 -0.8112 -0.0824
 6600TIP3   OH241290   5.100   5.181  11.591  0.3577  1.0957  0.4446
 6600TIP3    H141291   5.012   5.145  11.602  0.6219  1.0210  2.8112
 6600TIP3    H241292   5.112   5.188  11.496 -2.3373  1.4979  0.0634
 6601TIP3   OH241293   5.305   1.462  12.039 -0.0429 -0.0610  0.3371
 6601TIP3    H141294   5.237   1.395  12.044  0.3211 -0.6392 -1.5180
 6601TIP3    H241295   5.383   1.414  12.009  0.4450  1.0360 -0.1908
 6602TIP3   OH241296   4.170   0.240   4.381  0.1326 -0.4522  0.0934
 6602TIP3    H141297   4.151   0.333   4.375  2.2239  0.1883  1.9430
 6602TIP3    H241298   4.216   0.219   4.300  2.7949  1.0665  1.0709
 6603TIP3   OH241299   0.375   0.907  15.997 -0.3174  0.0586  0.6337
 6603TIP3    H141300   0.337   0.993  16.011  0.2553  0.5530 -0.6723
 6603TIP3    H241301   0.458   0.924  15.952 -0.5823 -1.2007 -0.4028
 6604TIP3   OH241302   4.450   0.973   1.867 -0.1079  0.1722 -0.0603
 6604TIP3    H141303   4.529   0.958   1.918 -0.2258  1.0403  0.4017
 6604TIP3    H241304   4.396   0.895   1.882  0.8436 -0.6427 -0.7650
 6605TIP3   OH241305   5.568   0.663   0.852  0.5929  0.1793 -0.1369
 6605TIP3    H141306   5.643   0.720   0.834  0.2206  0.1177 -2.1514
 6605TIP3    H241307   5.521   0.660   0.769 -0.2689 -1.8074  0.3748
 6606TIP3   OH241308   2.903   1.476   3.799  0.3018 -0.1400  0.0228
 6606TIP3    H141309   2.881   1.464   3.707  1.3998 -1.0825 -0.1378
 6606TIP3    H241310   2.918   1.387   3.832  0.8362  0.2553  0.8781
 6607TIP3   OH241311   0.762   0.188  17.027 -0.5181 -0.0485 -0.5670
 6607TIP3    H141312   0.820   0.120  16.993 -0.4491  0.3118 -1.1974
 6607TIP3    H241313   0.681   0.179  16.976 -0.4139  0.4963 -0.8494
 6608TIP3   OH241314   4.457   3.127  14.951  0.3685  0.0641  0.2798
 6608TIP3    H141315   4.475   3.112  14.859 -0.3008  0.6886  0.0377
 6608TIP3    H241316   4.372   3.172  14.952 -0.8605 -2.1083  1.3000
 6609TIP3   OH241317   1.070   5.864  12.473 -0.4599  0.2353  0.1066
 6609TIP3    H141318   1.027   5.904  12.548 -0.6488 -0.7062  0.5016
 6609TIP3    H241319   1.082   5.937  12.411 -1.2137  0.8109  0.6219
 6610TIP3   OH241320   0.122   1.612   4.200 -0.0156  0.7624 -0.3085
 6610TIP3    H141321   0.063   1.655   4.263  0.4002 -0.7292  1.1617
 6610TIP3    H241322   0.066   1.592   4.125 -1.3217 -0.2744  0.8923
 6611TIP3   OH241323   5.760   1.264   2.818 -0.3446 -0.1595  0.1812
 6611TIP3    H141324   5.744   1.263   2.912 -0.5462  0.4789  0.1601
 6611TIP3    H241325   5.702   1.196   2.783 -1.6616  0.8294  0.3291
 6612TIP3   OH241326   1.430   2.756  16.626 -0.2955 -0.2019  0.1191
 6612TIP3    H141327   1.470   2.839  16.654  0.1247 -0.4121  0.1585
 6612TIP3    H241328   1.400   2.773  16.536  1.3676 -0.5068 -0.5450
 6613TIP3   OH241329   3.784   6.368   2.017  0.3067  0.9337 -0.5324
 6613TIP3    H141330   3.807   6.373   1.924 -0.6541 -1.3676 -0.9587
 6613TIP3    H241331   3.845   6.304   2.054 -1.0236 -0.1955 -0.2186
 6614TIP3   OH241332   0.106   0.656  14.076  0.0929  0.4145 -0.6002
 6614TIP3    H141333   0.045   0.661  14.003 -0.1555 -1.5533 -0.5828
 6614TIP3    H241334   0.151   0.572  14.064 -0.0144 -0.0118  1.5320
 6615TIP3   OH241335   3.523   3.544  17.095  0.2947 -0.5953 -0.0913
 6615TIP3    H141336   3.434   3.574  17.078  0.2479 -0.8457 -0.2987
 6615TIP3    H241337   3.526   3.532  17.190  0.2308 -0.2073 -0.0384
 6616TIP3   OH241338   6.424   6.349  16.915 -0.3440 -0.6553  0.0047
 6616TIP3    H141339   6.371   6.375  16.840  1.2694  0.2564 -0.8634
 6616TIP3    H241340   6.444   6.257  16.901  1.5974 -0.0259 -1.7843
 6617TIP3   OH241341   5.816   0.903   0.500 -0.2351 -0.0802  0.0720
 6617TIP3    H141342   5.819   0.868   0.411 -2.3796  0.0149 -0.0920
 6617TIP3    H241343   5.753   0.975   0.495  1.8084  1.9011  1.0499
 6618TIP3   OH241344   2.222   4.291   1.103 -0.2013 -0.1932 -0.1128
 6618TIP3    H141345   2.131   4.267   1.119 -0.3225  0.6271  0.4981
 6618TIP3    H241346   2.229   4.381   1.134  0.8336 -0.2693 -0.0897
 6619TIP3   OH241347   2.223   3.744  16.340 -0.5221 -0.2259 -0.0488
 6619TIP3    H141348   2.275   3.751  16.420 -1.6218  0.0553  0.6649
 6619TIP3    H241349   2.287   3.739  16.270  0.5136  2.4276  0.5763
 6620TIP3   OH241350   0.291   6.454  12.571 -0.4471 -0.0672 -0.0144
 6620TIP3    H141351   0.272   6.548  12.580 -2.6454 -0.5968  1.9884
 6620TIP3    H241352   0.208   6.417  12.540 -0.0698 -1.5312  0.6647
 6621TIP3   OH241353   1.141   6.698   3.033  0.4423  0.2303 -0.4147
 6621TIP3    H141354   1.142   6.723   2.941  1.3204 -1.1383 -0.8014
 6621TIP3    H241355   1.168   6.606   3.034 -1.7450 -0.5049  1.0097
 6622TIP3   OH241356   0.458   6.260   6.221 -0.5218  0.3641  0.3143
 6622TIP3    H141357   0.512   6.229   6.293 -0.2516  1.0889  0.4362
 6622TIP3    H241358   0.368   6.241   6.247 -0.3746 -0.1114  0.4748
 6623TIP3   OH241359   6.160   6.460  14.942  0.0837  0.0901  0.4120
 6623TIP3    H141360   6.249   6.465  14.906  0.3153  0.3866  1.0083
 6623TIP3    H241361   6.143   6.548  14.975 -0.4972  0.0761  0.1635
 6624TIP3   OH241362   3.278   0.003  10.683  0.7038  0.1080  0.7830
 6624TIP3    H141363   3.286  -0.030  10.593  3.3864 -1.0255  1.3343
 6624TIP3    H241364   3.184   0.009  10.698  0.1631 -0.0910 -1.9324
 6625TIP3   OH241365   3.610   2.839   1.829 -0.3558 -0.2903 -0.1957
 6625TIP3    H141366   3.541   2.890   1.786 -0.9228 -0.0672  0.9327
 6625TIP3    H241367   3.644   2.897   1.897  2.0690  0.1927 -1.7101
 6626TIP3   OH241368   5.749   3.176   1.130  0.1923 -0.2355 -0.1651
 6626TIP3    H141369   5.782   3.211   1.213  1.8727 -0.4719 -0.7028
 6626TIP3    H241370   5.772   3.242   1.065  0.1660 -0.7035 -0.6569
 6627TIP3   OH241371   4.209   4.666  15.864 -0.5075 -0.1103 -0.7027
 6627TIP3    H141372   4.193   4.624  15.779 -1.1930  0.3045 -0.7893
 6627TIP3    H241373   4.126   4.655  15.911  0.3137 -1.6050  0.4800
 6628TIP3   OH241374   1.518   4.385   3.927  0.3560 -0.3381  0.0361
 6628TIP3    H141375   1.529   4.317   3.994  1.6804 -0.0048  0.1902
 6628TIP3    H241376   1.567   4.460   3.961 -0.2401  0.3534 -0.6077
 6629TIP3   OH241377   1.999   4.227   4.370  0.6960  0.3583 -0.1949
 6629TIP3    H141378   2.015   4.133   4.377  2.8271  0.5346 -1.8123
 6629TIP3    H241379   1.960   4.239   4.284  1.0860  1.0267 -0.2862
 6630TIP3   OH241380   1.059   5.369  14.825  0.4117 -0.3360  0.2001
 6630TIP3    H141381   1.044   5.463  14.814  2.3008 -0.1055 -0.9785
 6630TIP3    H241382   1.037   5.331  14.740 -2.5167 -1.3716  1.3033
 6631TIP3   OH241383   1.390   5.341   2.608 -0.1720  0.0844 -0.8417
 6631TIP3    H141384   1.438   5.409   2.654 -0.6887  0.4209 -0.7912
 6631TIP3    H241385   1.363   5.382   2.526  0.2034 -0.3134 -1.1649
 6632TIP3   OH241386   6.417   1.447   1.803 -0.5124 -0.2933  0.2043
 6632TIP3    H141387   6.354   1.519   1.806 -0.7266 -0.4946  0.6650
 6632TIP3    H241388   6.369   1.376   1.759 -0.8750 -0.6887  1.1971
 6633TIP3   OH241389   0.947   4.274   5.732  0.6644  0.4541  0.2061
 6633TIP3    H141390   0.876   4.239   5.785  0.5120 -1.3727 -1.1116
 6633TIP3    H241391   0.962   4.208   5.664  3.4803  0.8694  0.2954
 6634TIP3   OH241392   1.318   2.790  13.393  0.3103  0.2949 -0.4227
 6634TIP3    H141393   1.399   2.777  13.441  0.8396  2.0056 -0.7984
 6634TIP3    H241394   1.263   2.715  13.417  1.4457 -0.1233  0.9558
 6635TIP3   OH241395   2.032   1.448   0.797  0.1838 -0.0525 -0.2247
 6635TIP3    H141396   2.024   1.468   0.890  3.8763 -1.2976  0.5433
 6635TIP3    H241397   1.942   1.448   0.764 -1.2050  1.0622  3.1540
 6636TIP3   OH241398   0.364   0.119  11.447  0.1256  0.2208 -0.8451
 6636TIP3    H141399   0.381   0.150  11.358 -0.8851 -0.3681 -1.2542
 6636TIP3    H241400   0.282   0.162  11.472 -0.0048 -0.2217 -0.4994
 6637TIP3   OH241401   2.660   3.756  11.348  0.0094  0.0258  0.4349
 6637TIP3    H141402   2.721   3.728  11.279  0.4791  0.4568  0.6655
 6637TIP3    H241403   2.669   3.690  11.416  0.3469  0.1772  0.5392
 6638TIP3   OH241404   4.330   6.601   5.134 -0.3703  0.1709 -0.0872
 6638TIP3    H141405   4.250   6.548   5.130 -1.0081  1.1539 -1.0012
 6638TIP3    H241406   4.395   6.544   5.174 -1.5249 -0.6615  0.6486
 6639TIP3   OH241407   2.567   1.536  11.139 -0.0378 -0.2135  0.1266
 6639TIP3    H141408   2.536   1.626  11.127  0.1573 -0.3878 -2.1915
 6639TIP3    H241409   2.608   1.514  11.055  0.2265 -2.3506  0.7668
 6640TIP3   OH241410   5.498   2.900  16.091 -0.0390 -0.5916 -0.5028
 6640TIP3    H141411   5.491   2.977  16.147 -1.4692 -0.0667 -1.3702
 6640TIP3    H241412   5.486   2.933  16.002 -0.9804 -1.8537 -0.8694
 6641TIP3   OH241413   0.071   4.603  13.902 -0.0943  0.0626  0.1657
 6641TIP3    H141414   0.034   4.678  13.948 -0.1128  0.6445 -0.7675
 6641TIP3    H241415   0.017   4.594  13.823  0.2655 -0.5737 -0.0167
 6642TIP3   OH241416   3.871   2.809   1.706  0.1649  0.1532 -0.2180
 6642TIP3    H141417   3.900   2.782   1.793 -0.5083 -1.0799 -0.3575
 6642TIP3    H241418   3.801   2.872   1.723 -1.0056 -1.2063  0.1775
 6643TIP3   OH241419   1.877   5.691  11.516 -0.0410  0.4567  0.4172
 6643TIP3    H141420   1.878   5.688  11.420 -3.1257  0.8384  0.2707
 6643TIP3    H241421   1.869   5.600  11.543  2.3598  0.1957  0.4587
 6644TIP3   OH241422   2.099   4.364   3.511  0.0760  0.0600 -0.4689
 6644TIP3    H141423   2.177   4.310   3.496  0.8783  1.2038 -0.4872
 6644TIP3    H241424   2.085   4.408   3.427 -0.2739  0.2700 -0.2995
 6645TIP3   OH241425   5.542   0.020  12.261  0.0599  0.1561  0.6243
 6645TIP3    H141426   5.452   0.044  12.283 -0.1122 -1.8711  2.4433
 6645TIP3    H241427   5.534  -0.064  12.216  0.9555  0.9625 -1.1631
 6646TIP3   OH241428   1.162   0.565  13.027  0.0650 -0.5577 -0.2324
 6646TIP3    H141429   1.197   0.502  12.964 -1.2139 -0.6255 -0.8965
 6646TIP3    H241430   1.175   0.650  12.986  0.6160 -0.4700  0.1034
 6647TIP3   OH241431   3.186   3.242  13.060  0.2914  0.1213 -0.1051
 6647TIP3    H141432   3.159   3.204  12.976  1.4371  0.1448 -0.5047
 6647TIP3    H241433   3.108   3.236  13.115 -0.9247  1.4256 -1.6062
 6648TIP3   OH241434   1.877   4.086  16.792 -0.2315  0.4583 -0.0261
 6648TIP3    H141435   1.888   4.024  16.721 -1.6879 -0.2712  0.3340
 6648TIP3    H241436   1.797   4.134  16.769  1.0133  2.4291 -0.4421
 6649TIP3   OH241437   5.715   4.803  12.465  0.5282 -0.0304 -0.4713
 6649TIP3    H141438   5.713   4.740  12.393 -0.0288  2.6595 -3.0093
 6649TIP3    H241439   5.797   4.850  12.454 -0.0076  1.0711  0.0666
 6650TIP3   OH241440   5.145   2.500   5.361  0.0255 -0.1746  0.3491
 6650TIP3    H141441   5.207   2.545   5.419  0.7143  0.7558 -1.0367
 6650TIP3    H241442   5.075   2.563   5.346  1.1460  0.6887 -1.8521
 6651TIP3   OH241443   5.473   3.369  14.435  0.2970 -0.0986 -0.1988
 6651TIP3    H141444   5.432   3.404  14.513  0.1432 -0.1545 -0.2525
 6651TIP3    H241445   5.400   3.356  14.374  0.4340  0.0790 -0.4011
 6652TIP3   OH241446   3.202   5.232   0.599  0.4833 -0.1742  0.4037
 6652TIP3    H141447   3.263   5.259   0.667  0.5791  0.0605  0.2298
 6652TIP3    H241448   3.205   5.137   0.599  1.8426 -0.1618 -0.4698
 6653TIP3   OH241449   3.097   6.764  15.423  0.2868  0.9695 -0.3541
 6653TIP3    H141450   3.056   6.836  15.470 -0.2986  0.8743 -0.7148
 6653TIP3    H241451   3.109   6.797  15.334 -1.8855 -0.0527 -1.1044
 6654TIP3   OH241452   5.949   2.602  12.311  0.0764 -0.2282  0.1900
 6654TIP3    H141453   5.926   2.538  12.379  0.8579 -0.8619 -0.1330
 6654TIP3    H241454   5.970   2.550  12.235  0.7671  0.4201 -0.0699
 6655TIP3   OH241455   2.527   6.494   2.955  0.2499  0.4903 -0.0203
 6655TIP3    H141456   2.451   6.551   2.969 -0.0412 -0.3467  2.1628
 6655TIP3    H241457   2.583   6.544   2.896 -2.6077  0.5143 -3.0310
 6656TIP3   OH241458   6.314   1.954   4.839 -0.5186 -0.2651  0.6140
 6656TIP3    H141459   6.385   1.924   4.781 -0.6745 -2.0833  1.2849
 6656TIP3    H241460   6.349   2.032   4.881  0.2263  0.1376 -0.7009
 6657TIP3   OH241461   3.029   0.313   2.485  0.0421 -0.2856 -0.3876
 6657TIP3    H141462   3.027   0.400   2.525  0.4652 -0.9543  1.2094
 6657TIP3    H241463   3.039   0.254   2.560  0.5951 -1.6456 -1.5009
 6658TIP3   OH241464   0.199   4.754  11.961 -0.4853 -0.8372 -0.0100
 6658TIP3    H141465   0.139   4.819  11.998 -0.7205 -1.7812  1.3236
 6658TIP3    H241466   0.195   4.769  11.867 -0.9580  0.7072  0.2221
 6659TIP3   OH241467   1.743   1.218  14.778  0.3098  0.3343 -0.0170
 6659TIP3    H141468   1.837   1.204  14.770  0.1451  0.0446 -1.9791
 6659TIP3    H241469   1.732   1.313  14.766  0.3958  0.4935  1.0498
 6660TIP3   OH241470   6.061   4.182   4.841  0.0434  0.5144 -0.0594
 6660TIP3    H141471   5.969   4.201   4.857 -0.6270 -0.3991 -2.4266
 6660TIP3    H241472   6.078   4.103   4.892 -0.5043  0.6273  0.3090
 6661TIP3   OH241473   1.164   6.767  11.379 -0.0963 -0.3731  0.2462
 6661TIP3    H141474   1.144   6.835  11.444 -2.2001 -0.2942 -0.3897
 6661TIP3    H241475   1.221   6.811  11.316  1.7518 -0.3723  1.8418
 6662TIP3   OH241476   5.468   3.224  11.254  0.2130  0.1241 -0.2489
 6662TIP3    H141477   5.456   3.218  11.159 -1.5107 -1.3156  0.0063
 6662TIP3    H241478   5.556   3.260  11.265  0.9342 -0.8382 -2.3870
 6663TIP3   OH241479   2.310   1.477   4.384 -0.2511 -0.2382  0.1416
 6663TIP3    H141480   2.215   1.486   4.378 -0.0693  1.8249 -0.3217
 6663TIP3    H241481   2.342   1.566   4.397  1.5509 -1.0545  1.6850
 6664TIP3   OH241482   5.375   0.447  11.760  0.0776 -0.2198 -0.7502
 6664TIP3    H141483   5.417   0.514  11.707  0.6061  0.7300  0.8007
 6664TIP3    H241484   5.283   0.474  11.765  0.6504  1.6051  1.5236
 6665TIP3   OH241485   4.459   6.422   4.818  0.3825  0.1681 -0.1520
 6665TIP3    H141486   4.437   6.425   4.725 -0.0969 -0.8072 -0.0835
 6665TIP3    H241487   4.542   6.374   4.822  0.7261  0.7635 -0.1264
 6666TIP3   OH241488   6.709   0.120   4.065  0.3549 -0.4307  0.5156
 6666TIP3    H141489   6.678   0.202   4.028  1.3683  0.6566  1.9718
 6666TIP3    H241490   6.805   0.129   4.066  0.5036 -1.7951  0.3288
 6667TIP3   OH241491   3.442   4.364  14.378  0.6163 -0.1938  0.2611
 6667TIP3    H141492   3.393   4.445  14.393  0.1603  0.1867 -2.6899
 6667TIP3    H241493   3.530   4.384  14.409  0.6263  1.6382 -0.8260
 6668TIP3   OH241494   3.642   5.287  10.882 -0.1227  0.4386  0.2511
 6668TIP3    H141495   3.668   5.196  10.892 -2.3120 -0.3827 -0.9572
 6668TIP3    H241496   3.697   5.320  10.812  0.7016  0.0737  0.7141
 6669TIP3   OH241497   6.030   1.852  16.422  0.2533  0.0236  0.2946
 6669TIP3    H141498   6.005   1.883  16.335  1.0669  0.2812  0.1368
 6669TIP3    H241499   6.056   1.932  16.469  1.2468 -0.2701  0.2710
 6670TIP3   OH241500   4.003   3.041   1.201 -0.0960 -0.6348 -0.0230
 6670TIP3    H141501   3.909   3.052   1.212 -0.0130 -0.3319  0.4593
 6670TIP3    H241502   4.024   2.960   1.248 -0.5252 -2.3368 -2.5553
 6671TIP3   OH241503   6.197   1.369   5.972  0.2767 -0.3750  0.4541
 6671TIP3    H141504   6.184   1.388   5.880 -0.1503  1.7141  0.8954
 6671TIP3    H241505   6.216   1.275   5.975  2.5013 -0.0943 -1.9430
 6672TIP3   OH241506   4.911   1.680  10.798 -0.0147 -0.1497  0.1510
 6672TIP3    H141507   4.887   1.735  10.724  0.2663 -0.9230 -0.5212
 6672TIP3    H241508   5.001   1.653  10.780 -0.9156 -2.8073 -0.7847
 6673TIP3   OH241509   0.546   6.172   3.118  0.6326 -0.1058  0.1502
 6673TIP3    H141510   0.622   6.228   3.099 -0.6920  1.5008 -0.7112
 6673TIP3    H241511   0.478   6.203   3.058 -0.9090 -1.0587  1.3303
 6674TIP3   OH241512   5.007   5.953  15.345  0.2549 -0.1197 -0.1541
 6674TIP3    H141513   4.956   5.909  15.277  0.0211 -1.6179  0.9111
 6674TIP3    H241514   4.942   5.987  15.406  0.4001 -2.0788  1.2366
 6675TIP3   OH241515   0.590   3.311   0.882  0.4718 -0.0927 -0.0306
 6675TIP3    H141516   0.627   3.237   0.834  0.2749  0.1696 -0.6009
 6675TIP3    H241517   0.607   3.291   0.974  0.7189 -0.6817 -0.1979
 6676TIP3   OH241518   0.357   0.125  15.227  0.5725  0.4868  0.4192
 6676TIP3    H141519   0.304   0.048  15.208  0.2330  0.5134  1.2339
 6676TIP3    H241520   0.386   0.156  15.141 -1.4779  0.9999 -0.1305
 6677TIP3   OH241521   4.590   6.083  14.261  0.0761 -0.1067 -0.1790
 6677TIP3    H141522   4.592   6.026  14.184  2.1391  0.1628 -0.3684
 6677TIP3    H241523   4.499   6.077  14.293 -0.5004 -1.1752 -1.8964
 6678TIP3   OH241524   6.774   6.204  14.712  0.3472 -0.0818 -0.3705
 6678TIP3    H141525   6.794   6.290  14.747  1.8395 -0.1420 -0.9690
 6678TIP3    H241526   6.681   6.191  14.729  0.4306  0.9986  1.0855
 6679TIP3   OH241527   1.080   1.625   4.859  0.0212  0.4156 -0.1737
 6679TIP3    H141528   1.039   1.629   4.945  3.4476 -1.1524  1.7956
 6679TIP3    H241529   1.156   1.683   4.866  0.2447  0.4533 -2.2650
 6680TIP3   OH241530   3.170   3.134  10.857 -0.0612  0.5648  0.0112
 6680TIP3    H141531   3.216   3.208  10.897  0.3069  1.3923 -1.8375
 6680TIP3    H241532   3.121   3.173  10.784 -0.8494 -0.8438 -0.2501
 6681TIP3   OH241533   1.999   4.566  15.889 -0.4352  0.4525  0.1769
 6681TIP3    H141534   1.903   4.567  15.891 -0.4650  0.3368 -0.6198
 6681TIP3    H241535   2.020   4.538  15.799  0.3439  0.8487  0.2313
 6682TIP3   OH241536   0.494   0.856   1.250  0.3683 -0.7666  0.3292
 6682TIP3    H141537   0.565   0.872   1.187 -0.1112 -2.5277 -0.7342
 6682TIP3    H241538   0.432   0.927   1.235  0.1600 -1.2764 -1.3769
 6683TIP3   OH241539   4.946   4.647   5.813 -0.0141  0.2785 -0.7089
 6683TIP3    H141540   4.865   4.696   5.807 -0.0198  0.6677  1.7329
 6683TIP3    H241541   5.010   4.709   5.847  0.9385 -0.4453 -1.1048
 6684TIP3   OH241542   2.742   0.862  13.657  0.0621 -0.0230  0.2314
 6684TIP3    H141543   2.671   0.902  13.607 -1.7564 -0.5360  2.2689
 6684TIP3    H241544   2.821   0.887  13.609 -1.4369  0.5985 -2.1276
 6685TIP3   OH241545   0.168   0.398  14.602  0.2219  0.6495  0.2914
 6685TIP3    H141546   0.097   0.461  14.613 -0.6560  0.0237 -1.3802
 6685TIP3    H241547   0.127   0.322  14.562  1.9835  0.6529 -1.7204
 6686TIP3   OH241548   6.244   6.268   4.923 -0.5135 -0.2465  0.1729
 6686TIP3    H141549   6.178   6.288   4.856 -1.0972 -0.7547  0.5826
 6686TIP3    H241550   6.314   6.331   4.907 -0.2778 -0.8562 -1.4177
 6687TIP3   OH241551   1.943   2.394   1.195 -0.0006  0.1590 -0.0627
 6687TIP3    H141552   1.848   2.379   1.199 -0.1315  0.2020 -2.0273
 6687TIP3    H241553   1.982   2.307   1.202 -0.2445  0.0330 -0.2541
 6688TIP3   OH241554   2.377   3.535   1.184  0.3310 -0.4416  0.5602
 6688TIP3    H141555   2.300   3.587   1.160 -0.1456 -1.0345  0.7867
 6688TIP3    H241556   2.450   3.580   1.141 -0.0139  0.6322  1.0499
 6689TIP3   OH241557   5.780   5.729  14.446  0.1069 -0.2974  0.0995
 6689TIP3    H141558   5.756   5.821  14.449  2.2833  0.3644 -0.8953
 6689TIP3    H241559   5.861   5.723  14.497 -0.6152 -1.9146  1.1591
 6690TIP3   OH241560   3.622   4.173   3.009 -0.5503  0.1516 -0.2033
 6690TIP3    H141561   3.583   4.157   3.095  1.0954 -1.0069  0.3657
 6690TIP3    H241562   3.683   4.100   2.996  0.9531  1.5447 -1.3212
 6691TIP3   OH241563   1.401   0.942  12.384 -0.3598  0.5358  0.0110
 6691TIP3    H141564   1.306   0.931  12.392 -0.3540 -3.6872 -2.8783
 6691TIP3    H241565   1.413   0.990  12.302 -0.0348 -0.4419 -0.5273
 6692TIP3   OH241566   1.301   4.260   3.017 -0.0836 -0.1968 -0.3042
 6692TIP3    H141567   1.231   4.325   3.006 -1.7014 -1.5619  1.2098
 6692TIP3    H241568   1.343   4.283   3.099 -0.7933 -1.1128  0.3416
 6693TIP3   OH241569   6.494   5.644  16.930  0.0210 -0.1760  0.1672
 6693TIP3    H141570   6.508   5.628  17.023 -0.9809 -0.7681  0.2356
 6693TIP3    H241571   6.574   5.687  16.900 -0.1349  1.1826  1.5646
 6694TIP3   OH241572   1.905   2.452   6.020 -0.3335 -0.4145  0.3963
 6694TIP3    H141573   1.845   2.393   6.065 -0.4925 -0.5539  0.0031
 6694TIP3    H241574   1.898   2.535   6.068 -1.3490 -0.2252 -0.0560
 6695TIP3   OH241575   4.707   3.215   4.959 -0.5807  0.0979  0.1705
 6695TIP3    H141576   4.612   3.214   4.971 -0.7535  1.0337 -0.8834
 6695TIP3    H241577   4.742   3.235   5.046 -1.4288  1.0561  0.3125
 6696TIP3   OH241578   1.312   5.707   0.250  0.1360 -0.7177 -0.0511
 6696TIP3    H141579   1.351   5.653   0.181 -0.9048 -1.2197 -0.2692
 6696TIP3    H241580   1.241   5.653   0.285  1.0757 -0.7619  1.9140
 6697TIP3   OH241581   6.609   5.438   2.494 -0.3489 -0.8636 -0.2673
 6697TIP3    H141582   6.654   5.522   2.502 -0.2224 -1.1215  2.2395
 6697TIP3    H241583   6.589   5.432   2.400 -1.3492  2.4565 -0.4106
 6698TIP3   OH241584   2.198   5.316  10.543  0.2061 -0.3178 -0.3480
 6698TIP3    H141585   2.140   5.387  10.568  0.7675  0.5992 -1.5589
 6698TIP3    H241586   2.145   5.261  10.484 -0.8847 -2.0886  2.1033
 6699TIP3   OH241587   0.970   5.902   3.039 -0.2956  0.2955  0.2833
 6699TIP3    H141588   1.025   5.908   2.960  0.2687  1.6930  0.7450
 6699TIP3    H241589   1.033   5.906   3.112 -0.8338 -0.6770  0.8154
 6700TIP3   OH241590   6.193   1.140   4.297 -0.7447  0.2347 -0.0920
 6700TIP3    H141591   6.171   1.054   4.332  1.8841 -1.3323 -1.8842
 6700TIP3    H241592   6.159   1.139   4.208 -1.7885  1.6003  0.2647
 6701TIP3   OH241593   4.465   3.702  12.635  0.4129  0.5425  0.4292
 6701TIP3    H141594   4.415   3.639  12.686  1.0543  2.0807  3.1586
 6701TIP3    H241595   4.554   3.667  12.633  0.3915  0.4913  0.3581
 6702TIP3   OH241596   4.899   1.907  16.616 -0.4881  0.3069 -0.0410
 6702TIP3    H141597   4.815   1.927  16.656 -1.5447  0.1156 -2.0275
 6702TIP3    H241598   4.956   1.980  16.642 -1.3538  0.6394  1.0052
 6703TIP3   OH241599   5.394   2.139  12.259 -0.0659 -0.2996 -0.4978
 6703TIP3    H141600   5.385   2.048  12.229  0.2591 -1.1326  1.7553
 6703TIP3    H241601   5.330   2.148  12.329 -0.5540  1.4518 -1.1182
 6704TIP3   OH241602   6.813   0.360   1.261  0.6849 -0.0514 -0.2708
 6704TIP3    H141603   6.807   0.265   1.257  1.2192 -0.0425 -2.1705
 6704TIP3    H241604   6.731   0.391   1.223 -0.1772  0.3143  1.7379
 6705TIP3   OH241605   5.537   2.744   4.480  0.5509  0.2434  0.8918
 6705TIP3    H141606   5.553   2.650   4.486 -1.5038 -0.0911  2.0597
 6705TIP3    H241607   5.481   2.764   4.556 -0.6983  2.0211 -0.4145
 6706TIP3   OH241608   5.198   2.482  11.665 -0.1677 -0.0216  0.2217
 6706TIP3    H141609   5.211   2.577  11.676 -1.2995 -0.0515  2.5139
 6706TIP3    H241610   5.260   2.457  11.597  1.0473  2.1600  0.4262
 6707TIP3   OH241611   2.602   4.628  13.919 -0.2281 -0.3761 -0.1771
 6707TIP3    H141612   2.579   4.688  13.848  1.5295 -0.2174 -0.6523
 6707TIP3    H241613   2.646   4.555  13.876 -0.2609 -0.8897  0.6327
 6708TIP3   OH241614   2.837   6.125  11.651 -0.1664  0.1421 -0.4495
 6708TIP3    H141615   2.757   6.157  11.694 -0.3793 -0.1999 -0.5840
 6708TIP3    H241616   2.871   6.059  11.712 -1.1563 -1.2784 -1.3502
 6709TIP3   OH241617   6.710   4.375  13.997 -0.3516 -0.0459 -0.2490
 6709TIP3    H141618   6.764   4.408  13.925 -0.7241  1.1141 -0.0057
 6709TIP3    H241619   6.768   4.313  14.042  0.0512 -0.4319 -1.2391
 6710TIP3   OH241620   2.439   6.004  16.045  0.1734 -0.1959  0.1037
 6710TIP3    H141621   2.432   5.992  15.950  4.2811 -1.6367 -0.2003
 6710TIP3    H241622   2.353   5.977  16.079 -1.3385  0.1310 -3.1055
 6711TIP3   OH241623   1.532   3.149  12.767  0.8530  0.0882 -0.4915
 6711TIP3    H141624   1.504   3.099  12.844  1.5317 -2.0635 -1.5597
 6711TIP3    H241625   1.457   3.145  12.708  0.5722  1.1887 -0.2422
 6712TIP3   OH241626   0.433   5.633   5.656 -0.0139 -0.1510 -0.1529
 6712TIP3    H141627   0.402   5.637   5.747 -3.6795 -0.6283 -1.2305
 6712TIP3    H241628   0.387   5.705   5.612  2.3316  0.5983 -1.5476
 6713TIP3   OH241629   5.555   4.370   5.100  0.5669 -0.3890 -0.0693
 6713TIP3    H141630   5.617   4.441   5.081  1.8756 -1.6103 -0.5688
 6713TIP3    H241631   5.471   4.414   5.112  1.9009  1.6100  3.0776
 6714TIP3   OH241632   6.614   3.015  10.208 -0.1053 -0.2895 -0.1506
 6714TIP3    H141633   6.617   3.110  10.212 -2.4541  0.0156 -3.0593
 6714TIP3    H241634   6.521   2.993  10.216  0.4008 -2.4120  0.6725
 6715TIP3   OH241635   4.524   2.254  11.277  0.1714  0.0713 -0.7120
 6715TIP3    H141636   4.448   2.196  11.274 -0.2796  0.6155 -0.0974
 6715TIP3    H241637   4.599   2.197  11.257 -0.0874 -1.0337  1.2184
 6716TIP3   OH241638   0.014   4.518  13.630 -0.8241 -0.0674  0.4100
 6716TIP3    H141639   0.042   4.553  13.545 -1.2979 -0.5996  0.0213
 6716TIP3    H241640  -0.062   4.571  13.654 -2.2911 -1.5054 -0.7529
 6717TIP3   OH241641   4.118   2.044  13.293 -0.4917  0.2405 -0.5786
 6717TIP3    H141642   4.201   2.070  13.254  0.0435 -0.8301 -0.1797
 6717TIP3    H241643   4.117   2.087  13.378 -0.0652 -0.2375 -0.3307
 6718TIP3   OH241644   4.790   0.499  16.633 -0.0294 -0.1222  0.1933
 6718TIP3    H141645   4.762   0.466  16.547 -0.0811  1.6989 -0.5299
 6718TIP3    H241646   4.846   0.430  16.668 -0.2942 -1.0570 -1.1451
 6719TIP3   OH241647   0.837   3.340  16.650  0.4161 -0.0695  0.1369
 6719TIP3    H141648   0.915   3.313  16.698  0.0062 -0.4317  0.5960
 6719TIP3    H241649   0.868   3.351  16.560  0.8321 -0.9863  0.1556
 6720TIP3   OH241650   4.316   2.539  16.273 -0.4247  0.2132 -0.2000
 6720TIP3    H141651   4.288   2.599  16.343 -1.3928 -0.3454 -0.0879
 6720TIP3    H241652   4.344   2.597  16.202  0.3208  0.7915  0.5464
 6721TIP3   OH241653   0.034   1.333  11.213  0.4496 -0.4262 -0.8052
 6721TIP3    H141654   0.067   1.377  11.291  2.6766 -1.4572 -1.0848
 6721TIP3    H241655  -0.012   1.256  11.246  0.2787 -0.1749 -0.4618
 6722TIP3   OH241656   0.977   3.447  17.110 -0.2011  0.2726  0.1409
 6722TIP3    H141657   1.052   3.506  17.110  0.2595 -0.3009 -0.8157
 6722TIP3    H241658   0.967   3.420  17.019  1.1814 -3.0669  0.8335
 6723TIP3   OH241659   1.687   4.401  13.615 -0.0110  0.2965  0.2476
 6723TIP3    H141660   1.664   4.483  13.571  2.9038  0.7866 -0.5909
 6723TIP3    H241661   1.609   4.379  13.666 -1.6074  2.5323 -1.0150
 6724TIP3   OH241662   4.209   0.015  16.577 -0.0868  0.3301 -0.3592
 6724TIP3    H141663   4.172  -0.069  16.604 -1.0893  0.6319 -0.7732
 6724TIP3    H241664   4.160   0.080  16.626  1.0159  0.6739  0.3298
 6725TIP3   OH241665   1.482   5.046   4.638  0.4521 -0.0773 -0.0888
 6725TIP3    H141666   1.491   4.961   4.594  1.1583 -0.1939  0.2617
 6725TIP3    H241667   1.553   5.047   4.703  0.1276  0.5651  0.2663
 6726TIP3   OH241668   5.636   2.677   5.985 -0.2589  0.5348 -0.7430
 6726TIP3    H141669   5.691   2.727   5.925  2.6811 -2.2100 -0.5855
 6726TIP3    H241670   5.696   2.641   6.049 -2.5513 -0.9957  0.7136
 6727TIP3   OH241671   0.437   6.518  11.945  0.2472 -0.2095  0.3337
 6727TIP3    H141672   0.344   6.505  11.926  0.2645 -0.1256  0.1924
 6727TIP3    H241673   0.465   6.435  11.983  0.2771 -0.4758 -0.2532
 6728TIP3   OH241674   2.847   1.126   1.902  0.5062 -0.1271  0.3664
 6728TIP3    H141675   2.837   1.034   1.875 -0.3648  0.1228 -0.2259
 6728TIP3    H241676   2.768   1.144   1.953  0.5314  0.3678  0.2359
 6729TIP3   OH241677   3.102   5.246   5.792 -0.6581  0.0842 -0.5012
 6729TIP3    H141678   3.159   5.213   5.862 -0.3060 -1.2335 -1.3800
 6729TIP3    H241679   3.057   5.321   5.832  0.1228 -0.1366  0.8775
 6730TIP3   OH241680   1.692   4.963  14.501  0.1820  0.1121  0.3434
 6730TIP3    H141681   1.759   4.911  14.545  0.0539  0.6969  1.2411
 6730TIP3    H241682   1.667   4.910  14.425  1.5682 -0.1806  0.0573
 6731TIP3   OH241683   0.720   1.031   0.799 -0.6976 -0.9188  0.0206
 6731TIP3    H141684   0.755   0.945   0.774 -1.1908 -1.3499  0.7849
 6731TIP3    H241685   0.638   1.012   0.843 -0.7414 -0.0554  0.3347
 6732TIP3   OH241686   5.924   1.110   3.744  0.0849  0.1976 -0.6462
 6732TIP3    H141687   6.012   1.135   3.716 -0.5854  0.5895 -2.5941
 6732TIP3    H241688   5.918   1.017   3.725  0.9639 -0.5325  2.1466
 6733TIP3   OH241689   0.977   3.050   4.714  0.5204  0.2547  0.4417
 6733TIP3    H141690   0.915   3.102   4.662  1.7409  0.7197 -0.6117
 6733TIP3    H241691   0.961   2.960   4.686  0.8918  0.4596 -0.4700
 6734TIP3   OH241692   6.762   6.055   3.022 -0.1416  0.2337  0.3665
 6734TIP3    H141693   6.685   6.100   2.987 -0.1001  0.8885  1.1109
 6734TIP3    H241694   6.769   6.085   3.112  0.4516 -0.5336  0.5863
 6735TIP3   OH241695   5.448   1.752  17.018  0.4781  0.2204  0.3172
 6735TIP3    H141696   5.478   1.688  16.954 -0.4235 -1.4814  1.5242
 6735TIP3    H241697   5.353   1.740  17.021  0.1089  2.5014 -0.2915
 6736TIP3   OH241698   1.397   0.659   0.120  0.3045 -0.2437  0.5360
 6736TIP3    H141699   1.440   0.669   0.035  0.1050 -1.6681  0.2415
 6736TIP3    H241700   1.381   0.748   0.150  2.2026  0.2999  0.0231
 6737TIP3   OH241701   5.434   1.984  16.048 -0.4206  0.2352  0.6086
 6737TIP3    H141702   5.525   2.014  16.055  0.5371 -2.7270  2.3756
 6737TIP3    H241703   5.416   1.941  16.132 -3.0599 -0.3484 -0.1607
 6738TIP3   OH241704   5.692   2.382   5.337 -0.5650  0.1555 -0.0892
 6738TIP3    H141705   5.751   2.457   5.326  2.3533 -1.8708  0.5960
 6738TIP3    H241706   5.715   2.323   5.265 -1.7249 -0.7483  0.2510
 6739TIP3   OH241707   3.768   0.207   1.998 -0.2584  0.1898 -0.2286
 6739TIP3    H141708   3.797   0.232   2.085 -1.6286  1.0043  0.0262
 6739TIP3    H241709   3.824   0.133   1.974  0.7252  0.5146  0.9633
 6740TIP3   OH241710   6.287   4.887  16.627 -0.7478 -0.0995 -0.0173
 6740TIP3    H141711   6.237   4.808  16.649 -0.7066  0.4560  2.2824
 6740TIP3    H241712   6.375   4.855  16.609 -0.5105 -0.5305  1.7654
 6741TIP3   OH241713   4.178   0.055   1.261 -0.0737  0.3875  0.0395
 6741TIP3    H141714   4.179   0.066   1.166  2.2480 -1.3407 -0.2231
 6741TIP3    H241715   4.266   0.082   1.289 -0.7891  1.1150  1.7686
 6742TIP3   OH241716   0.471   3.857   1.115 -0.5999  0.2744  0.2770
 6742TIP3    H141717   0.534   3.787   1.132  0.1399  1.0870  0.9855
 6742TIP3    H241718   0.461   3.858   1.020 -1.0939 -1.1801  0.2877
 6743TIP3   OH241719   5.989   6.277  12.317 -0.3850  0.3525  0.1936
 6743TIP3    H141720   6.044   6.218  12.369 -0.0627  0.3375 -0.1693
 6743TIP3    H241721   5.975   6.353  12.374  0.4757  0.6061  0.0661
 6744TIP3   OH241722   5.872   0.398   6.290  0.1151  0.3218 -0.4408
 6744TIP3    H141723   5.828   0.314   6.300  1.8841 -0.6311 -0.3224
 6744TIP3    H241724   5.928   0.387   6.213  2.8427  0.2008  1.4210
 6745TIP3   OH241725   2.607   2.881  16.211 -0.2191  0.0423  0.0239
 6745TIP3    H141726   2.574   2.797  16.242  0.3536 -0.4866 -0.7631
 6745TIP3    H241727   2.605   2.874  16.115  0.6807  0.5789 -0.0501
 6746TIP3   OH241728   5.402   5.376  16.760 -0.5562 -0.0464  0.0890
 6746TIP3    H141729   5.458   5.360  16.836 -1.3207 -0.6364  0.5399
 6746TIP3    H241730   5.365   5.290  16.740 -0.4972  0.1347 -0.8523
 6747TIP3   OH241731   3.919   3.461   1.674 -0.6347 -0.1619  0.3110
 6747TIP3    H141732   3.923   3.368   1.694  0.9572 -0.2607 -0.3020
 6747TIP3    H241733   3.931   3.505   1.758 -1.3760 -0.5084  0.5982
 6748TIP3   OH241734   0.100   0.485  15.386  0.5975  0.0301 -0.4980
 6748TIP3    H141735   0.123   0.468  15.294  1.8986  1.1136 -0.4048
 6748TIP3    H241736   0.005   0.497  15.386  0.8163  2.3687 -2.1233
 6749TIP3   OH241737   1.335   0.861   1.973  0.3329  0.8517 -0.3386
 6749TIP3    H141738   1.424   0.831   1.990 -0.4947 -1.2912  0.6519
 6749TIP3    H241739   1.301   0.886   2.060 -1.1706 -1.9820  0.0212
 6750TIP3   OH241740   6.433   0.273  15.826 -0.0665  0.5735 -0.0575
 6750TIP3    H141741   6.443   0.301  15.735  2.7350 -0.2855 -0.0997
 6750TIP3    H241742   6.446   0.353  15.877  3.8560  0.2871 -0.3200
 6751TIP3   OH241743   2.019   6.211   2.732 -0.6730  0.1239  0.0115
 6751TIP3    H141744   2.071   6.291   2.732 -0.8565  0.2461  0.0634
 6751TIP3    H241745   1.952   6.227   2.799 -0.0413 -0.5109  0.8186
 6752TIP3   OH241746   3.175   2.683  13.548  0.3366  0.5927  0.6845
 6752TIP3    H141747   3.166   2.645  13.635 -0.8420 -0.0783  0.2906
 6752TIP3    H241748   3.265   2.663  13.522  1.3314  2.4000  2.4552
 6753TIP3   OH241749   4.073   0.507   5.474 -0.7751  0.1766  0.4001
 6753TIP3    H141750   4.013   0.543   5.541  0.4673  2.4306  0.4066
 6753TIP3    H241751   4.066   0.568   5.401  3.8771  2.6718  1.6385
 6754TIP3   OH241752   5.301   5.687   1.264  0.7888  0.6169 -0.2368
 6754TIP3    H141753   5.324   5.668   1.173  0.1341  0.9079 -0.4719
 6754TIP3    H241754   5.359   5.631   1.316  1.2226  0.5088 -0.8297
 6755TIP3   OH241755   6.427   0.456   1.590 -0.9284  0.0551 -0.2897
 6755TIP3    H141756   6.381   0.451   1.675 -1.3562  1.4990 -0.3977
 6755TIP3    H241757   6.510   0.412   1.605  0.0402  2.2947  1.6431
 6756TIP3   OH241758   5.441   6.214   4.943 -0.4735 -0.3733  0.2536
 6756TIP3    H141759   5.392   6.210   5.024 -0.9692  0.2101 -0.0112
 6756TIP3    H241760   5.442   6.306   4.919 -0.2034 -0.5162 -0.3237
 6757TIP3   OH241761   3.958   1.974  15.213 -0.3458 -0.3437  0.1207
 6757TIP3    H141762   4.027   1.914  15.240 -1.6062 -1.7917  0.2164
 6757TIP3    H241763   3.915   1.999  15.295 -1.1493 -0.9712 -0.1063
 6758TIP3   OH241764   3.852   4.563  13.624 -0.2980  0.3004  0.5626
 6758TIP3    H141765   3.784   4.630  13.617  0.5199  1.2339  1.2202
 6758TIP3    H241766   3.915   4.586  13.555 -0.7258 -0.6595 -0.1583
 6759TIP3   OH241767   5.009   4.266  11.572  0.2235 -0.2360 -0.2614
 6759TIP3    H141768   5.035   4.358  11.572 -1.3966  0.2730 -1.1229
 6759TIP3    H241769   4.913   4.268  11.580  0.1491 -1.8407 -0.3246
 6760TIP3   OH241770   3.866   3.006  14.391  0.5412 -0.0343 -0.4582
 6760TIP3    H141771   3.771   2.998  14.397  0.4959 -0.5196 -1.4513
 6760TIP3    H241772   3.894   2.919  14.362  1.1736  0.4003 -1.1868
 6761TIP3   OH241773   4.917   0.708   4.075 -0.0494  0.2572 -0.1902
 6761TIP3    H141774   4.841   0.751   4.114  0.5727  0.1634  1.1732
 6761TIP3    H241775   4.929   0.628   4.126  1.9723  1.0980  0.7769
 6762TIP3   OH241776   1.185   6.121   3.072  0.2746  0.3453 -0.2019
 6762TIP3    H141777   1.277   6.134   3.095  0.4553  0.6708 -1.0786
 6762TIP3    H241778   1.180   6.142   2.979 -0.5527 -0.3623 -0.3281
 6763TIP3   OH241779   4.918   1.662   0.189 -0.3688  0.2096 -0.2589
 6763TIP3    H141780   4.960   1.576   0.189 -0.5595  0.1141 -0.2289
 6763TIP3    H241781   4.877   1.669   0.275 -0.7925  0.1109 -0.4493
 6764TIP3   OH241782   0.457   3.437  11.172  0.4220 -0.0158  0.1038
 6764TIP3    H141783   0.429   3.524  11.144  1.2943  0.5738  0.9861
 6764TIP3    H241784   0.521   3.410  11.107  1.0713  0.5448  0.5055
 6765TIP3   OH241785   1.429   6.679  14.547  0.0765 -0.2386  0.0720
 6765TIP3    H141786   1.384   6.665  14.630  1.0624 -2.3417  0.3291
 6765TIP3    H241787   1.452   6.591  14.517  0.5247  0.5193 -2.0041
 6766TIP3   OH241788   4.032   0.901  14.474  0.2933 -0.5999 -0.8406
 6766TIP3    H141789   4.073   0.947  14.400 -0.4129  4.5532  1.4862
 6766TIP3    H241790   3.944   0.937  14.478  0.6415  0.3211  2.9910
 6767TIP3   OH241791   4.381   2.544   0.018 -0.3446 -0.0460  0.6275
 6767TIP3    H141792   4.454   2.492   0.053 -1.0412 -1.7679 -0.3789
 6767TIP3    H241793   4.354   2.498  -0.061 -2.3493  0.7196  0.8062
 6768TIP3   OH241794   3.657   5.382   2.290  0.7698  0.1849  0.1181
 6768TIP3    H141795   3.727   5.378   2.356 -0.3561  1.7932  1.5194
 6768TIP3    H241796   3.590   5.322   2.323  1.2276 -0.9485 -0.9438
 6769TIP3   OH241797   4.815   6.063  14.406  0.3972 -0.4120  1.2644
 6769TIP3    H141798   4.873   6.134  14.434 -0.1631  0.2775  0.7124
 6769TIP3    H241799   4.738   6.108  14.371 -0.4402 -1.3086  1.9187
 6770TIP3   OH241800   2.428   4.351  11.557  0.2109  0.3016  0.6717
 6770TIP3    H141801   2.415   4.434  11.512  0.3015 -1.0088 -1.9101
 6770TIP3    H241802   2.339   4.321  11.578 -0.0553 -0.4138 -1.2930
 6771TIP3   OH241803   0.386   3.421  13.187 -0.0943 -0.7797  0.5524
 6771TIP3    H141804   0.325   3.419  13.261  1.0397 -1.3230  1.5140
 6771TIP3    H241805   0.453   3.484  13.213 -0.0145 -0.4927 -0.3124
 6772TIP3   OH241806   6.645   6.784   3.821 -0.9674  0.3244 -0.6235
 6772TIP3    H141807   6.618   6.806   3.910  0.7538  0.8533 -0.2012
 6772TIP3    H241808   6.668   6.691   3.825 -0.2439  0.5105 -0.3360
 6773TIP3   OH241809   1.750   5.109  13.412 -0.4257 -0.4931 -0.0582
 6773TIP3    H141810   1.814   5.048  13.376 -0.1574  0.0999 -0.6119
 6773TIP3    H241811   1.797   5.193  13.417 -0.8730 -0.2605  0.4148
 6774TIP3   OH241812   2.670   3.869   0.364  0.0430  0.3292  0.5400
 6774TIP3    H141813   2.728   3.945   0.356 -0.1418  0.7168  2.3775
 6774TIP3    H241814   2.717   3.810   0.424 -0.3218 -0.5263  0.0067
 6775TIP3   OH241815   6.793   5.403   0.805 -0.0831  0.3599  0.5540
 6775TIP3    H141816   6.716   5.454   0.781  0.5119  1.4851  0.9955
 6775TIP3    H241817   6.760   5.313   0.811 -1.2596  0.7501  0.2999
 6776TIP3   OH241818   6.294   4.759   0.662  0.0551 -0.4460 -0.1975
 6776TIP3    H141819   6.304   4.697   0.734  1.4145 -0.6328 -0.5222
 6776TIP3    H241820   6.283   4.703   0.585  0.3985 -0.2828 -0.3688
 6777TIP3   OH241821   0.967   2.426   5.544  0.3980  0.5506 -0.2494
 6777TIP3    H141822   0.938   2.498   5.601  0.7230 -0.3340  1.0959
 6777TIP3    H241823   0.908   2.430   5.469 -0.7280  1.1445  0.6251
 6778TIP3   OH241824   3.199   0.067  12.373  0.1363 -0.9743 -0.2314
 6778TIP3    H141825   3.214   0.145  12.320 -0.0549 -0.9267 -0.2157
 6778TIP3    H241826   3.104   0.059  12.378  0.1474 -0.7272  0.4620
 6779TIP3   OH241827   5.779   4.306  11.315  0.2668 -0.5115 -0.5349
 6779TIP3    H141828   5.872   4.295  11.336  0.0531 -2.6579 -0.4563
 6779TIP3    H241829   5.761   4.399  11.331  2.5738  0.1398 -1.3469
 6780TIP3   OH241830   4.904   4.222   0.374 -0.1158 -0.2170 -0.5341
 6780TIP3    H141831   4.906   4.184   0.287  0.0064  0.9972 -1.0761
 6780TIP3    H241832   4.954   4.303   0.367 -2.3606  1.3158 -0.0355
 6781TIP3   OH241833   3.409   2.507   4.374  0.1033 -0.1295  0.3274
 6781TIP3    H141834   3.338   2.464   4.327 -0.4394  0.1616  0.8767
 6781TIP3    H241835   3.479   2.515   4.309 -1.1195  1.5618 -0.8639
 6782TIP3   OH241836   3.210   0.271  11.593 -0.6628  0.0740 -0.1684
 6782TIP3    H141837   3.254   0.192  11.562  1.9018  1.5642 -0.5985
 6782TIP3    H241838   3.275   0.316  11.646 -1.5178  2.5865 -1.0731
 6783TIP3   OH241839   3.847   3.285   2.228 -0.2886  0.1617 -0.2555
 6783TIP3    H141840   3.838   3.190   2.224  0.3376  0.0384  0.8108
 6783TIP3    H241841   3.941   3.301   2.223 -0.3110  0.6466  0.5651
 6784TIP3   OH241842   5.143   5.268  11.296 -0.4646 -0.0160  0.3536
 6784TIP3    H141843   5.225   5.264  11.245 -0.5257  1.3704  0.1181
 6784TIP3    H241844   5.139   5.358  11.327 -2.3181  0.1620 -0.3202
 6785TIP3   OH241845   6.542   2.468  14.704  0.1736 -0.4469  0.1550
 6785TIP3    H141846   6.635   2.468  14.681  0.1763 -3.5706 -0.2758
 6785TIP3    H241847   6.508   2.549  14.666  2.1529 -0.6596 -2.3535
 6786TIP3   OH241848   5.736   4.500  10.239  0.4668 -0.0180 -0.1800
 6786TIP3    H141849   5.739   4.585  10.284 -1.3844 -0.1609  0.3160
 6786TIP3    H241850   5.653   4.501  10.192  0.3917 -1.5661 -0.1330
 6787TIP3   OH241851   4.843   6.657  14.760 -0.2419  0.0757  0.3326
 6787TIP3    H141852   4.938   6.653  14.747 -0.2266  1.1042  0.0011
 6787TIP3    H241853   4.811   6.705  14.683 -1.1457 -1.0724 -0.0383
 6788TIP3   OH241854   4.577   4.745  16.323 -0.2843 -0.0408  0.2401
 6788TIP3    H141855   4.665   4.714  16.344  0.3738  0.4732 -1.5802
 6788TIP3    H241856   4.587   4.839  16.311 -1.1659  0.0809  0.3680
 6789TIP3   OH241857   3.028   3.865  12.456 -0.2216 -0.1492 -0.3317
 6789TIP3    H141858   3.015   3.818  12.374 -0.1897  0.1293 -0.4952
 6789TIP3    H241859   2.944   3.906  12.474 -0.0211  0.3885 -0.6015
 6790TIP3   OH241860   6.408   5.725  11.897  0.0771  0.5425  1.0305
 6790TIP3    H141861   6.391   5.633  11.918  0.5234  0.1234 -0.3674
 6790TIP3    H241862   6.322   5.764  11.887 -0.1163  0.3024  1.6953
 6791TIP3   OH241863   5.632   1.913  10.509 -1.0775  0.0194  0.1507
 6791TIP3    H141864   5.581   1.888  10.586 -0.3788 -2.0283 -0.0080
 6791TIP3    H241865   5.683   1.835  10.487 -0.8744  0.7191 -2.0852
 6792TIP3   OH241866   6.471   4.406   2.983 -0.5152  0.1782 -0.1443
 6792TIP3    H141867   6.549   4.387   2.931 -0.9717  1.9638 -1.5990
 6792TIP3    H241868   6.446   4.495   2.956 -1.9943  0.3484  1.6381
 6793TIP3   OH241869   0.808   0.147  11.057  0.3610 -0.1422  0.4433
 6793TIP3    H141870   0.865   0.105  11.122 -0.8849  0.0828  1.7404
 6793TIP3    H241871   0.724   0.102  11.066 -0.6834  1.7786  1.0680
 6794TIP3   OH241872   6.029   3.915  14.619 -0.3134  0.8438  0.2308
 6794TIP3    H141873   5.977   3.891  14.542  0.0412  2.9569 -0.7324
 6794TIP3    H241874   5.984   3.874  14.693 -1.8047  0.4083 -0.8714
 6795TIP3   OH241875   5.997   0.890   1.045 -0.0419  0.4748  0.0355
 6795TIP3    H141876   5.983   0.933   0.961  0.8812  1.1994  0.2496
 6795TIP3    H241877   5.952   0.945   1.109 -1.6313 -0.6140 -0.0793
 6796TIP3   OH241878   2.319   4.596  16.222  0.1806  0.1199 -0.6330
 6796TIP3    H141879   2.231   4.562  16.208 -0.3591  1.1136  0.2097
 6796TIP3    H241880   2.333   4.656  16.149  0.4043 -0.4672 -1.0859
 6797TIP3   OH241881   6.111   1.455  15.661  0.1973 -0.0321 -0.2380
 6797TIP3    H141882   6.172   1.383  15.643  0.0674 -0.5496  1.2994
 6797TIP3    H241883   6.052   1.456  15.585 -0.2796 -2.0520  0.0688
 6798TIP3   OH241884   0.518   2.344  10.468  0.1149 -0.3505  0.0051
 6798TIP3    H141885   0.474   2.260  10.456 -0.9377  0.3911 -1.6246
 6798TIP3    H241886   0.600   2.322  10.513  0.0482 -2.2985 -0.7328
 6799TIP3   OH241887   4.088   1.638   4.271 -0.2206 -0.5502  0.5891
 6799TIP3    H141888   4.179   1.662   4.286 -0.3922  0.4393  0.1077
 6799TIP3    H241889   4.056   1.609   4.357  0.1356  0.4873  1.0814
 6800TIP3   OH241890   1.610   1.825   4.088  0.2890 -0.1944  0.6850
 6800TIP3    H141891   1.529   1.780   4.064 -0.9259  1.6095  1.2330
 6800TIP3    H241892   1.676   1.787   4.030 -1.2968 -0.4451 -1.0644
 6801TIP3   OH241893   5.682   1.741   5.905 -0.3933 -0.5340  0.0054
 6801TIP3    H141894   5.664   1.811   5.968 -2.9482 -1.4317  0.3963
 6801TIP3    H241895   5.696   1.787   5.822  0.0005  0.5231  0.6310
 6802TIP3   OH241896   3.842   4.587   1.784  0.4908 -0.6273 -0.6465
 6802TIP3    H141897   3.879   4.609   1.699  1.9367  0.8869  0.3037
 6802TIP3    H241898   3.886   4.647   1.845 -1.1747 -1.0231  1.0334
 6803TIP3   OH241899   1.304   5.308  14.908 -0.2622  0.4123  0.2645
 6803TIP3    H141900   1.332   5.370  14.975  1.3787 -0.3422  0.3272
 6803TIP3    H241901   1.210   5.324  14.898 -0.9386 -0.4294  3.7929
 6804TIP3   OH241902   0.285   3.697  16.230  0.1114  0.7118  0.1344
 6804TIP3    H141903   0.368   3.696  16.277 -0.9846  1.3042  2.2373
 6804TIP3    H241904   0.234   3.766  16.272 -1.4206  0.4436 -1.1563
 6805TIP3   OH241905   3.400   6.177  14.542 -0.4815 -0.8409 -0.1117
 6805TIP3    H141906   3.423   6.085  14.534  0.0306 -0.5969 -1.6875
 6805TIP3    H241907   3.373   6.203  14.454  0.1168  0.6939  0.1278
 6806TIP3   OH241908   4.409   6.211  12.331 -0.1643  0.5507  0.5331
 6806TIP3    H141909   4.468   6.163  12.274  0.9374  3.3995 -0.9465
 6806TIP3    H241910   4.460   6.228  12.410 -0.1951  0.1680  0.6350
 6807TIP3   OH241911   1.267   2.933  13.171 -0.0823 -0.7041 -0.5538
 6807TIP3    H141912   1.303   2.906  13.256 -0.5643 -0.4832 -0.2721
 6807TIP3    H241913   1.198   2.868  13.153 -0.3027 -0.4748 -0.5415
 6808TIP3   OH241914   4.181   5.733   2.760 -0.4392 -0.2404  0.3338
 6808TIP3    H141915   4.233   5.813   2.764 -1.9989  0.8446 -0.2005
 6808TIP3    H241916   4.182   5.708   2.667 -0.4333 -0.5125  0.4069
 6809TIP3   OH241917   2.157   1.732  10.573 -0.4949 -0.3336  0.3653
 6809TIP3    H141918   2.071   1.760  10.542  0.5783  0.7337 -1.9530
 6809TIP3    H241919   2.217   1.801  10.542  1.2519 -1.2878  1.4624
 6810TIP3   OH241920   6.344   6.361  12.277 -0.2805  0.7636 -0.0059
 6810TIP3    H141921   6.274   6.420  12.248 -1.7003 -1.8002 -2.3587
 6810TIP3    H241922   6.412   6.371  12.210 -0.7340 -0.5379 -0.6825
 6811TIP3   OH241923   4.003   0.598  15.923  0.0746  0.1555  0.1135
 6811TIP3    H141924   3.997   0.561  16.011  1.2197  0.1823  0.2245
 6811TIP3    H241925   4.054   0.534  15.874 -2.5389 -1.0342 -1.2328
 6812TIP3   OH241926   2.373   5.901   3.617  0.1968  0.0727  0.3395
 6812TIP3    H141927   2.327   5.862   3.543 -0.3410 -1.0238  1.2163
 6812TIP3    H241928   2.318   5.974   3.644  0.7373  0.9055 -0.7338
 6813TIP3   OH241929   0.602   3.162  10.676 -0.0472  0.3080 -0.7781
 6813TIP3    H141930   0.659   3.121  10.741 -0.9383  0.6421  0.2411
 6813TIP3    H241931   0.551   3.090  10.639 -0.8428  0.3331  0.2333
 6814TIP3   OH241932   2.537   0.749  12.987  0.3509 -0.5943 -0.0208
 6814TIP3    H141933   2.446   0.778  12.979  0.8668  0.5972 -4.9768
 6814TIP3    H241934   2.535   0.656  12.963  0.5313 -0.0329 -2.4826
 6815TIP3   OH241935   0.947   0.980   5.568  0.3502  0.4419  0.6797
 6815TIP3    H141936   0.881   0.921   5.604  0.9954 -1.1936 -0.7003
 6815TIP3    H241937   1.027   0.928   5.565  0.8609  1.2431 -0.9583
 6816TIP3   OH241938   5.031   0.431  13.145 -0.5576 -0.7194  0.2943
 6816TIP3    H141939   5.122   0.403  13.158 -0.8053 -1.3984  0.6073
 6816TIP3    H241940   5.019   0.502  13.207  0.2743  0.5653 -0.9552
 6817TIP3   OH241941   4.808   6.090  11.883 -0.0022 -0.0063 -0.1199
 6817TIP3    H141942   4.833   6.031  11.955 -0.5235  0.2019  0.2391
 6817TIP3    H241943   4.733   6.047  11.842 -1.5832  1.2708  1.3082
 6818TIP3   OH241944   4.562   2.816  10.984 -0.2487  0.4201  0.9315
 6818TIP3    H141945   4.644   2.819  10.934 -0.4570 -0.5126  0.5192
 6818TIP3    H241946   4.513   2.893  10.955  1.5274  2.5516  3.0739
 6819TIP3   OH241947   4.394   1.020   1.227 -0.0114 -0.3862 -0.6304
 6819TIP3    H141948   4.316   0.981   1.267 -0.1896  0.4986 -0.0983
 6819TIP3    H241949   4.459   1.023   1.298 -0.5376  1.7784 -0.1787
 6820TIP3   OH241950   2.850   2.603  14.197  0.3832 -0.1294  0.0504
 6820TIP3    H141951   2.935   2.632  14.230  0.5712 -0.1136 -0.4472
 6820TIP3    H241952   2.868   2.519  14.155  0.2118  0.0349 -0.3495
 6821TIP3   OH241953   1.413   2.394  16.879  0.4788  0.1204  0.1355
 6821TIP3    H141954   1.382   2.456  16.945 -1.1690 -1.0400  0.5026
 6821TIP3    H241955   1.503   2.422  16.861 -0.0329  2.3054  0.6310
 6822TIP3   OH241956   5.136   1.733   5.202  0.4686 -0.2412  0.0942
 6822TIP3    H141957   5.139   1.772   5.115  0.5194  0.4236  0.3895
 6822TIP3    H241958   5.043   1.710   5.215  0.7384 -2.1087 -0.8822
 6823TIP3   OH241959   4.269   0.057   4.550 -0.7367  0.5816 -0.5960
 6823TIP3    H141960   4.354   0.034   4.512 -0.7362 -1.0131  0.2500
 6823TIP3    H241961   4.242   0.136   4.505  2.0274  2.1925  0.3526
 6824TIP3   OH241962   2.733   0.343  14.623  0.0523  0.0793 -0.1825
 6824TIP3    H141963   2.640   0.352  14.641  0.6561  1.7169  2.9041
 6824TIP3    H241964   2.748   0.401  14.549 -1.1369  1.3319  0.4978
 6825TIP3   OH241965   4.020   6.161   0.235 -0.0761  0.1859  0.9448
 6825TIP3    H141966   3.969   6.201   0.165 -0.5197 -2.7045 -0.5037
 6825TIP3    H241967   3.972   6.082   0.259  2.7034 -1.7088  0.7955
 6826TIP3   OH241968   0.187   3.029   3.434  0.3476 -0.3588 -0.0491
 6826TIP3    H141969   0.109   2.985   3.401  0.4823 -0.6542  0.0246
 6826TIP3    H241970   0.254   3.011   3.369  0.3592 -0.1172 -0.1046
 6827TIP3   OH241971   2.457   6.108  11.957  0.6301 -0.1016  0.0432
 6827TIP3    H141972   2.538   6.082  12.000  1.1137  0.7313 -0.3353
 6827TIP3    H241973   2.411   6.026  11.940  1.0282 -0.5284  0.9630
 6828TIP3   OH241974   2.861   2.555  14.517 -0.0017 -0.0437  0.1116
 6828TIP3    H141975   2.828   2.611  14.446 -1.1140  0.4388  0.9734
 6828TIP3    H241976   2.892   2.476  14.473 -2.4832 -0.6094 -0.7942
 6829TIP3   OH241977   2.387   0.414  12.471  0.2310  0.8145  0.3141
 6829TIP3    H141978   2.400   0.428  12.377  1.7948 -1.0643  0.1801
 6829TIP3    H241979   2.302   0.372  12.477  0.1651  0.8506 -0.2697
 6830TIP3   OH241980   4.603   3.644   2.823  0.2387  0.2447  0.3871
 6830TIP3    H141981   4.539   3.701   2.867  1.0345  0.8097  0.8275
 6830TIP3    H241982   4.573   3.555   2.844 -0.6524  0.4917  0.2223
 6831TIP3   OH241983   6.812   4.389  16.045  0.4513  0.4799  0.1906
 6831TIP3    H141984   6.744   4.346  15.993  0.3046  0.1835  0.6232
 6831TIP3    H241985   6.764   4.429  16.119  0.7341  0.3401  0.4528
 6832TIP3   OH241986   0.332   1.292   4.615 -1.2284  0.6086 -0.0793
 6832TIP3    H141987   0.371   1.268   4.531 -0.5736  0.3292  0.2927
 6832TIP3    H241988   0.280   1.370   4.596 -0.8042  0.7539 -0.6837
 6833TIP3   OH241989   3.981   5.562   4.044  0.0508 -0.1331  0.0589
 6833TIP3    H141990   4.037   5.528   4.114  0.3273  0.5839  0.1989
 6833TIP3    H241991   3.974   5.656   4.063 -0.3015 -0.0268 -0.5783
 6834TIP3   OH241992   1.626   4.875   4.080 -0.2472  0.7180 -0.2665
 6834TIP3    H141993   1.533   4.885   4.102 -0.4044 -0.4790 -0.3056
 6834TIP3    H241994   1.671   4.881   4.164 -0.6250 -1.3484  0.1490
 6835TIP3   OH241995   5.837   6.036  16.749 -0.0189  0.0075 -0.2493
 6835TIP3    H141996   5.897   6.111  16.748 -1.7182  1.4472 -1.1964
 6835TIP3    H241997   5.861   5.984  16.673  0.3312  0.3131 -0.3458
 6836TIP3   OH241998   2.211   1.770  16.808 -0.1882 -0.1136 -0.6255
 6836TIP3    H141999   2.301   1.803  16.820 -0.8759  2.5066 -1.8819
 6836TIP3    H242000   2.188   1.797  16.719 -1.8889 -1.6557 -0.6922
 6837TIP3   OH242001   2.420   2.944   1.721 -0.4407  0.3259  0.1017
 6837TIP3    H142002   2.373   2.890   1.659 -0.1505  1.7715 -1.4397
 6837TIP3    H242003   2.352   2.990   1.770 -0.6847 -1.2778  1.3447
 6838TIP3   OH242004   4.123   0.837  17.009 -0.5441  0.0529 -0.4302
 6838TIP3    H142005   4.165   0.922  16.998  0.1772 -0.2916 -0.4367
 6838TIP3    H242006   4.050   0.838  16.948 -0.5205  0.6570 -0.4554
 6839TIP3   OH242007   2.738   4.845   4.783 -0.8058  0.0176 -0.1733
 6839TIP3    H142008   2.725   4.833   4.877 -1.2165 -0.7446 -0.3214
 6839TIP3    H242009   2.667   4.795   4.743 -0.3130 -0.1025 -0.9017
 6840TIP3   OH242010   2.424   1.213  12.462  0.1672  0.0900  0.0069
 6840TIP3    H142011   2.348   1.167  12.498 -0.0819 -0.0523 -0.6952
 6840TIP3    H242012   2.476   1.144  12.421 -0.4996  0.4833 -1.5769
 6841TIP3   OH242013   0.700   5.387  12.908 -0.6097 -0.0015  0.2787
 6841TIP3    H142014   0.720   5.369  12.999 -0.3174 -1.7272 -0.1076
 6841TIP3    H242015   0.681   5.302  12.869 -0.7764  0.6981 -1.2681
 6842TIP3   OH242016   2.977   4.422  12.501 -0.5348  0.1306 -0.1932
 6842TIP3    H142017   3.004   4.369  12.426 -1.1800  0.2125 -0.4872
 6842TIP3    H242018   2.912   4.368  12.546 -0.1057  0.0544  0.3481
 6843TIP3   OH242019   0.675   3.176  15.103  0.0951  0.0700 -0.0175
 6843TIP3    H142020   0.689   3.131  15.020 -0.1516 -0.1672  0.0663
 6843TIP3    H242021   0.663   3.105  15.167 -0.9673  0.2464  0.0008
 6844TIP3   OH242022   6.321   0.408   2.212 -0.0558 -0.0334  0.0632
 6844TIP3    H142023   6.323   0.434   2.304  1.3753  1.8545 -0.4311
 6844TIP3    H242024   6.402   0.358   2.200  1.2053  2.0891 -0.7313
 6845TIP3   OH242025   3.856   0.846  13.454 -0.7816  0.2942 -0.3318
 6845TIP3    H142026   3.807   0.879  13.378  0.8810  0.3398 -1.4210
 6845TIP3    H242027   3.893   0.763  13.424 -0.4122  0.1194  0.5716
 6846TIP3   OH242028   2.990   1.696   1.849  0.6850  0.3736  0.6532
 6846TIP3    H142029   2.940   1.620   1.819  0.1241  0.5822  1.0424
 6846TIP3    H242030   3.032   1.730   1.770  0.5330 -0.0439  0.3888
 6847TIP3   OH242031   0.777   1.471  13.712  0.0026 -0.1164  0.1973
 6847TIP3    H142032   0.862   1.513  13.707 -0.2703  0.3121 -1.1199
 6847TIP3    H242033   0.775   1.431  13.799  1.4255  0.1055  0.3489
 6848TIP3   OH242034   1.669   5.263   3.092  0.1128  0.7401  0.1070
 6848TIP3    H142035   1.616   5.330   3.135 -0.4388 -0.2312  1.0054
 6848TIP3    H242036   1.717   5.221   3.163 -0.4506 -0.5803 -0.2432
 6849TIP3   OH242037   4.845   6.634   4.816 -0.0144 -0.0380  0.2371
 6849TIP3    H142038   4.765   6.655   4.863 -0.3611  0.4735 -0.5528
 6849TIP3    H242039   4.861   6.710   4.761  0.4734 -0.5446 -0.3396
 6850TIP3   OH242040   0.719   3.401  10.713  0.1883  0.2044 -0.5357
 6850TIP3    H142041   0.765   3.436  10.636 -1.8221  2.8785 -0.6872
 6850TIP3    H242042   0.701   3.310  10.690  1.0858  0.4680 -2.5435
 6851TIP3   OH242043   3.165   4.068  16.641  0.5529  0.1276 -0.8021
 6851TIP3    H142044   3.179   4.049  16.549  0.1004  0.1285 -0.8724
 6851TIP3    H242045   3.224   4.142  16.659 -0.2891  0.9777 -1.4175
 6852TIP3   OH242046   6.031   1.628  14.317 -0.0652  0.1022 -0.5257
 6852TIP3    H142047   5.952   1.679  14.337  0.0420 -0.7644  2.5004
 6852TIP3    H242048   6.006   1.537  14.334  1.4807 -0.2134  0.2501
 6853TIP3   OH242049   5.619   1.708   2.087  0.2838  0.1567 -0.1443
 6853TIP3    H142050   5.587   1.692   1.998  0.6198 -0.5406 -0.1467
 6853TIP3    H242051   5.712   1.727   2.075  0.3169  0.1186  0.0531
 6854TIP3   OH242052   5.211   6.383  14.799 -0.0401 -0.3002  0.8440
 6854TIP3    H142053   5.152   6.325  14.847 -0.0268  0.1787  1.4587
 6854TIP3    H242054   5.277   6.408  14.863 -0.0567  0.4076  0.5964
 6855TIP3   OH242055   5.588   4.361  12.889 -0.5619 -0.7566  0.5208
 6855TIP3    H142056   5.657   4.405  12.839 -0.1143 -2.3044 -0.2800
 6855TIP3    H242057   5.558   4.428  12.951  1.6100  0.0001  0.8584
 6856TIP3   OH242058   4.076   3.276   4.003 -0.3116  0.0676 -0.2101
 6856TIP3    H142059   4.073   3.372   4.005  0.2747  0.0933 -0.1939
 6856TIP3    H242060   4.078   3.254   3.910 -0.1606  0.0886 -0.2133
 6857TIP3   OH242061   2.826   0.742   5.547  0.3859 -0.0564 -0.5472
 6857TIP3    H142062   2.816   0.647   5.547  0.1859 -0.0354 -1.3519
 6857TIP3    H242063   2.901   0.758   5.490  1.5330  0.1716  0.9441
 6858TIP3   OH242064   5.586   3.182   3.782 -0.1295 -0.1872 -0.0607
 6858TIP3    H142065   5.578   3.248   3.713  1.8668  0.9701  0.7487
 6858TIP3    H242066   5.560   3.228   3.862  0.2613 -0.6913  0.3613
 6859TIP3   OH242067   2.539   4.690   4.648 -0.1229  0.5694 -0.4005
 6859TIP3    H142068   2.472   4.683   4.717 -0.1483  0.5975 -0.4226
 6859TIP3    H242069   2.490   4.680   4.566  0.1225 -1.0237 -0.3733
 6860TIP3   OH242070   1.765   6.807   5.330  0.4577 -0.2544  0.0647
 6860TIP3    H142071   1.758   6.716   5.357 -0.0081 -0.6141 -1.2042
 6860TIP3    H242072   1.857   6.820   5.310  0.4255 -0.6242 -0.3300
 6861TIP3   OH242073   4.017   4.759   1.375 -0.0883 -0.4220  0.0764
 6861TIP3    H142074   4.057   4.717   1.451  4.1273  0.7634 -1.2008
 6861TIP3    H242075   4.016   4.691   1.308  0.3171 -0.3219 -0.0346
 6862TIP3   OH242076   1.239   4.569   2.921 -0.8211 -0.6029  0.9131
 6862TIP3    H142077   1.222   4.534   2.833  0.4424  1.7510 -0.3764
 6862TIP3    H242078   1.153   4.600   2.951 -0.9037  0.8702 -0.6454
 6863TIP3   OH242079   5.611   6.369   3.473  0.1713 -0.2398 -0.2434
 6863TIP3    H142080   5.574   6.329   3.394  2.0862  1.4512 -2.1300
 6863TIP3    H242081   5.683   6.310   3.498 -1.0593 -1.3177  0.9397
 6864TIP3   OH242082   2.962   1.617  11.583 -0.3767  0.0225  0.6123
 6864TIP3    H142083   3.049   1.578  11.584  0.1414  1.1373  0.8625
 6864TIP3    H242084   2.968   1.689  11.646 -1.2410  0.6126  0.0371
 6865TIP3   OH242085   5.472   3.974   5.462  0.3978  0.5378  0.0106
 6865TIP3    H142086   5.477   4.050   5.404  1.7034  1.0966  0.8083
 6865TIP3    H242087   5.532   3.994   5.533  0.8599 -1.2855  0.1980
 6866TIP3   OH242088   2.398   1.675   1.104  0.4130  0.0674  0.3772
 6866TIP3    H142089   2.465   1.730   1.064  0.3365  1.0288  1.4913
 6866TIP3    H242090   2.384   1.604   1.042  0.6355  1.2225 -1.0453
 6867TIP3   OH242091   4.905   1.146   5.798 -0.3135  0.1826 -0.1877
 6867TIP3    H142092   4.832   1.181   5.746  0.7769  2.5103 -0.2733
 6867TIP3    H242093   4.866   1.076   5.849 -2.3793  0.6284 -1.0345
 6868TIP3   OH242094   6.214   6.343   0.615  0.3552 -0.2090 -0.0830
 6868TIP3    H142095   6.294   6.293   0.597  0.8362  0.1450  0.9570
 6868TIP3    H242096   6.214   6.413   0.551  1.2012  0.1301  0.2696
 6869TIP3   OH242097   6.262   6.416  13.392  0.1000  0.0641 -0.2282
 6869TIP3    H142098   6.339   6.443  13.342 -0.6700  1.1059 -0.8897
 6869TIP3    H242099   6.256   6.321  13.377 -0.0526  0.3272 -2.0716
 6870TIP3   OH242100   6.527   2.415   0.478 -0.1969  0.2378 -0.6522
 6870TIP3    H142101   6.589   2.484   0.496  1.0717 -0.2914 -2.7020
 6870TIP3    H242102   6.552   2.344   0.537  0.6853  0.3134 -0.9203
 6871TIP3   OH242103   3.005   5.232  12.990 -0.7220 -0.1413  0.5459
 6871TIP3    H142104   3.087   5.260  13.031  0.1522 -0.6350 -0.8083
 6871TIP3    H242105   2.939   5.241  13.059  0.4991  0.0845  1.7138
 6872TIP3   OH242106   3.502   1.039  11.929 -0.2736  0.0378 -0.4913
 6872TIP3    H142107   3.586   1.016  11.969 -0.2362 -0.8048 -1.0433
 6872TIP3    H242108   3.446   1.060  12.004 -0.0347 -0.9479 -0.0189
 6873TIP3   OH242109   4.952   2.669   1.257 -0.2196  0.6245 -0.1480
 6873TIP3    H142110   4.858   2.688   1.264 -0.4840  0.1099 -1.9203
 6873TIP3    H242111   4.995   2.752   1.277 -0.9804  0.6363  1.6646
 6874TIP3   OH242112   0.356   5.024  13.929 -0.0923  0.1384  0.2034
 6874TIP3    H142113   0.303   5.031  13.849 -1.3322 -1.1684  0.8680
 6874TIP3    H242114   0.325   5.097  13.984  1.6641  1.8407 -0.9495
 6875TIP3   OH242115   3.532   1.152  12.403 -0.5134 -0.3817 -0.1861
 6875TIP3    H142116   3.594   1.085  12.432 -0.8673 -0.7031 -0.1719
 6875TIP3    H242117   3.467   1.156  12.474 -1.1956 -0.9294 -0.7679
 6876TIP3   OH242118   0.914   6.807   3.577  0.4051 -0.6376  1.0053
 6876TIP3    H142119   0.838   6.825   3.631  0.6433  0.1151  1.1050
 6876TIP3    H242120   0.909   6.871   3.506  0.4349 -1.2065  0.4826
 6877TIP3   OH242121   6.244   5.319  10.131 -0.2145  0.2189  0.3473
 6877TIP3    H142122   6.226   5.272  10.049 -0.7255  0.1144  0.5152
 6877TIP3    H242123   6.302   5.261  10.180  0.2223  0.3521 -0.0060
 6878TIP3   OH242124   1.977   2.239   5.545 -0.0241  0.5361  0.0380
 6878TIP3    H142125   1.969   2.288   5.463 -2.1256 -0.1960 -0.2682
 6878TIP3    H242126   1.954   2.302   5.613  0.7596  0.8911 -0.0230
 6879TIP3   OH242127   2.184   3.497   2.547 -0.2375 -0.9244  0.0479
 6879TIP3    H142128   2.179   3.581   2.592 -0.4813 -0.7372 -0.3182
 6879TIP3    H242129   2.108   3.497   2.488  1.1599 -0.2760 -1.8601
 6880TIP3   OH242130   2.240   1.116  15.584  0.1836 -0.3569  0.0568
 6880TIP3    H142131   2.247   1.186  15.519 -0.7419 -2.1770 -2.1271
 6880TIP3    H242132   2.152   1.081  15.573  0.2061 -1.1290  1.9234
 6881TIP3   OH242133   3.719   1.810  16.530 -0.0698 -0.0472 -0.3941
 6881TIP3    H142134   3.624   1.821  16.532 -0.1175 -0.4357 -0.4723
 6881TIP3    H242135   3.746   1.821  16.621 -0.2773 -0.6868 -0.2517
 6882TIP3   OH242136   1.028   1.087   2.071 -0.2659 -0.5844 -0.2651
 6882TIP3    H142137   1.023   1.111   1.978 -1.2211  2.0220  0.3826
 6882TIP3    H242138   0.937   1.079   2.098 -0.0134 -3.1301  0.1232
 6883TIP3   OH242139   1.243   4.548  15.890 -0.1535  1.3957 -0.8457
 6883TIP3    H142140   1.285   4.623  15.848 -0.5205  1.8667 -0.3762
 6883TIP3    H242141   1.240   4.571  15.982 -1.5805  1.4364 -0.8840
 6884TIP3   OH242142   3.225   2.508   1.524 -0.3029 -0.2071 -0.0212
 6884TIP3    H142143   3.279   2.577   1.563  0.9031 -0.6002 -0.9255
 6884TIP3    H242144   3.214   2.444   1.594 -0.7441  0.5167  0.5829
 6885TIP3   OH242145   2.009   3.876   1.294 -0.0349 -0.0713  0.0631
 6885TIP3    H142146   1.988   3.924   1.213 -1.1018 -1.2377 -0.3825
 6885TIP3    H242147   1.926   3.839   1.322  1.0069 -3.2381 -0.6584
 6886TIP3   OH242148   2.332   0.150  16.584  0.3960 -0.1091  0.5080
 6886TIP3    H142149   2.243   0.151  16.620 -0.1606  1.0554 -0.8163
 6886TIP3    H242150   2.323   0.186  16.496  2.3521  1.1044  0.7430
 6887TIP3   OH242151   0.580   0.391  14.372  0.4470  0.6985  0.0754
 6887TIP3    H142152   0.524   0.379  14.449  0.9667  1.0947  0.5231
 6887TIP3    H242153   0.532   0.349  14.300  0.0756  0.0857  0.6662
 6888TIP3   OH242154   5.908   2.706  17.244  0.4432  0.2925 -0.7210
 6888TIP3    H142155   5.919   2.796  17.215  1.8961  0.9173  1.4985
 6888TIP3    H242156   5.997   2.669  17.242  0.3425 -0.1422  1.1528
 6889TIP3   OH242157   2.952   6.328  10.384 -0.1728  0.2685 -0.5553
 6889TIP3    H142158   2.932   6.368  10.299 -0.9400  1.5660  0.2115
 6889TIP3    H242159   2.988   6.242  10.362 -0.0020  0.7316 -2.2039
 6890TIP3   OH242160   1.335   4.397  10.593  0.4772  0.5452  0.6853
 6890TIP3    H142161   1.319   4.326  10.532  3.5175  0.5797 -0.3282
 6890TIP3    H242162   1.306   4.476  10.546  0.8205  0.3607  0.1557
 6891TIP3   OH242163   0.768   1.103   6.084  0.5022 -0.0368  0.0183
 6891TIP3    H142164   0.698   1.045   6.115  0.2780  0.0386 -0.3324
 6891TIP3    H242165   0.724   1.186   6.066  0.9828  0.5319  1.3617
 6892TIP3   OH242166   3.243   6.423  11.566 -0.0701 -0.0642  0.8236
 6892TIP3    H142167   3.171   6.377  11.522  0.0951 -0.5745  1.0805
 6892TIP3    H242168   3.321   6.394  11.520  0.0487 -0.1549  1.0821
 6893TIP3   OH242169   0.973   4.722  10.701  0.0902  0.2839  0.1003
 6893TIP3    H142170   1.026   4.767  10.767  2.5566 -0.8254 -0.9855
 6893TIP3    H242171   1.018   4.740  10.619 -0.9809 -1.0908 -0.8268
 6894TIP3   OH242172   4.824   0.191  15.890  0.4714 -0.5155 -0.0688
 6894TIP3    H142173   4.908   0.155  15.862  0.6520  0.1188 -0.3590
 6894TIP3    H242174   4.770   0.114  15.910  1.0695 -0.9268 -0.0224
 6895TIP3   OH242175   4.441   2.070  14.207  0.4108  0.3948  0.4993
 6895TIP3    H142176   4.537   2.062  14.205  0.4155  0.3408 -1.4356
 6895TIP3    H242177   4.410   1.994  14.158 -0.3941  2.3120 -2.1748
 6896TIP3   OH242178   4.117   0.701  11.628  0.2741  0.0242  0.1094
 6896TIP3    H142179   4.051   0.636  11.603  0.0822 -0.0311  0.7269
 6896TIP3    H242180   4.132   0.752  11.549 -1.9690  1.2918  0.4245
 6897TIP3   OH242181   4.971   3.739  13.484 -0.3731 -0.1844 -0.1294
 6897TIP3    H142182   4.914   3.693  13.546 -1.0508 -0.9090 -1.2521
 6897TIP3    H242183   5.056   3.744  13.529 -0.5234 -1.7296  0.4004
 6898TIP3   OH242184   4.262   2.732   1.816 -0.3399 -0.5293 -0.2300
 6898TIP3    H142185   4.260   2.650   1.766 -0.5683 -0.9218  0.4036
 6898TIP3    H242186   4.339   2.724   1.873 -1.1040 -0.9088  0.7965
 6899TIP3   OH242187   6.481   3.841   0.249  0.1128  0.1078 -0.2878
 6899TIP3    H142188   6.548   3.908   0.237  0.7346 -0.3369  0.5652
 6899TIP3    H242189   6.529   3.758   0.240 -0.3453 -0.2167  0.1990
 6900TIP3   OH242190   5.022   2.301  13.677 -0.4287  0.0355 -0.7357
 6900TIP3    H142191   5.060   2.389  13.682 -1.3899  0.4261  3.3655
 6900TIP3    H242192   5.098   2.243  13.669  0.3209  1.1475 -2.0266
 6901TIP3   OH242193   4.855   3.607   0.867 -0.2855  0.3576 -0.2675
 6901TIP3    H142194   4.790   3.648   0.810 -0.2617 -0.4979 -0.9386
 6901TIP3    H242195   4.804   3.553   0.927 -0.2595  0.5797 -0.0442
 6902TIP3   OH242196   5.556   2.746  10.612  0.2860 -0.0483  0.3237
 6902TIP3    H142197   5.480   2.766  10.665 -0.0755  1.4892 -0.6975
 6902TIP3    H242198   5.545   2.655  10.587 -0.6053 -0.1793  1.1461
 6903TIP3   OH242199   1.864   2.762   5.855  0.4483 -0.7537  0.1426
 6903TIP3    H142200   1.795   2.772   5.789 -0.2589  1.3613  1.1193
 6903TIP3    H242201   1.944   2.747   5.804 -0.2450 -0.2352 -1.1561
 6904TIP3   OH242202   1.584   1.602  11.033 -0.1117  0.2099  0.0968
 6904TIP3    H142203   1.619   1.592  10.944 -2.0795  1.3760 -0.8722
 6904TIP3    H242204   1.610   1.522  11.078  2.3136  0.2816 -1.0014
 6905TIP3   OH242205   2.155   4.990   3.151 -0.0720 -0.2064 -0.3002
 6905TIP3    H142206   2.250   4.980   3.150 -0.0655 -0.2462  0.3868
 6905TIP3    H242207   2.136   5.049   3.078  0.7646  2.1956  1.3031
 6906TIP3   OH242208   5.228   0.362   0.442  0.4471  0.9494  0.5213
 6906TIP3    H142209   5.216   0.326   0.354 -0.4427  0.1834  0.9516
 6906TIP3    H242210   5.140   0.375   0.476  0.7475 -0.2876  1.9084
 6907TIP3   OH242211   1.034   0.715   6.580  0.5102 -0.2561  0.0280
 6907TIP3    H142212   1.006   0.806   6.586 -1.6452 -0.8713  0.2163
 6907TIP3    H242213   1.011   0.677   6.665  1.4113 -0.9733 -0.0303
 6908TIP3   OH242214   0.352   3.621  16.606  0.1809 -0.3124 -0.1449
 6908TIP3    H142215   0.336   3.565  16.530  1.9025 -0.1298 -0.6834
 6908TIP3    H242216   0.341   3.563  16.681  1.6388 -1.3450 -0.6802
 6909TIP3   OH242217   5.438   4.194   4.340 -0.5551  0.7252  0.3210
 6909TIP3    H142218   5.438   4.110   4.294 -0.2884  1.6349 -1.4320
 6909TIP3    H242219   5.485   4.177   4.421  0.6205 -0.5344 -0.5782
 6910TIP3   OH242220   4.824   4.010  12.373 -0.2338 -0.3046  0.4312
 6910TIP3    H142221   4.782   3.924  12.372 -2.4078  0.6825 -0.0503
 6910TIP3    H242222   4.917   3.992  12.386 -0.5841 -2.7236 -0.0168
 6911TIP3   OH242223   6.058   2.685  10.721 -0.4713 -0.4568  0.6754
 6911TIP3    H142224   6.084   2.616  10.783  0.9365  1.2758  2.1148
 6911TIP3    H242225   6.140   2.714  10.682 -1.3143 -1.3785 -1.9845
 6912TIP3   OH242226   0.549   5.410  16.933  0.8354  0.0439  0.6330
 6912TIP3    H142227   0.597   5.392  17.013  1.5439  2.4412  0.8319
 6912TIP3    H242228   0.607   5.380  16.863  0.7865 -0.8498  0.9613
 6913TIP3   OH242229   6.500   6.286   6.551 -0.1345  0.0528 -0.0532
 6913TIP3    H142230   6.476   6.319   6.638  3.1667 -0.9127  1.3733
 6913TIP3    H242231   6.503   6.191   6.562  1.6430 -0.0097 -0.8006
 6914TIP3   OH242232   4.732   6.177  15.287  0.0503  0.2426  0.2169
 6914TIP3    H142233   4.712   6.158  15.196 -1.6385  1.3827  0.3053
 6914TIP3    H242234   4.785   6.256  15.285 -0.0230  0.2924  0.2156
 6915TIP3   OH242235   1.244   0.473   3.579  0.2173 -0.0130 -0.4937
 6915TIP3    H142236   1.215   0.382   3.586  0.3539 -0.4089 -3.4838
 6915TIP3    H242237   1.340   0.467   3.583  0.1949  0.1649  0.4541
 6916TIP3   OH242238   5.362   5.846  11.662 -0.2350 -0.2766 -0.6935
 6916TIP3    H142239   5.356   5.918  11.599 -0.2833 -1.2564 -1.8322
 6916TIP3    H242240   5.290   5.787  11.638 -0.0244 -0.8467  0.0467
 6917TIP3   OH242241   5.007   3.760   4.471  0.1694  0.1593  0.3928
 6917TIP3    H142242   4.964   3.718   4.545 -0.6188  1.1318  0.5024
 6917TIP3    H242243   4.959   3.842   4.458  0.5008  0.1676 -0.9828
 6918TIP3   OH242244   5.946   3.677   0.016 -0.1576  0.8949 -0.2515
 6918TIP3    H142245   5.987   3.717   0.093  1.9227  0.2209 -0.9436
 6918TIP3    H242246   5.917   3.591   0.046 -0.5351  1.1459  0.1051
 6919TIP3   OH242247   2.144   0.402  14.335  0.3179 -0.2152  0.1671
 6919TIP3    H142248   2.223   0.425  14.286  1.5179  0.9049  2.4931
 6919TIP3    H242249   2.072   0.426  14.276  1.6849  1.1665 -1.0235
 6920TIP3   OH242250   4.801   3.764  15.381  0.2435  0.0323 -0.1693
 6920TIP3    H142251   4.771   3.684  15.338  1.2141  0.2922 -1.4101
 6920TIP3    H242252   4.743   3.775  15.455 -0.6468 -1.1904 -0.6525
 6921TIP3   OH242253   1.041   5.956   4.829  0.0197 -0.1193 -0.0705
 6921TIP3    H142254   0.982   5.902   4.882  3.6326 -2.2603  2.1867
 6921TIP3    H242255   1.056   6.034   4.882 -0.5158  0.2866 -0.5070
 6922TIP3   OH242256   3.340   4.219  14.744 -0.3898  0.1302  0.1180
 6922TIP3    H142257   3.345   4.148  14.808 -0.1314  1.0785  1.1852
 6922TIP3    H242258   3.324   4.175  14.661 -1.3396 -1.1016  0.9144
 6923TIP3   OH242259   5.748   3.138  12.263  0.1621 -0.0439  0.1462
 6923TIP3    H142260   5.816   3.184  12.312 -0.6953 -0.1833  1.5317
 6923TIP3    H242261   5.698   3.091  12.330 -0.0830 -1.5621 -1.0420
 6924TIP3   OH242262   2.310   2.660   1.670  0.2282  0.5311 -0.4818
 6924TIP3    H142263   2.311   2.640   1.763  2.4122 -0.2240 -0.6110
 6924TIP3    H242264   2.231   2.618   1.637  0.4446 -0.8537  0.6963
 6925TIP3   OH242265   5.728   1.016   4.705 -0.3116 -0.3081  0.2622
 6925TIP3    H142266   5.791   0.944   4.711  1.0587  0.8109 -0.1579
 6925TIP3    H242267   5.734   1.060   4.790 -1.8964 -1.2594  0.8955
 6926TIP3   OH242268   1.152   0.698   1.082 -0.6030 -0.3180 -0.1523
 6926TIP3    H142269   1.150   0.613   1.126  0.7907 -0.5778 -0.5368
 6926TIP3    H242270   1.073   0.698   1.027 -1.0240 -1.0278  0.4244
 6927TIP3   OH242271   1.233   1.201   3.524 -0.0556 -0.6212  0.2459
 6927TIP3    H142272   1.156   1.165   3.480  0.7615 -1.1874 -0.7594
 6927TIP3    H242273   1.248   1.286   3.481  1.3386 -1.6137 -1.3492
 6928TIP3   OH242274   2.715   4.949  13.527  0.1808 -0.1042 -0.2992
 6928TIP3    H142275   2.706   5.044  13.536 -1.7775 -0.3214  0.3434
 6928TIP3    H242276   2.769   4.938  13.449  1.0553  1.5384  0.0186
 6929TIP3   OH242277   5.357   6.781   5.821  0.1751 -0.9061 -0.4598
 6929TIP3    H142278   5.340   6.794   5.914  2.0838  0.9853 -0.2897
 6929TIP3    H242279   5.446   6.746   5.817  0.9098  0.9142 -1.5703
 6930TIP3   OH242280   1.688   2.074   3.245  0.0109  0.3765 -0.4761
 6930TIP3    H142281   1.758   2.116   3.196 -0.2244  0.1471 -1.0191
 6930TIP3    H242282   1.731   2.001   3.291  0.5106  1.4776  0.8613
 6931TIP3   OH242283   0.019   1.578   2.429  0.0384  0.1438  0.0607
 6931TIP3    H142284  -0.012   1.534   2.509 -0.9425 -0.3404 -0.5594
 6931TIP3    H242285   0.098   1.625   2.456  1.7613 -2.7869  0.5862
 6932TIP3   OH242286   6.120   1.652  13.051  0.0840  0.3858  0.2053
 6932TIP3    H142287   6.114   1.709  12.974  0.1720  3.3896  2.2568
 6932TIP3    H242288   6.039   1.602  13.049  0.3379 -0.0578 -2.1083
 6933TIP3   OH242289   6.224   2.097  15.029 -0.1374 -0.5353  0.0322
 6933TIP3    H142290   6.183   2.011  15.027  1.2886 -1.2158 -1.5435
 6933TIP3    H242291   6.180   2.147  14.960 -1.2678  0.1890  1.2307
 6934TIP3   OH242292   0.397   1.800   5.860  0.4348  0.4593 -0.0030
 6934TIP3    H142293   0.441   1.743   5.797  1.0867  0.3373  0.5451
 6934TIP3    H242294   0.459   1.872   5.874  0.5854  0.1660  0.9513
 6935TIP3   OH242295   3.346   0.117  17.238  0.1056 -0.4272  0.4801
 6935TIP3    H142296   3.264   0.122  17.190 -0.5578 -0.7956  1.5525
 6935TIP3    H242297   3.339   0.039  17.292  0.8158 -0.0149  1.2041
 6936TIP3   OH242298   2.122   0.328   1.734 -0.6161  0.0958  0.1396
 6936TIP3    H142299   2.123   0.383   1.656 -1.5097 -0.5784 -0.3635
 6936TIP3    H242300   2.168   0.249   1.708 -1.1634 -0.2468  0.2009
 6937TIP3   OH242301   0.399   1.753   1.641 -0.3593  0.1575 -0.1156
 6937TIP3    H142302   0.403   1.731   1.734  0.3103 -0.6023 -0.3077
 6937TIP3    H242303   0.447   1.681   1.598 -2.1177 -0.4181 -1.2019
 6938TIP3   OH242304   5.026   6.729  11.445 -0.4256  0.1678 -0.6114
 6938TIP3    H142305   4.999   6.744  11.535  1.6652 -1.2429  0.3356
 6938TIP3    H242306   5.004   6.637  11.428 -1.2405  0.5544 -1.7134
 6939TIP3   OH242307   5.613   0.285   0.880  0.4852  0.3785 -0.5973
 6939TIP3    H142308   5.642   0.209   0.830  0.6497 -0.1629  0.3064
 6939TIP3    H242309   5.539   0.319   0.830 -1.0253 -1.6902  0.0763
 6940TIP3   OH242310   3.190   1.315   0.543 -0.0988 -0.0054  0.0220
 6940TIP3    H142311   3.199   1.348   0.453 -0.2525 -0.5507 -0.1932
 6940TIP3    H242312   3.117   1.253   0.539  0.2889 -0.4878  0.3988
 6941TIP3   OH242313   2.212   4.408  11.158  0.3997 -0.2982 -0.1721
 6941TIP3    H142314   2.272   4.471  11.197  1.4802 -1.1203 -0.4499
 6941TIP3    H242315   2.131   4.457  11.142  0.7666  0.6552  0.8362
 6942TIP3   OH242316   5.481   1.635   0.326  0.2697 -0.2768  0.5022
 6942TIP3    H142317   5.510   1.544   0.320  1.8690  0.2360 -0.0454
 6942TIP3    H242318   5.529   1.671   0.400  0.3576  0.3714  0.1369
 6943TIP3   OH242319   0.306   4.814   4.152  0.0086 -0.2471 -0.4041
 6943TIP3    H142320   0.342   4.877   4.091  1.3639  0.5230  1.0983
 6943TIP3    H242321   0.297   4.733   4.102 -0.4769  0.7767 -2.0070
 6944TIP3   OH242322   5.261   1.073  16.727 -0.2042  0.5132  0.5070
 6944TIP3    H142323   5.352   1.098  16.743  0.2442 -1.2107  0.8365
 6944TIP3    H242324   5.264   0.978  16.718 -1.7264  0.5764 -1.2048
 6945TIP3   OH242325   3.411   4.879   3.820  0.3257 -0.1868 -0.0422
 6945TIP3    H142326   3.432   4.901   3.911  1.0513  0.1255 -0.2740
 6945TIP3    H242327   3.496   4.873   3.777 -0.0302  0.3439 -0.8509
 6946TIP3   OH242328   1.165   0.896  12.728  0.3781 -0.4741 -0.1619
 6946TIP3    H142329   1.119   0.972  12.763  0.9384 -0.8473  1.5081
 6946TIP3    H242330   1.115   0.871  12.651 -1.7914 -0.4118  1.1310
 6947TIP3   OH242331   3.996   5.727  13.870  0.1383  0.1471 -0.3291
 6947TIP3    H142332   3.927   5.691  13.926  0.5946  0.5673  0.5307
 6947TIP3    H242333   4.074   5.676  13.891  0.4524  0.6945 -0.1372
 6948TIP3   OH242334   6.256   0.116  11.833 -0.1447 -0.4404 -0.1328
 6948TIP3    H142335   6.335   0.078  11.795  0.1726  0.6022 -0.5445
 6948TIP3    H242336   6.184   0.076  11.784 -0.0655 -3.0593  1.6686
 6949TIP3   OH242337   6.446   2.490  16.411 -0.2548  0.3387 -0.6640
 6949TIP3    H142338   6.490   2.444  16.483  0.6004  0.6937 -0.9449
 6949TIP3    H242339   6.356   2.459  16.415  0.3528 -1.6381 -1.0576
 6950TIP3   OH242340   0.669   5.350  13.185  0.1440 -0.3559  0.4496
 6950TIP3    H142341   0.720   5.346  13.266  0.3101  0.7994  0.4237
 6950TIP3    H242342   0.589   5.301  13.204 -0.9791  1.9544  2.2119
 6951TIP3   OH242343   4.032   3.769   5.816  0.0321  0.7146  0.2788
 6951TIP3    H142344   4.049   3.862   5.799 -0.5261  0.9682  1.0355
 6951TIP3    H242345   4.025   3.730   5.729  0.9003  1.2588 -0.0446
 6952TIP3   OH242346   2.873   2.535   4.700 -0.5441 -0.0563 -0.1601
 6952TIP3    H142347   2.874   2.446   4.734  0.1896 -1.1041 -2.7151
 6952TIP3    H242348   2.834   2.528   4.613  0.2775  1.9778 -0.7665
 6953TIP3   OH242349   1.780   3.817  13.760  0.2187  0.1540 -0.1653
 6953TIP3    H142350   1.855   3.864  13.722  0.2851  0.4505  0.3192
 6953TIP3    H242351   1.762   3.864  13.841 -0.8704  0.4390 -0.5587
 6954TIP3   OH242352   2.239   1.502  17.075 -0.1139 -0.3168  0.2844
 6954TIP3    H142353   2.187   1.552  17.138  1.7739  0.4888  1.2896
 6954TIP3    H242354   2.224   1.410  17.098  1.4993 -0.0255  2.8099
 6955TIP3   OH242355   5.992   0.690  12.769  0.3259  0.3572 -0.0735
 6955TIP3    H142356   6.000   0.680  12.863  0.1005 -0.0180 -0.0915
 6955TIP3    H242357   6.042   0.769  12.748  1.4808 -0.2772  0.1891
 6956TIP3   OH242358   6.301   4.919   2.582 -0.2250  0.3389 -0.8736
 6956TIP3    H142359   6.257   4.859   2.522 -0.6480 -0.3901  0.1272
 6956TIP3    H242360   6.231   4.975   2.615 -0.0940  0.3832 -0.6664
 6957TIP3   OH242361   3.004   6.097   1.319  0.9037  0.4126  0.1574
 6957TIP3    H142362   2.949   6.173   1.297  0.6417  0.9173  2.3247
 6957TIP3    H242363   3.056   6.082   1.240 -1.6866  0.4449 -1.6921
 6958TIP3   OH242364   0.624   5.887  12.016 -0.0334  0.3459 -0.3518
 6958TIP3    H142365   0.655   5.976  12.032  2.1348 -0.6456  1.5282
 6958TIP3    H242366   0.686   5.851  11.952  0.8130 -0.6001  0.9289
 6959TIP3   OH242367   6.315   1.955  15.925  0.0637  0.4758  0.1410
 6959TIP3    H142368   6.348   1.866  15.940 -0.1227  0.4021  0.1133
 6959TIP3    H242369   6.393   2.010  15.932  0.4631  0.1524 -1.4480
 6960TIP3   OH242370   1.474   6.203  11.245 -0.5732 -0.0770 -0.1525
 6960TIP3    H142371   1.487   6.158  11.162 -0.9642 -0.3212 -0.0841
 6960TIP3    H242372   1.491   6.295  11.225  4.0986 -0.5589  0.5104
 6961TIP3   OH242373   2.285   5.374  12.343 -0.1084 -0.0665  0.2178
 6961TIP3    H142374   2.236   5.320  12.405 -0.2450  0.0677  0.2271
 6961TIP3    H242375   2.347   5.422  12.398 -1.8044  1.8371  0.5684
 6962TIP3   OH242376   0.966   6.695   1.703 -0.5039  0.4139 -0.0243
 6962TIP3    H142377   0.995   6.605   1.711  0.7445  0.5451 -2.1548
 6962TIP3    H242378   0.872   6.688   1.688 -0.8372 -0.3374  2.0857
 6963TIP3   OH242379   5.335   3.099  15.128 -0.4050 -0.3716 -0.0756
 6963TIP3    H142380   5.362   3.047  15.052 -0.8482 -0.8519  0.0842
 6963TIP3    H242381   5.383   3.181  15.119 -0.0332 -0.6333 -0.5806
 6964TIP3   OH242382   5.827   2.318  11.380 -0.2307 -0.2952  0.3242
 6964TIP3    H142383   5.917   2.350  11.385  0.1743 -1.3803  0.1851
 6964TIP3    H242384   5.835   2.223  11.379 -1.2239 -0.4353 -2.3508
 6965TIP3   OH242385   2.593   5.349   4.592  0.4606  0.3653  0.1305
 6965TIP3    H142386   2.554   5.383   4.673 -0.6527 -0.5330 -0.0100
 6965TIP3    H242387   2.654   5.281   4.621 -1.0410 -1.0134  0.1761
 6966TIP3   OH242388   4.093   2.042  11.068 -0.6125 -0.3812 -0.0870
 6966TIP3    H142389   4.040   2.118  11.042 -1.3727 -1.1491 -0.8524
 6966TIP3    H242390   4.157   2.033  10.997  1.2525  1.1208  1.2852
 6967TIP3   OH242391   1.049   2.290   1.749 -0.4091 -0.5986  0.4003
 6967TIP3    H142392   1.132   2.332   1.725 -0.7361  0.1426  0.5492
 6967TIP3    H242393   1.016   2.253   1.667 -0.5372  0.1834  0.0922
 6968TIP3   OH242394   2.263   1.079  11.432 -0.1064  0.8888  0.4976
 6968TIP3    H142395   2.277   0.985  11.437 -1.6980  0.5343 -0.9488
 6968TIP3    H242396   2.171   1.092  11.453 -0.0107  2.0874  0.2794
 6969TIP3   OH242397   2.958   6.165   2.269 -0.1130 -0.0999 -0.0433
 6969TIP3    H142398   2.962   6.126   2.182 -1.3875  1.3857 -0.8305
 6969TIP3    H242399   3.042   6.210   2.279 -0.6135  1.2221 -1.3102
 6970TIP3   OH242400   0.702   5.218   0.045  0.3402 -0.5284  0.0674
 6970TIP3    H142401   0.721   5.264   0.126  0.7041 -1.7727  0.7235
 6970TIP3    H242402   0.642   5.148   0.071  1.8083 -2.0108 -0.3839
 6971TIP3   OH242403   4.108   6.599  15.620  0.4061 -0.0179 -0.1250
 6971TIP3    H142404   4.174   6.546  15.664  0.3898 -0.4724 -0.6410
 6971TIP3    H242405   4.150   6.629  15.540  0.2364  0.3124 -0.0927
 6972TIP3   OH242406   0.894   3.720   2.210 -0.1377 -0.8546 -0.0013
 6972TIP3    H142407   0.837   3.679   2.275 -1.9415  0.1219 -0.8977
 6972TIP3    H242408   0.884   3.814   2.225  0.9803 -0.6487 -0.4255
 6973TIP3   OH242409   5.134   5.633  10.966  0.2344  0.0254  0.1557
 6973TIP3    H142410   5.127   5.660  10.874  0.8744 -0.1799  0.0449
 6973TIP3    H242411   5.044   5.639  10.999 -0.6189 -2.7631 -1.2917
 6974TIP3   OH242412   5.734   1.570   4.924  0.2914  0.0264 -0.9010
 6974TIP3    H142413   5.739   1.587   4.830  2.5834  1.6448 -0.5631
 6974TIP3    H242414   5.820   1.595   4.958 -0.6327 -0.0282  1.7127
 6975TIP3   OH242415   0.609   1.372  17.226  0.5686  0.4043  0.1213
 6975TIP3    H142416   0.546   1.352  17.157 -1.7377  0.5248  2.0642
 6975TIP3    H242417   0.661   1.444  17.191 -0.1622  0.1302 -1.6613
 6976TIP3   OH242418   5.278   5.073  12.078 -0.3001 -0.2123 -0.4262
 6976TIP3    H142419   5.303   5.099  11.990 -2.5580  1.7140 -0.5895
 6976TIP3    H242420   5.214   5.004  12.065 -0.9809  0.3921 -0.3420
 6977TIP3   OH242421   3.135   0.586  11.921  0.0466  0.4008 -0.0603
 6977TIP3    H142422   3.075   0.616  11.852  1.1163  0.6885 -0.8810
 6977TIP3    H242423   3.132   0.656  11.986  0.0131  0.7502 -0.4271
 6978TIP3   OH242424   3.560   1.796  17.247 -0.3815  0.0747  0.8220
 6978TIP3    H142425   3.515   1.728  17.297 -1.1341  0.0552  0.1408
 6978TIP3    H242426   3.653   1.784  17.268 -0.6230 -0.3246  1.7144
 6979TIP3   OH242427   0.222   3.791   1.414 -0.7983 -0.2610  0.5018
 6979TIP3    H142428   0.214   3.750   1.328  0.4331 -0.2214  0.3544
 6979TIP3    H242429   0.191   3.881   1.400 -3.0530 -0.9328  0.7204
 6980TIP3   OH242430   4.009   3.359  16.593  0.6156 -0.4414 -0.2130
 6980TIP3    H142431   3.962   3.426  16.644 -0.9919  0.5048 -2.7466
 6980TIP3    H242432   3.965   3.277  16.615 -1.5192  0.2569 -1.5524
 6981TIP3   OH242433   1.569   4.397  11.347  0.1708  0.0499  0.6716
 6981TIP3    H142434   1.531   4.313  11.374 -2.5348  0.9979  0.1782
 6981TIP3    H242435   1.663   4.387  11.360 -0.2929 -2.1717  3.0352
 6982TIP3   OH242436   2.021   1.405  15.137 -0.4098  0.0949 -0.2370
 6982TIP3    H142437   2.107   1.363  15.134  0.4288  1.6527  0.7790
 6982TIP3    H242438   2.006   1.435  15.047 -0.2027 -0.7415 -0.5631
 6983TIP3   OH242439   5.211   0.884   3.154 -0.1546 -0.4061 -0.2039
 6983TIP3    H142440   5.145   0.826   3.192 -1.2119 -0.1596 -1.5972
 6983TIP3    H242441   5.163   0.964   3.132  1.0589  0.6005  0.6636
 6984TIP3   OH242442   4.400   6.708  13.519  0.1087  0.4741  0.1953
 6984TIP3    H142443   4.319   6.697  13.570  0.1867  0.3745  0.2978
 6984TIP3    H242444   4.383   6.785  13.464 -0.5505 -0.3139 -0.7309
 6985TIP3   OH242445   3.086   5.309  14.942  0.4170 -0.2689 -0.1649
 6985TIP3    H142446   3.137   5.325  14.862  0.9447  1.2031  0.4315
 6985TIP3    H242447   3.066   5.397  14.976  1.2145 -0.8279  1.9361
 6986TIP3   OH242448   1.497   3.830   2.541 -0.6827 -0.4626 -0.6705
 6986TIP3    H142449   1.556   3.758   2.561  1.7282  1.2529 -1.0691
 6986TIP3    H242450   1.415   3.808   2.586  0.8429 -2.1165  1.5268
 6987TIP3   OH242451   3.386   2.907   5.066 -0.5034  0.2032  0.4028
 6987TIP3    H142452   3.327   2.900   4.991 -0.1440  1.5627 -0.0264
 6987TIP3    H242453   3.352   2.982   5.115  1.9651  2.3033 -0.8899
 6988TIP3   OH242454   4.152   3.394  16.919 -0.7701  0.0273  0.2739
 6988TIP3    H142455   4.179   3.450  16.847 -0.7101 -0.4149 -0.0503
 6988TIP3    H242456   4.092   3.331  16.879 -0.7387 -0.2183  0.6095
 6989TIP3   OH242457   0.140   4.030  10.482  0.5113 -0.6543  0.4337
 6989TIP3    H142458   0.168   3.982  10.560  1.3308 -0.1688  0.4507
 6989TIP3    H242459   0.115   4.116  10.515  1.9600 -0.0476  0.0531
 6990TIP3   OH242460   0.091   0.322   4.606  0.3509 -0.0798 -0.7473
 6990TIP3    H142461   0.093   0.417   4.590  0.0452 -0.1008 -0.9231
 6990TIP3    H242462   0.116   0.312   4.698 -0.5012  0.2342 -0.4757
 6991TIP3   OH242463   6.592   5.288   1.956  0.3404  0.0202  0.5158
 6991TIP3    H142464   6.502   5.274   1.927  0.6232 -0.0230 -0.3739
 6991TIP3    H242465   6.629   5.200   1.962 -0.0929 -0.0783  2.3386
 6992TIP3   OH242466   5.021   1.585   3.086 -0.2986  0.0120 -0.0790
 6992TIP3    H142467   5.083   1.617   3.151 -0.2507  0.8220 -0.5132
 6992TIP3    H242468   4.935   1.612   3.119 -0.2494  0.7020 -0.5001
 6993TIP3   OH242469   4.193   2.351   4.573 -0.5407  0.4131 -0.3653
 6993TIP3    H142470   4.152   2.383   4.653 -0.0414 -0.2748  0.1810
 6993TIP3    H242471   4.145   2.271   4.552  1.0461 -0.9180  0.7989
 6994TIP3   OH242472   0.308   6.439  13.205 -0.1905  0.0080 -0.0263
 6994TIP3    H142473   0.321   6.533  13.189  0.9291  0.2842  2.1399
 6994TIP3    H242474   0.396   6.402  13.206 -0.6752 -1.3120 -1.9339
 6995TIP3   OH242475   6.665   5.588   3.161 -0.2083  0.4808  0.1411
 6995TIP3    H142476   6.591   5.607   3.218 -0.4454  1.3559 -0.4343
 6995TIP3    H242477   6.709   5.514   3.202 -0.9608  0.4425  0.8992
 6996TIP3   OH242478   2.617   4.386   1.384 -0.3562  0.0946  0.3171
 6996TIP3    H142479   2.608   4.298   1.421  0.2220  0.5987  1.7683
 6996TIP3    H242480   2.710   4.394   1.365 -0.6969 -0.2774 -1.6752
 6997TIP3   OH242481   4.963   0.174  13.688 -0.2956 -0.2216  0.3228
 6997TIP3    H142482   5.047   0.183  13.732  0.3918  0.0258 -0.9715
 6997TIP3    H242483   4.955   0.080  13.670  1.3380  0.0426 -2.4498
 6998TIP3   OH242484   6.816   3.884  16.760  0.3108  0.8628  0.1498
 6998TIP3    H142485   6.724   3.892  16.735 -0.2276 -1.8838  0.8601
 6998TIP3    H242486   6.864   3.890  16.678 -0.8515 -1.0910 -0.7480
 6999TIP3   OH242487   3.365   0.937  14.051 -0.2451 -0.2906  0.1079
 6999TIP3    H142488   3.397   0.846  14.052  1.0189  0.1253  1.5142
 6999TIP3    H242489   3.339   0.954  14.141  0.7462  1.1284  0.1611
 7000TIP3   OH242490   2.737   2.777   5.377 -0.9448  0.2196  0.2858
 7000TIP3    H142491   2.759   2.851   5.434 -0.2894 -0.1752  0.5560
 7000TIP3    H242492   2.789   2.792   5.298 -0.0100 -0.4790  0.7484
 7001TIP3   OH242493   3.509   5.950  14.716  0.1514  0.0027 -0.0773
 7001TIP3    H142494   3.573   6.005  14.760  0.4204  0.0742 -0.5549
 7001TIP3    H242495   3.441   5.935  14.782  0.7524 -0.2420  0.4906
 7002TIP3   OH242496   5.866   2.410  16.923 -0.0342 -0.3120 -0.1085
 7002TIP3    H142497   5.825   2.414  17.010  0.0933  0.8535 -0.0909
 7002TIP3    H242498   5.884   2.501  16.901  0.1503 -0.6172 -1.2662
 7003TIP3   OH242499   1.777   1.575   3.226  0.4922 -0.3490 -0.2235
 7003TIP3    H142500   1.757   1.487   3.258  0.0045 -0.4555 -0.8033
 7003TIP3    H242501   1.704   1.597   3.169  0.8953  0.2042 -0.5366
 7004TIP3   OH242502   0.273   4.746  13.593  0.0113 -0.1371  0.1824
 7004TIP3    H142503   0.319   4.817  13.548 -0.7912 -0.1685 -0.7265
 7004TIP3    H242504   0.224   4.701  13.523  0.6033 -1.6720  0.7071
 7005TIP3   OH242505   5.598   6.817   2.649 -0.3893  0.2090 -0.0360
 7005TIP3    H142506   5.519   6.770   2.672 -0.3374  0.6521  1.1338
 7005TIP3    H242507   5.587   6.841   2.557 -0.5016 -1.8618 -0.5937
 7006TIP3   OH242508   6.797   3.578  11.163 -0.4926 -0.2404 -0.4004
 7006TIP3    H142509   6.822   3.508  11.223  0.0572  0.4639  0.2139
 7006TIP3    H242510   6.874   3.635  11.160  0.1184 -1.0657 -2.9999
 7007TIP3   OH242511   2.625   1.748  14.019 -0.5739 -0.1899 -0.5448
 7007TIP3    H142512   2.665   1.803  14.086 -1.6574  0.4236 -0.3860
 7007TIP3    H242513   2.673   1.665  14.025  0.1917  0.2800  0.1130
 7008TIP3   OH242514   1.306   6.462  14.848  0.4315  0.5286  0.7774
 7008TIP3    H142515   1.242   6.424  14.909 -1.6921  0.4330 -1.3562
 7008TIP3    H242516   1.379   6.399  14.848 -0.1082 -0.1417  2.1923
 7009TIP3   OH242517   5.886   6.025   4.110 -0.5190  0.0161  0.3672
 7009TIP3    H142518   5.978   6.052   4.101  0.4109 -2.8540 -0.0782
 7009TIP3    H242519   5.849   6.037   4.022 -0.5157  0.9561  0.4864
 7010TIP3   OH242520   1.553   4.151  10.878  0.3349  0.1193 -0.0627
 7010TIP3    H142521   1.637   4.141  10.833  0.4464  1.5559 -0.2079
 7010TIP3    H242522   1.571   4.208  10.952 -0.1540 -1.0611  1.0062
 7011TIP3   OH242523   4.390   6.492  14.684  0.1214  0.0370  0.1417
 7011TIP3    H142524   4.296   6.492  14.703  0.4679 -1.2351  2.2012
 7011TIP3    H242525   4.406   6.406  14.645  0.7311 -0.6757  1.8596
 7012TIP3   OH242526   2.333   5.738  14.807 -0.1602  0.3223  0.8671
 7012TIP3    H142527   2.381   5.800  14.752  1.5827 -1.3218  0.4410
 7012TIP3    H242528   2.277   5.690  14.747  2.5639 -2.2620  0.1201
 7013TIP3   OH242529   4.171   5.404   4.573 -0.1975 -0.5609  0.5303
 7013TIP3    H142530   4.194   5.494   4.595 -0.1107 -0.9676  2.2849
 7013TIP3    H242531   4.253   5.356   4.578 -0.0283 -0.5772 -1.5654
 7014TIP3   OH242532   4.255   3.274  13.173  0.4068 -0.3311  0.5032
 7014TIP3    H142533   4.192   3.251  13.106  1.9038  1.1435 -1.5642
 7014TIP3    H242534   4.340   3.246  13.137  1.2030 -0.0305  2.0428
 7015TIP3   OH242535   4.854   2.242  14.975  0.2407 -0.6374  0.4666
 7015TIP3    H142536   4.833   2.321  14.926 -0.5259 -0.3239  1.2860
 7015TIP3    H242537   4.944   2.256  15.005 -0.1912  0.3096  1.3400
 7016TIP3   OH242538   0.017   1.435   5.696  0.3406 -0.4251  0.7705
 7016TIP3    H142539   0.039   1.513   5.746  0.6273  0.6187 -0.8937
 7016TIP3    H242540  -0.041   1.385   5.753 -2.2951  2.4334  0.8334
 7017TIP3   OH242541   5.291   6.653  11.825 -0.1942 -0.4705 -0.1886
 7017TIP3    H142542   5.374   6.646  11.778 -0.3949 -0.3908 -0.5602
 7017TIP3    H242543   5.232   6.593  11.779 -0.1274 -1.1142  0.5528
 7018TIP3   OH242544   0.061   4.236  11.194 -0.4359  0.4525  0.1200
 7018TIP3    H142545   0.132   4.224  11.131  0.7787  0.3812  1.4643
 7018TIP3    H242546   0.024   4.322  11.173  0.5697  0.8461 -0.0814
 7019TIP3   OH242547   1.007   5.672   3.268 -0.3153  0.4265  0.3885
 7019TIP3    H142548   1.068   5.745   3.264  0.4439 -0.2224 -0.4449
 7019TIP3    H242549   0.930   5.706   3.314  0.0369  1.7263  0.0394
 7020TIP3   OH242550   4.430   3.226  16.908 -0.2132 -0.7020  0.2826
 7020TIP3    H142551   4.510   3.173  16.919  0.8788  0.9811  0.8746
 7020TIP3    H242552   4.362   3.176  16.953  1.2198 -0.6702  2.6760
 7021TIP3   OH242553   0.183   1.699   0.235 -0.9445  0.3286  0.3607
 7021TIP3    H142554   0.206   1.789   0.209 -0.7603  0.0902 -0.3208
 7021TIP3    H242555   0.250   1.675   0.300  0.3385 -0.0929 -1.0623
 7022TIP3   OH242556   6.059   5.326  14.970 -0.1689  0.1617  0.7368
 7022TIP3    H142557   6.029   5.236  14.954 -0.9012  0.5466 -0.1483
 7022TIP3    H242558   6.055   5.368  14.884 -0.9784  1.3761  1.3429
 7023TIP3   OH242559   0.737   5.764  13.300 -0.0045  0.7860  0.2259
 7023TIP3    H142560   0.756   5.843  13.251  0.6933  0.2282 -0.4343
 7023TIP3    H242561   0.643   5.768  13.318 -0.1412  1.3254 -0.5737
 7024TIP3   OH242562   1.950   1.976  16.382  0.1056 -0.1067 -0.2543
 7024TIP3    H142563   2.045   1.981  16.396 -0.2936  0.1680  3.2590
 7024TIP3    H242564   1.934   1.884  16.361  1.1133 -0.2487 -0.4590
 7025TIP3   OH242565   2.016   3.736   2.265  0.9007 -0.2284  0.5745
 7025TIP3    H142566   1.981   3.728   2.176 -0.3965 -0.0479  1.0457
 7025TIP3    H242567   1.975   3.663   2.312  0.4012  0.5433  1.3692
 7026TIP3   OH242568   5.677   6.514  13.541 -0.2114 -0.4015 -0.2042
 7026TIP3    H142569   5.753   6.562  13.509 -0.9167 -0.2031 -1.6691
 7026TIP3    H242570   5.650   6.460  13.466 -3.5803  2.0964 -1.0468
 7027TIP3   OH242571   0.166   0.693  13.451  0.2318  0.7736  0.3328
 7027TIP3    H142572   0.236   0.670  13.390  0.7309 -0.0227  1.1642
 7027TIP3    H242573   0.111   0.755  13.404  0.9904  0.7034 -0.6651
 7028TIP3   OH242574   3.734   2.687   2.136 -0.2101  0.3885 -0.2519
 7028TIP3    H142575   3.722   2.782   2.141 -1.3491  0.2612 -0.3533
 7028TIP3    H242576   3.756   2.671   2.044 -1.3954  0.4203 -0.5498
 7029TIP3   OH242577   6.415   2.718   1.745 -0.2563 -0.2858  0.2862
 7029TIP3    H142578   6.370   2.634   1.751  0.4645 -0.7678 -0.7684
 7029TIP3    H242579   6.450   2.720   1.656 -1.3400  1.6863 -0.1530
 7030TIP3   OH242580   6.476   1.614  17.299 -0.4962  0.3402  0.1833
 7030TIP3    H142581   6.564   1.617  17.262  0.0003  0.8870  1.3407
 7030TIP3    H242582   6.435   1.538  17.259  0.9052 -0.5981  0.4657
 7031TIP3   OH242583   1.794   1.544  17.195 -0.4379  0.4725  0.0785
 7031TIP3    H142584   1.833   1.577  17.114 -0.9783 -0.8114 -0.7275
 7031TIP3    H242585   1.849   1.470  17.221 -0.1060  1.0414  1.0536
 7032TIP3   OH242586   5.592   6.486  11.391  0.8158  0.5767 -0.0068
 7032TIP3    H142587   5.497   6.473  11.386  0.7089  1.4234 -0.4317
 7032TIP3    H242588   5.626   6.403  11.424  0.0540 -0.2164 -1.1094
 7033TIP3   OH242589   5.403   4.778   6.125  0.6464 -0.4403  0.4335
 7033TIP3    H142590   5.335   4.828   6.169 -0.4019 -0.1498 -1.4031
 7033TIP3    H242591   5.355   4.720   6.066  1.9777 -0.4882 -0.6445
 7034TIP3   OH242592   3.907   5.323  15.339 -0.3152 -0.2364 -0.6371
 7034TIP3    H142593   3.921   5.230  15.357  0.3096  0.0002  0.1614
 7034TIP3    H242594   3.818   5.340  15.369  0.2280 -0.1647  1.0290
 7035TIP3   OH242595   2.892   0.465   1.960  0.1952 -0.5298  0.3229
 7035TIP3    H142596   2.983   0.492   1.972  0.2043 -0.0271 -0.7201
 7035TIP3    H242597   2.893   0.370   1.971  0.4493 -0.3289  2.4846
 7036TIP3   OH242598   1.647   4.608  16.817  0.2493  0.0666  0.1791
 7036TIP3    H142599   1.675   4.649  16.735 -0.5582  0.2670 -0.0031
 7036TIP3    H242600   1.556   4.582  16.801  0.6421 -1.5417  0.3943
 7037TIP3   OH242601   4.955   2.194   3.302  0.2507  0.1832 -0.5054
 7037TIP3    H142602   5.027   2.134   3.282 -1.4900 -2.0743 -0.4386
 7037TIP3    H242603   4.945   2.190   3.397 -1.6093 -1.7068 -0.7000
 7038TIP3   OH242604   3.149   4.934  16.774 -0.0835  0.3030 -0.0194
 7038TIP3    H142605   3.128   4.882  16.851 -0.4120  0.7162  0.1798
 7038TIP3    H242606   3.068   4.983  16.756  0.8018  2.3262  1.0713
 7039TIP3   OH242607   1.061   0.708  13.576 -0.2431 -0.4656  0.0202
 7039TIP3    H142608   1.080   0.636  13.517 -1.3569  0.1167 -1.0993
 7039TIP3    H242609   1.140   0.763  13.573 -0.3656 -0.3208 -1.1404
 7040TIP3   OH242610   3.643   4.540  16.065 -0.7808  0.0839 -0.5195
 7040TIP3    H142611   3.700   4.616  16.049 -0.6866  0.0730 -0.2397
 7040TIP3    H242612   3.703   4.466  16.072 -0.8864 -0.0482 -0.9749
 7041TIP3   OH242613   2.457   1.106  16.519  0.0028 -0.0022 -0.0383
 7041TIP3    H142614   2.398   1.175  16.487  0.4350  0.2732 -0.2530
 7041TIP3    H242615   2.534   1.112  16.463  0.4763  0.0169  0.5989
 7042TIP3   OH242616   1.338   5.070  10.906  0.1891 -0.1023 -0.6360
 7042TIP3    H142617   1.309   5.104  10.821 -1.1717 -0.3995 -0.3091
 7042TIP3    H242618   1.391   5.141  10.942 -0.2667  0.5400 -1.1910
 7043TIP3   OH242619   5.452   2.636   3.693 -0.3515  0.6058 -0.0594
 7043TIP3    H142620   5.480   2.582   3.620 -1.6994 -0.4489  0.1632
 7043TIP3    H242621   5.478   2.725   3.669 -0.1379  0.1726 -1.4890
 7044TIP3   OH242622   0.969   4.422   2.018  0.3556  0.7785 -0.2606
 7044TIP3    H142623   0.907   4.357   1.986  1.1982  0.0521 -0.4339
 7044TIP3    H242624   1.033   4.373   2.069  1.3617  1.3708 -0.9159
 7045TIP3   OH242625   4.416   4.923   5.432 -0.5569 -0.6769  0.3596
 7045TIP3    H142626   4.363   4.895   5.357 -0.2909  1.7220 -0.8425
 7045TIP3    H242627   4.354   4.964   5.491 -0.2626  1.4358 -0.6914
 7046TIP3   OH242628   2.848   1.719  15.769 -0.5254  0.1209 -0.6087
 7046TIP3    H142629   2.841   1.628  15.742 -2.1252 -0.1416  0.5393
 7046TIP3    H242630   2.911   1.717  15.841 -0.9669 -0.1932 -0.2202
 7047TIP3   OH242631   4.732   0.115  14.738 -0.0397 -0.5901 -0.4597
 7047TIP3    H142632   4.656   0.142  14.687  1.5429  0.9235 -2.1928
 7047TIP3    H242633   4.806   0.127  14.678  1.9753  1.3645  2.2097
 7048TIP3   OH242634   3.068   2.068  13.587 -1.2822 -0.0590  0.1695
 7048TIP3    H142635   3.051   2.028  13.502  0.5222  0.1163 -0.3161
 7048TIP3    H242636   3.039   2.159  13.578 -1.6957 -0.2096 -0.0328
 7049TIP3   OH242637   1.639   0.174  16.442 -0.3469  0.4703  0.0917
 7049TIP3    H142638   1.607   0.217  16.363 -0.1891 -1.4411 -1.0892
 7049TIP3    H242639   1.730   0.202  16.449 -0.9662  2.4467  0.9546
 7050TIP3   OH242640   2.027   1.304   5.728 -0.4333  0.0396 -0.4774
 7050TIP3    H142641   1.949   1.256   5.698  0.0195 -1.5196  0.6668
 7050TIP3    H242642   1.992   1.370   5.788 -0.9313 -0.1671 -0.5316
 7051TIP3   OH242643   3.038   4.710   4.902  0.1814  0.1551  0.3115
 7051TIP3    H142644   3.124   4.693   4.940  0.5385  0.0153 -0.5420
 7051TIP3    H242645   3.042   4.801   4.873  0.0775  0.1120  0.1633
 7052TIP3   OH242646   5.867   1.443  17.244  0.4583  0.2139  0.1740
 7052TIP3    H142647   5.797   1.419  17.183  0.0201 -1.2470  1.2063
 7052TIP3    H242648   5.854   1.536  17.260 -0.5437  0.2100 -0.5232
 7053TIP3   OH242649   5.863   1.175  16.480  0.6602 -0.4498  0.7436
 7053TIP3    H142650   5.820   1.226  16.412 -0.2941  1.2790  2.5437
 7053TIP3    H242651   5.950   1.215  16.489  1.2732 -1.4970 -0.2818
 7054TIP3   OH242652   0.910   4.654  14.010 -0.0409  0.2353 -0.3298
 7054TIP3    H142653   0.857   4.586  13.968  2.9372 -1.8715 -0.9454
 7054TIP3    H242654   0.900   4.730  13.952 -0.3204 -0.9375 -1.8856
 7055TIP3   OH242655   1.497   1.055   5.460 -0.2524  0.1665 -0.3299
 7055TIP3    H142656   1.526   1.063   5.551 -0.4076 -2.3920  0.0177
 7055TIP3    H242657   1.405   1.081   5.462  0.1461  1.6665 -0.1098
 7056TIP3   OH242658   0.225   3.917  14.513 -0.1267  0.1115  0.1702
 7056TIP3    H142659   0.280   3.949  14.585 -0.2483  0.4769  0.0995
 7056TIP3    H242660   0.135   3.927  14.545 -0.1751  0.1014  0.0374
 7057TIP3   OH242661   3.898   3.579   5.983 -0.3073  0.3914 -0.2202
 7057TIP3    H142662   3.909   3.615   6.071 -0.4321  0.2601 -0.1509
 7057TIP3    H242663   3.954   3.634   5.928 -0.1315  0.3967 -0.0398
 7058TIP3   OH242664   4.625   2.920  16.765  0.5472  0.2110  0.5644
 7058TIP3    H142665   4.543   2.894  16.721  0.3967 -1.1414  1.5707
 7058TIP3    H242666   4.624   2.872  16.847  1.8436  1.0485  1.0987
 7059TIP3   OH242667   4.366   2.346  15.557  0.5813 -0.2796 -0.0022
 7059TIP3    H142668   4.413   2.262  15.562 -3.9927 -3.1729  0.2282
 7059TIP3    H242669   4.323   2.355  15.641  0.8802  2.4110 -0.0446
 7060TIP3   OH242670   0.219   4.493  13.187 -0.3960 -0.2647  0.2283
 7060TIP3    H142671   0.167   4.414  13.200  0.0732 -0.6272 -0.0265
 7060TIP3    H242672   0.294   4.463  13.135 -0.2364  0.3588  0.0917
 7061TIP3   OH242673   4.597   4.826  10.276  0.3923 -0.1903  0.1978
 7061TIP3    H142674   4.643   4.888  10.332  0.9593 -0.0496 -0.4141
 7061TIP3    H242675   4.504   4.846  10.289  0.5524  0.4414  0.4016
 7062TIP3   OH242676   1.255   0.336  12.876 -0.7587 -0.3811  0.3108
 7062TIP3    H142677   1.335   0.285  12.890 -1.0142 -0.7481  0.4700
 7062TIP3    H242678   1.239   0.329  12.782  0.0856  0.7574  0.0591
 7063TIP3   OH242679   2.173   0.255  14.018 -0.0309 -0.1019  0.0375
 7063TIP3    H142680   2.128   0.217  14.093  0.3521  1.5313  1.1657
 7063TIP3    H242681   2.264   0.261  14.045 -0.3255  3.2090  0.7252
 7064TIP3   OH242682   1.550   1.819   0.337  0.1102  0.2200  0.5011
 7064TIP3    H142683   1.476   1.802   0.395 -0.7298  0.2889 -0.5218
 7064TIP3    H242684   1.524   1.783   0.252  1.3092  0.1222  0.1445
 7065TIP3   OH242685   1.587   6.548   3.412 -0.2907 -0.2728  0.2676
 7065TIP3    H142686   1.491   6.546   3.414 -0.3668 -0.3630 -1.5383
 7065TIP3    H242687   1.613   6.532   3.502 -1.9791  0.5031  0.9506
 7066TIP3   OH242688   2.247   5.961  14.374  0.7212  0.8393 -1.1628
 7066TIP3    H142689   2.163   6.005  14.356 -0.7280 -0.3582  1.9930
 7066TIP3    H242690   2.237   5.875  14.332 -0.1272  0.3058  0.0734
 7067TIP3   OH242691   3.171   3.311  15.122 -0.1049  0.3878  0.0424
 7067TIP3    H142692   3.162   3.243  15.055 -0.0265 -1.0771  1.4419
 7067TIP3    H242693   3.083   3.346  15.134 -0.1872  0.3804 -0.5347
 7068TIP3   OH242694   4.828   5.016  15.089 -0.3646 -0.2207 -0.3577
 7068TIP3    H142695   4.799   5.041  15.177 -1.2669 -0.2287 -0.6383
 7068TIP3    H242696   4.858   5.098  15.049 -1.2796  0.0500 -0.5199
 7069TIP3   OH242697   0.753   2.609  10.745  0.6112 -0.4491 -0.1690
 7069TIP3    H142698   0.783   2.689  10.701 -2.2169  1.1052  0.5102
 7069TIP3    H242699   0.820   2.592  10.811  2.3368  0.0882 -1.6694
 7070TIP3   OH242700   4.017   3.577  12.310  0.2695  0.1317  0.6729
 7070TIP3    H142701   4.075   3.511  12.349 -1.5357 -0.5871  2.3160
 7070TIP3    H242702   4.057   3.661  12.333  1.3035 -0.3483  0.6875
 7071TIP3   OH242703   5.346   5.119  15.948  0.5607 -0.1284 -0.3485
 7071TIP3    H142704   5.259   5.124  15.909  0.4962 -0.5745 -0.2667
 7071TIP3    H242705   5.405   5.100  15.875  0.3503 -1.6987 -0.1526
 7072TIP3   OH242706   5.891   4.722  11.100  0.2133  0.0005 -0.0355
 7072TIP3    H142707   5.966   4.670  11.129  0.4624 -0.3743 -1.3090
 7072TIP3    H242708   5.816   4.682  11.143  0.3868 -1.5171 -1.0663
 7073TIP3   OH242709   5.274   1.130  16.125 -0.2627  0.0998  1.2189
 7073TIP3    H142710   5.287   1.214  16.081  1.2572 -0.5442  0.3149
 7073TIP3    H242711   5.255   1.068  16.054  0.5780 -0.6612  1.6274
 7074TIP3   OH242712   1.758   0.540  11.423 -0.6640  0.1454  0.3258
 7074TIP3    H142713   1.665   0.563  11.423 -1.6016 -2.8730 -1.6003
 7074TIP3    H242714   1.766   0.473  11.491 -0.7497 -1.9211 -1.5708
 7075TIP3   OH242715   1.286   1.473  17.079  0.0164 -0.0999  0.2397
 7075TIP3    H142716   1.371   1.515  17.092  0.3596 -0.8702  0.5084
 7075TIP3    H242717   1.304   1.398  17.023 -0.2967 -0.9176  1.2045
 7076TIP3   OH242718   3.134   6.569  10.894 -0.1155 -0.1286  0.1314
 7076TIP3    H142719   3.040   6.554  10.886 -0.0777  0.4462 -1.9729
 7076TIP3    H242720   3.174   6.500  10.842  0.4545  1.2681 -1.3930
 7077TIP3   OH242721   2.336   2.498  17.147 -0.4123  0.4492  0.0928
 7077TIP3    H142722   2.349   2.531  17.058  0.4258  0.7445  0.3208
 7077TIP3    H242723   2.414   2.447  17.165  0.1876  1.7216  1.2443
 7078TIP3   OH242724   2.545   5.510  15.713 -0.0087  0.6297 -0.0285
 7078TIP3    H142725   2.625   5.487  15.761 -1.4580 -3.5545  0.7440
 7078TIP3    H242726   2.533   5.439  15.650 -3.3056  0.8687  0.1774
 7079TIP3   OH242727   2.874   3.610   5.492  0.3621 -0.2032  0.2352
 7079TIP3    H142728   2.824   3.599   5.573 -0.4619  0.7954 -0.1039
 7079TIP3    H242729   2.823   3.563   5.426  0.1819  0.3010  0.0068
 7080TIP3   OH242730   1.989   3.121   1.146  0.5630 -0.1595 -0.4708
 7080TIP3    H142731   2.056   3.052   1.143  1.0308  0.2822 -0.3005
 7080TIP3    H242732   1.937   3.100   1.223  2.1053  0.9412  0.9397
 7081TIP3   OH242733   4.762   3.906   3.006 -0.3947  0.3328  0.1725
 7081TIP3    H142734   4.743   3.991   3.046 -1.8727 -0.2431  0.7907
 7081TIP3    H242735   4.678   3.859   3.009  0.4377 -1.2354  0.0852
 7082TIP3   OH242736   2.813   4.061   2.238  0.2464 -0.0036 -0.2560
 7082TIP3    H142737   2.750   3.994   2.265 -0.1281  0.2224 -0.5466
 7082TIP3    H242738   2.890   4.046   2.292  0.1992 -0.7257 -0.3805
 7083TIP3   OH242739   5.158   1.213  14.539 -0.0175  0.3879 -0.3482
 7083TIP3    H142740   5.147   1.124  14.506 -0.7256  0.7751 -1.2018
 7083TIP3    H242741   5.251   1.220  14.559  0.4076  0.0852 -2.1067
 7084TIP3   OH242742   3.584   5.100  16.618 -0.8093  0.6192  0.4371
 7084TIP3    H142743   3.603   5.081  16.527 -0.7846  0.4160  0.4834
 7084TIP3    H242744   3.526   5.176  16.616 -0.1492  1.1174  0.2855
 7085TIP3   OH242745   5.264   2.783  13.942 -0.4710 -0.1455  0.1735
 7085TIP3    H142746   5.234   2.741  13.861  0.3893 -0.5811  0.0636
 7085TIP3    H242747   5.258   2.714  14.008  1.4522 -0.6555 -0.1162
 7086TIP3   OH242748   3.950   5.671   1.947 -0.2514 -0.2026  0.1919
 7086TIP3    H142749   3.877   5.624   1.988 -0.3376 -0.1147  0.1401
 7086TIP3    H242750   3.952   5.756   1.991 -0.6724  0.0872 -0.3416
 7087TIP3   OH242751   2.571   5.208   2.954  0.0296 -0.2473  0.4165
 7087TIP3    H142752   2.568   5.304   2.954 -1.5614 -0.1919  3.0590
 7087TIP3    H242753   2.558   5.184   2.862  1.6341  2.0171 -0.5126
 7088TIP3   OH242754   6.581   1.608  13.064 -0.1218  0.5003  0.1627
 7088TIP3    H142755   6.564   1.687  13.115  1.8380  1.5985 -0.7560
 7088TIP3    H242756   6.511   1.548  13.089 -1.0101  2.0907  1.7722
 7089TIP3   OH242757   2.126   1.061  12.002  0.5247  0.0654  0.1967
 7089TIP3    H142758   2.091   0.974  12.023 -0.9247  0.2338 -1.2494
 7089TIP3    H242759   2.145   1.057  11.908  0.1064  1.3962  0.0272
 7090TIP3   OH242760   2.205   6.093   3.665  0.1537 -0.0396  0.6823
 7090TIP3    H142761   2.117   6.125   3.642  0.3205 -1.0301 -1.5287
 7090TIP3    H242762   2.256   6.173   3.680 -0.0895  0.7466 -2.2182
 7091TIP3   OH242763   3.074   6.675   1.834  0.5889 -0.2658  0.0082
 7091TIP3    H142764   3.158   6.630   1.840  1.3823  1.1538 -0.0261
 7091TIP3    H242765   3.055   6.703   1.923 -1.0574 -2.5961  0.4815
 7092TIP3   OH242766   5.733   1.369   5.802 -0.2529  0.4385 -0.4446
 7092TIP3    H142767   5.822   1.334   5.797 -0.3853  0.0829 -0.3540
 7092TIP3    H242768   5.740   1.444   5.861  0.2185  1.1658 -1.3820
 7093TIP3   OH242769   3.375   1.037   3.892  0.0507  1.0672 -0.0374
 7093TIP3    H142770   3.280   1.050   3.879  0.0106  0.8629  0.0574
 7093TIP3    H242771   3.409   1.021   3.804 -0.2583 -0.5520  0.1091
 7094TIP3   OH242772   5.289   5.936  14.263 -0.4098  0.2155  0.0999
 7094TIP3    H142773   5.201   5.974  14.259 -0.2111  0.7528  0.6976
 7094TIP3    H242774   5.292   5.891  14.347 -0.1863  0.0064 -0.0181
 7095TIP3   OH242775   4.353   2.079  13.178  0.2324 -0.3746  0.5384
 7095TIP3    H142776   4.400   2.135  13.115 -2.7811  0.9030 -0.7557
 7095TIP3    H242777   4.412   2.005  13.193  2.2655  0.6850 -1.6078
 7096TIP3   OH242778   5.328   5.250   2.685  0.3183  0.0046  0.0811
 7096TIP3    H142779   5.313   5.313   2.755  0.6829 -1.4839  1.5482
 7096TIP3    H242780   5.312   5.164   2.725  3.0823 -1.0707 -0.8630
 7097TIP3   OH242781   2.613   2.224  13.383 -0.3736 -0.6389  0.5357
 7097TIP3    H142782   2.614   2.128  13.389  3.1650 -0.7781 -0.0724
 7097TIP3    H242783   2.702   2.250  13.406 -1.5271  2.6634  1.7791
 7098TIP3   OH242784   6.530   1.972   2.359  0.4916  0.1409 -0.2261
 7098TIP3    H142785   6.572   1.886   2.363 -0.0845 -0.1317  0.1600
 7098TIP3    H242786   6.444   1.955   2.319  0.2987  0.5040  0.0275
 7099TIP3   OH242787   5.309   2.644  13.249  0.3031  0.1280 -0.3818
 7099TIP3    H142788   5.239   2.583  13.272  1.9766 -1.5676  0.4369
 7099TIP3    H242789   5.309   2.708  13.320  1.1904 -1.3347  0.9950
 7100TIP3   OH242790   6.414   5.460   3.312  0.1445 -0.1845 -0.3589
 7100TIP3    H142791   6.466   5.390   3.349 -0.7654 -0.1013  1.1552
 7100TIP3    H242792   6.369   5.500   3.387  1.9332  3.1711 -0.8742
 7101TIP3   OH242793   0.114   6.606  12.306  0.3238  0.1764  0.4227
 7101TIP3    H142794   0.158   6.685  12.338  1.1658 -0.6495  1.3870
 7101TIP3    H242795   0.146   6.537  12.363 -0.2995 -0.8928 -0.4903
 7102TIP3   OH242796   1.208   3.370   2.984  0.3177  0.2639  0.0877
 7102TIP3    H142797   1.234   3.281   2.958 -0.2759  0.1912 -0.2885
 7102TIP3    H242798   1.199   3.365   3.079  0.4090 -0.0496  0.0822
 7103TIP3   OH242799   4.323   4.707  15.503  0.5093 -0.1626  0.1809
 7103TIP3    H142800   4.341   4.653  15.581  0.0545 -0.9473 -0.2438
 7103TIP3    H242801   4.380   4.671  15.436  0.5734  0.2255  0.0263
 7104TIP3   OH242802   2.270   2.935   0.883 -0.1985  0.5796 -0.0620
 7104TIP3    H142803   2.223   2.854   0.901 -1.0732  0.6935 -1.6101
 7104TIP3    H242804   2.299   2.926   0.792  1.3055  1.2518  0.3063
 7105TIP3   OH242805   2.682   2.605  14.961  0.2033  0.1204 -0.5837
 7105TIP3    H142806   2.700   2.698  14.980  0.1528  0.2083 -0.9592
 7105TIP3    H242807   2.609   2.583  15.019 -0.7233  0.7076 -1.4899
 7106TIP3   OH242808   3.387   0.432  16.717 -0.0386 -0.0645 -0.1096
 7106TIP3    H142809   3.405   0.510  16.769 -1.4820 -0.6242  1.3251
 7106TIP3    H242810   3.332   0.463  16.645 -1.3381  0.1810  0.9310
 7107TIP3   OH242811   1.917   0.412  15.736  0.2568 -0.5602  0.2895
 7107TIP3    H142812   1.892   0.342  15.796  0.0096 -0.8673 -0.1627
 7107TIP3    H242813   1.834   0.457  15.716  0.5323  0.4049  1.2441
 7108TIP3   OH242814   3.714   0.681   1.477  0.0053 -0.3486 -0.3649
 7108TIP3    H142815   3.796   0.700   1.432  0.8999 -2.4909  0.2382
 7108TIP3    H242816   3.728   0.712   1.567 -0.1996  0.0930 -0.4811
 7109TIP3   OH242817   2.981   4.560  17.250  0.2807 -0.1392 -0.3820
 7109TIP3    H142818   3.068   4.533  17.220  0.5917  0.9642 -0.5003
 7109TIP3    H242819   2.994   4.648  17.285 -1.2219  1.0218 -2.5312
 7110TIP3   OH242820   3.342   4.617   2.553 -0.3215  0.2939 -0.5275
 7110TIP3    H142821   3.326   4.710   2.538  2.0183  0.2883 -4.2240
 7110TIP3    H242822   3.437   4.607   2.550 -0.3849 -2.0693  1.5185
 7111TIP3   OH242823   1.150   3.793  11.281  0.3397  0.5004 -0.3488
 7111TIP3    H142824   1.229   3.804  11.228  0.4134 -0.7466 -0.5194
 7111TIP3    H242825   1.163   3.850  11.356  2.7516 -1.7923  1.1300
 7112TIP3   OH242826   4.970   0.794  16.454  0.7289 -0.2215  0.7006
 7112TIP3    H142827   4.883   0.811  16.491  0.9851 -1.2325  1.8393
 7112TIP3    H242828   4.966   0.831  16.366 -0.9088 -0.4026  0.6598
 7113TIP3   OH242829   2.416   4.368   4.782 -0.0730 -0.6790 -0.2052
 7113TIP3    H142830   2.347   4.432   4.795  0.0547 -0.2476 -1.5709
 7113TIP3    H242831   2.434   4.369   4.688  1.3462 -1.2405  0.0265
 7114TIP3   OH242832   2.833   0.169   1.139 -0.2228  0.3433  0.3670
 7114TIP3    H142833   2.762   0.167   1.203 -1.1001  1.1294 -0.5604
 7114TIP3    H242834   2.905   0.124   1.183 -1.4017 -0.8561  1.1810
 7115TIP3   OH242835   5.603   0.794   2.953 -0.3800  0.0128 -0.4019
 7115TIP3    H142836   5.516   0.799   2.914 -0.4530 -0.2973 -0.2838
 7115TIP3    H242837   5.604   0.861   3.021 -0.7905 -0.5026  0.1113
 7116TIP3   OH242838   3.124   3.029  15.859  0.4802 -0.3324 -0.1452
 7116TIP3    H142839   3.193   2.995  15.801  1.2051  0.0696  0.4640
 7116TIP3    H242840   3.121   2.967  15.931 -0.1818 -0.6420 -0.4297
 7117TIP3   OH242841   2.356   0.556   2.187  0.0901 -0.4961 -0.8430
 7117TIP3    H142842   2.381   0.619   2.254 -2.8536 -0.0484 -0.0003
 7117TIP3    H242843   2.344   0.608   2.108  0.9615 -0.5926 -1.0487
 7118TIP3   OH242844   0.819   1.840   1.523  0.2422 -0.0318 -0.0194
 7118TIP3    H142845   0.819   1.751   1.557 -0.1348 -0.9949 -2.3173
 7118TIP3    H242846   0.909   1.871   1.536  0.3848 -0.7638  0.7832
 7119TIP3   OH242847   5.929   0.116  14.254  0.8251 -0.6589 -0.2223
 7119TIP3    H142848   5.998   0.175  14.286  0.1595  0.7461 -1.2857
 7119TIP3    H242849   5.963   0.084  14.170  0.0124  0.4044 -0.9752
 7120TIP3   OH242850   6.781   5.055  11.561  0.5286 -0.0380  0.5034
 7120TIP3    H142851   6.770   4.990  11.492 -0.8292  0.6984 -0.0135
 7120TIP3    H242852   6.736   5.133  11.528 -1.5373 -0.1265  2.8398
 7121TIP3   OH242853   0.698   5.317  16.698 -0.7591 -0.0265 -0.7113
 7121TIP3    H142854   0.629   5.304  16.634  0.2209 -0.5948 -1.6794
 7121TIP3    H242855   0.773   5.269  16.663 -0.2452 -0.5009  0.9379
 7122TIP3   OH242856   6.521   2.688  11.554 -0.3917  0.5589  0.4667
 7122TIP3    H142857   6.581   2.631  11.601 -0.1530  0.9640  0.6564
 7122TIP3    H242858   6.458   2.717  11.620 -0.3516  0.7285  0.4322
 7123TIP3   OH242859   3.705   5.634  12.066  0.1231  0.5658 -0.8671
 7123TIP3    H142860   3.625   5.617  12.116 -0.9026  0.0463 -2.5800
 7123TIP3    H242861   3.775   5.594  12.117 -0.8275  0.2424  0.2283
 7124TIP3   OH242862   5.595   1.918  16.808  0.4666  0.7577 -0.0120
 7124TIP3    H142863   5.524   1.972  16.772  0.3247 -0.0723 -1.0191
 7124TIP3    H242864   5.550   1.855  16.865  0.0225 -1.3179 -2.4523
 7125TIP3   OH242865   2.479   4.504  13.631  0.5050 -0.1323 -0.0896
 7125TIP3    H142866   2.571   4.476  13.634  0.7457  0.6752  2.0334
 7125TIP3    H242867   2.482   4.598  13.648 -0.7667 -0.3390  1.5469
 7126TIP3   OH242868   1.343   6.812   5.303 -0.1842 -0.3323  0.0540
 7126TIP3    H142869   1.365   6.862   5.224  2.2107 -2.3708 -0.6967
 7126TIP3    H242870   1.341   6.878   5.373 -2.5755  1.5653 -1.6259
 7127TIP3   OH242871   4.646   0.602  16.832 -0.1273  0.5963  0.3862
 7127TIP3    H142872   4.687   0.574  16.750 -3.5859 -2.6591 -0.5100
 7127TIP3    H242873   4.605   0.686  16.811 -1.1349 -0.2837 -1.3766
 7128TIP3   OH242874   1.503   0.524  16.055  0.3386 -0.3687  0.4282
 7128TIP3    H142875   1.509   0.614  16.022 -0.4111 -0.2802  0.5154
 7128TIP3    H242876   1.547   0.471  15.989  2.5052  0.2500  1.2852
 7129TIP3   OH242877   2.703   6.119   5.971  0.1383 -0.1021 -0.0226
 7129TIP3    H142878   2.661   6.114   6.057 -0.6474  0.5000 -0.3523
 7129TIP3    H242879   2.781   6.172   5.985  0.5010 -0.7808  0.5022
 7130TIP3   OH242880   5.582   1.068   2.732 -0.5518  0.0193  0.2867
 7130TIP3    H142881   5.593   0.974   2.744 -0.8701 -0.0223  0.2470
 7130TIP3    H242882   5.490   1.085   2.752 -0.1135  0.5909  2.0056
 7131TIP3   OH242883   3.815   2.785   0.369 -0.6382  0.1970  0.3235
 7131TIP3    H142884   3.789   2.843   0.441 -0.4699  0.5316  0.1162
 7131TIP3    H242885   3.843   2.705   0.412 -1.7775 -0.0912  0.5763
 7132TIP3   OH242886   1.022   5.289  16.899 -0.1155 -0.4672  0.3759
 7132TIP3    H142887   0.972   5.308  16.820 -1.3230 -2.9067  0.4533
 7132TIP3    H242888   0.989   5.350  16.965  1.1865  1.8734 -0.9996
 7133TIP3   OH242889   3.111   2.681   0.763  0.1325 -0.2760  0.1902
 7133TIP3    H142890   3.115   2.698   0.669 -0.4118 -0.9925  0.0294
 7133TIP3    H242891   3.196   2.643   0.784 -0.6648 -2.6819 -0.5674
 7134TIP3   OH242892   0.614   6.204  15.611  0.2986 -0.1971  0.1903
 7134TIP3    H142893   0.660   6.120  15.619 -0.5987 -0.5858  1.4152
 7134TIP3    H242894   0.627   6.247  15.695  0.6993  0.8939 -0.4037
 7135TIP3   OH242895   6.019   4.119   3.284 -0.2819  0.1093 -0.7445
 7135TIP3    H142896   6.058   4.040   3.321 -0.7015  0.7027  1.0740
 7135TIP3    H242897   6.057   4.126   3.196  0.5138 -1.5514 -0.5685
 7136TIP3   OH242898   5.104   6.711   5.693 -0.2884  0.4616 -0.2293
 7136TIP3    H142899   5.111   6.616   5.705 -2.3883  0.1782 -0.8328
 7136TIP3    H242900   5.194   6.740   5.682  0.4154 -1.4493  0.0318
 7137TIP3   OH242901   4.944   2.944  16.769 -0.4319  0.5687 -0.3167
 7137TIP3    H142902   4.998   2.922  16.693 -0.7912 -0.4719 -0.2890
 7137TIP3    H242903   4.903   2.861  16.794 -1.4297  1.1782  0.1419
 7138TIP3   OH242904   1.017   1.689  12.417  0.4261  0.0159  0.1951
 7138TIP3    H142905   0.946   1.696  12.353 -0.8319  0.4447  1.5989
 7138TIP3    H242906   1.032   1.595  12.425 -0.4799 -0.1214  0.4066
 7139TIP3   OH242907   4.724   5.994  16.020  0.0114 -0.0677  0.0555
 7139TIP3    H142908   4.712   6.063  15.954 -0.1801 -0.2043 -0.0532
 7139TIP3    H242909   4.724   5.913  15.969 -5.1692 -0.7366  0.5313
 7140TIP3   OH242910   5.510   1.024   6.533  0.1527 -0.8422  0.3944
 7140TIP3    H142911   5.493   0.964   6.606  0.4908 -0.9592  0.3805
 7140TIP3    H242912   5.446   0.999   6.467 -0.8324 -0.0714  1.0204
 7141TIP3   OH242913   5.508   6.135  15.437 -0.0680  0.1685  0.0031
 7141TIP3    H142914   5.495   6.042  15.454 -3.4894 -0.0430 -2.7187
 7141TIP3    H242915   5.447   6.179  15.497  1.8410  0.8223  1.5915
 7142TIP3   OH242916   2.760   2.168  14.221  0.3060  0.3595 -0.3322
 7142TIP3    H142917   2.711   2.191  14.300  0.0760  0.9252 -0.6282
 7142TIP3    H242918   2.782   2.253  14.181  1.0538  0.0936 -0.4893
 7143TIP3   OH242919   2.105   4.257  16.645  0.2023  0.0624  0.3733
 7143TIP3    H142920   2.079   4.199  16.573  1.2532 -1.4204  1.1542
 7143TIP3    H242921   2.031   4.318  16.653 -1.3846 -1.6959  0.0833
 7144TIP3   OH242922   1.233   3.667  16.454  0.4274 -0.3479  0.2362
 7144TIP3    H142923   1.249   3.646  16.362  1.7213 -1.1164  0.6078
 7144TIP3    H242924   1.226   3.581  16.497 -1.8346 -0.0291  0.6257
 7145TIP3   OH242925   3.662   2.983   5.202 -0.1041 -0.3939  0.2354
 7145TIP3    H142926   3.661   2.966   5.296  0.3248 -1.4020  0.0697
 7145TIP3    H242927   3.574   2.960   5.172 -1.2745  2.8110  0.8280
 7146TIP3   OH242928   6.118   5.456   5.115 -0.3089 -0.0282 -0.5116
 7146TIP3    H142929   6.078   5.514   5.050  0.7098  0.4827 -0.7240
 7146TIP3    H242930   6.209   5.446   5.085 -0.2800 -1.1907 -0.0962
 7147TIP3   OH242931   4.410   1.676  12.070  0.2874  0.1957 -0.0674
 7147TIP3    H142932   4.381   1.623  11.996 -1.2010 -0.2911  0.8307
 7147TIP3    H242933   4.480   1.625  12.111 -1.2507 -1.2060  0.8991
 7148TIP3   OH242934   0.664   4.734   0.347  0.0419  0.0903 -0.8295
 7148TIP3    H142935   0.740   4.705   0.398 -1.0516 -0.7648  0.3734
 7148TIP3    H242936   0.624   4.654   0.315 -0.6537  0.5018 -1.0106
 7149TIP3   OH242937   5.145   3.792   3.715 -0.1376  0.4120  0.0022
 7149TIP3    H142938   5.063   3.815   3.758  0.1515  1.2892  0.0959
 7149TIP3    H242939   5.175   3.873   3.675  0.3275 -0.0661 -0.6400
 7150TIP3   OH242940   4.586   4.389   2.144 -0.4917 -0.7153 -0.0034
 7150TIP3    H142941   4.545   4.347   2.068 -0.1317  0.8717 -1.1336
 7150TIP3    H242942   4.586   4.482   2.122  1.8860 -0.4626  0.8423
 7151TIP3   OH242943   2.756   5.683  11.481  0.8103  0.2024 -0.0132
 7151TIP3    H142944   2.749   5.761  11.427 -1.9290 -0.0130 -0.1034
 7151TIP3    H242945   2.673   5.637  11.468  1.1928 -1.2843  2.2355
 7152TIP3   OH242946   0.268   2.735  12.644  0.2146 -0.0470 -0.0782
 7152TIP3    H142947   0.226   2.677  12.707  1.9050 -2.6112 -1.1853
 7152TIP3    H242948   0.201   2.802  12.626 -0.9170 -0.1612  3.0719
 7153TIP3   OH242949   5.279   3.019   4.105 -0.3125 -0.1676 -0.8226
 7153TIP3    H142950   5.239   3.057   4.027  0.2245 -3.4292 -2.9268
 7153TIP3    H242951   5.343   2.956   4.070  1.3511 -0.4007  2.3136
 7154TIP3   OH242952   5.083   3.837  11.606 -0.1827 -0.1316  0.0532
 7154TIP3    H142953   5.155   3.839  11.668 -0.8543  0.1869  0.8423
 7154TIP3    H242954   5.099   3.758  11.553  0.6384 -0.1552  0.3259
 7155TIP3   OH242955   4.709   5.685  13.066 -0.0694  0.4080 -0.3328
 7155TIP3    H142956   4.783   5.668  13.007 -0.2535 -0.7721 -0.2435
 7155TIP3    H242957   4.746   5.676  13.154 -0.0796  0.9185 -0.2726
 7156TIP3   OH242958   6.816   3.103  12.814  0.0208  0.1006  0.4214
 7156TIP3    H142959   6.838   3.107  12.721 -1.3545 -3.3581 -0.2153
 7156TIP3    H242960   6.752   3.172  12.827 -0.3141  0.1660 -1.3887
 7157TIP3   OH242961   2.433   2.110  12.332 -0.6684  0.0566  0.6294
 7157TIP3    H142962   2.518   2.147  12.310 -0.7249 -0.7550 -1.1215
 7157TIP3    H242963   2.373   2.184  12.329  0.0535  0.8169  2.7908
 7158TIP3   OH242964   3.353   3.061   0.454  0.4361  0.0969  0.3436
 7158TIP3    H142965   3.366   2.970   0.429  0.4321  0.2415 -0.2071
 7158TIP3    H242966   3.344   3.060   0.549  2.0596 -0.2918  0.5156
 7159TIP3   OH242967   2.061   0.244   1.420  0.1710 -0.1263  0.3350
 7159TIP3    H142968   2.054   0.156   1.382 -3.1176  0.4794 -0.7956
 7159TIP3    H242969   2.083   0.300   1.346 -3.4462  0.6575 -0.3672
 7160TIP3   OH242970   6.335   5.228   2.255  0.2140 -0.4437  0.3919
 7160TIP3    H142971   6.276   5.287   2.207  1.2598 -0.8302 -1.4521
 7160TIP3    H242972   6.298   5.225   2.343 -1.4682  0.7582 -0.2059
 7161TIP3   OH242973   6.556   1.171   0.583 -0.0510  0.8379 -0.1719
 7161TIP3    H142974   6.498   1.095   0.582  0.4415  0.4433  0.7060
 7161TIP3    H242975   6.626   1.149   0.522  0.0664  0.6054  0.0458
 7162TIP3   OH242976   5.728   4.564   5.022  0.2446 -0.6112  0.2775
 7162TIP3    H142977   5.763   4.580   4.934  0.3746 -2.5025 -0.0496
 7162TIP3    H242978   5.701   4.651   5.053 -0.3486  0.0205 -1.8439
 7163TIP3   OH242979   3.630   0.709   1.203 -0.3806  0.3225  0.6625
 7163TIP3    H142980   3.655   0.800   1.184 -3.0324  0.8746 -0.7085
 7163TIP3    H242981   3.646   0.700   1.297  1.6867  1.5780  0.4883
 7164TIP3   OH242982   6.294   3.069   1.728  0.3800 -0.3113  0.2313
 7164TIP3    H142983   6.332   3.144   1.775  2.4205 -0.3324 -1.2267
 7164TIP3    H242984   6.227   3.035   1.787  0.8169  1.3992  1.8227
 7165TIP3   OH242985   3.385   0.789   0.835  0.1248  0.2125  0.1147
 7165TIP3    H142986   3.443   0.728   0.882  1.3349  0.7864 -0.5876
 7165TIP3    H242987   3.332   0.829   0.904  1.0288  0.1638  0.8615
 7166TIP3   OH242988   3.254   5.055   1.369 -0.3030 -0.6478  0.0902
 7166TIP3    H142989   3.249   5.035   1.462 -0.9979 -0.8790  0.0068
 7166TIP3    H242990   3.241   5.150   1.364 -0.8455 -0.7195  0.1800
 7167TIP3   OH242991   5.553   6.397  11.744 -0.3826 -0.6748 -0.0919
 7167TIP3    H142992   5.498   6.319  11.749  0.8801 -1.4964  2.8841
 7167TIP3    H242993   5.642   6.364  11.735  0.0396  0.5031 -0.5199
 7168TIP3   OH242994   2.996   5.388   5.083  0.3015  0.3090  0.1797
 7168TIP3    H142995   3.085   5.377   5.115  0.1629 -1.1995  0.1025
 7168TIP3    H242996   2.975   5.305   5.041  0.2876  1.9704 -3.4470
 7169TIP3   OH242997   3.172   4.493   4.547 -0.0433  0.5838  0.1874
 7169TIP3    H142998   3.159   4.436   4.623 -0.7266  2.4386  1.5113
 7169TIP3    H242999   3.107   4.463   4.483 -0.6462  0.1049  1.0029
 7170TIP3   OH243000   1.383   5.553   0.000 -0.4839 -0.4516 -0.1243
 7170TIP3    H143001   1.455   5.595  -0.047 -0.1080 -0.1229  0.7113
 7170TIP3    H243002   1.306   5.571  -0.054 -0.1578  0.4175 -0.3304
 7171TIP3   OH243003   0.481   0.264   4.359 -0.5033 -0.3328  0.3002
 7171TIP3    H143004   0.488   0.201   4.431 -1.3698 -2.5242 -1.4366
 7171TIP3    H243005   0.393   0.250   4.324 -0.7780  1.9729 -0.1126
 7172TIP3   OH243006   2.745   0.954  16.970 -0.1569 -0.0957 -0.2312
 7172TIP3    H143007   2.717   1.044  16.952 -3.5226 -0.4640  2.1760
 7172TIP3    H243008   2.812   0.963  17.038  0.9739  0.5879 -1.3842
 7173TIP3   OH243009   1.221   1.874  17.188  0.0913  0.3004  1.0094
 7173TIP3    H143010   1.170   1.952  17.166  0.8237  0.2428 -1.1981
 7173TIP3    H243011   1.311   1.907  17.199  0.1515 -0.0421  1.6148
 7174TIP3   OH243012   2.186   3.981   2.213 -0.3517 -0.0653 -0.8403
 7174TIP3    H143013   2.150   3.894   2.230 -0.5177 -0.2349 -2.0207
 7174TIP3    H243014   2.242   3.970   2.137  1.6788  0.3476  0.5151
 7175TIP3   OH243015   3.769   1.607  16.185  0.4191  0.6637  0.6403
 7175TIP3    H143016   3.787   1.555  16.264  1.1467 -1.4933 -0.8598
 7175TIP3    H243017   3.680   1.583  16.160  1.4496 -1.5143 -1.1761
 7176TIP3   OH243018   1.215   0.324   0.611  0.0601  0.2672  0.3681
 7176TIP3    H143019   1.198   0.397   0.671  0.6373  0.7538 -0.0461
 7176TIP3    H243020   1.145   0.331   0.545 -0.9788 -0.6734  1.3229
 7177TIP3   OH243021   1.981   5.457  12.808  0.0216  0.0841 -0.3596
 7177TIP3    H143022   1.943   5.393  12.748  0.7374 -2.2057  1.4776
 7177TIP3    H243023   1.964   5.421  12.895  0.5338  2.3967  0.7789
 7178TIP3   OH243024   5.547   4.772   2.150  0.1022 -0.4068 -0.0615
 7178TIP3    H143025   5.458   4.739   2.133 -0.1622 -0.5367  1.4288
 7178TIP3    H243026   5.604   4.709   2.107 -0.4739 -1.7298  1.0206
 7179TIP3   OH243027   5.488   1.966  17.223  0.0774  0.8537 -0.0422
 7179TIP3    H143028   5.526   1.879  17.233 -0.1988  0.5718 -1.3560
 7179TIP3    H243029   5.396   1.955  17.247 -1.0296 -0.2218 -4.0589
 7180TIP3   OH243030   1.896   5.006  11.504  0.1733 -0.1640 -0.1167
 7180TIP3    H143031   1.849   5.060  11.566 -0.6203  0.1668 -0.9838
 7180TIP3    H243032   1.836   4.933  11.485 -0.2369  0.5399 -1.6281
 7181TIP3   OH243033   0.654   2.841   0.902  0.3816  0.0440  0.4530
 7181TIP3    H143034   0.670   2.749   0.885  1.4657  0.6059 -1.9354
 7181TIP3    H243035   0.640   2.846   0.997 -0.2707 -2.6088  0.5734
 7182TIP3   OH243036   5.341   5.242   0.348 -0.0945 -0.3356  0.1026
 7182TIP3    H143037   5.434   5.223   0.336 -0.4176 -0.2787 -3.6167
 7182TIP3    H243038   5.331   5.333   0.318 -1.3073 -0.2269  0.7764
 7183TIP3   OH243039   0.611   5.971   1.647 -0.1820 -0.3743  0.2455
 7183TIP3    H143040   0.702   5.942   1.642 -0.3521 -1.0113  0.6498
 7183TIP3    H243041   0.616   6.066   1.660  0.4508 -0.5193  1.2176
 7184TIP3   OH243042   1.109   5.015   5.902 -0.2885  0.0788  0.0418
 7184TIP3    H143043   1.084   5.097   5.944 -0.4433 -0.2273  0.5544
 7184TIP3    H243044   1.083   4.947   5.964  0.0731 -0.3446 -0.2632
 7185TIP3   OH243045   1.483   6.173  17.043 -0.0942  0.2752  0.5972
 7185TIP3    H143046   1.484   6.077  17.048 -1.0036  0.3276  2.5194
 7185TIP3    H243047   1.571   6.199  17.071  0.0037  0.0253  0.5310
 7186TIP3   OH243048   5.728   6.163   2.844  0.1257  0.2902 -0.0874
 7186TIP3    H143049   5.782   6.085   2.838 -0.8778 -0.6154  1.8264
 7186TIP3    H243050   5.693   6.175   2.755  0.9204 -0.9465 -0.5888
 7187TIP3   OH243051   1.579   0.940  11.133  0.3592 -0.5739  0.2362
 7187TIP3    H143052   1.607   1.014  11.079 -0.2947 -2.3414 -2.7504
 7187TIP3    H243053   1.542   0.981  11.212  1.6339  2.1574 -0.4576
 7188TIP3   OH243054   5.675   4.518   4.524  0.0008 -0.3363  0.0211
 7188TIP3    H143055   5.615   4.580   4.484  0.1307 -1.0850 -1.4177
 7188TIP3    H243056   5.619   4.455   4.570 -0.1386  0.6720  1.2663
 7189TIP3   OH243057   4.566   2.467  10.510 -0.1168 -0.0907 -0.2124
 7189TIP3    H143058   4.632   2.517  10.462 -1.4696 -0.7625 -2.9399
 7189TIP3    H243059   4.599   2.377  10.508  0.8469  0.1247  2.1133
 7190TIP3   OH243060   3.671   6.585   2.103 -0.3437 -0.2223 -0.2516
 7190TIP3    H143061   3.712   6.502   2.079  1.7763  0.9017 -0.7927
 7190TIP3    H243062   3.639   6.620   2.020  2.0462  1.1107 -0.7110
 7191TIP3   OH243063   5.764   2.685   1.314  0.1015 -0.5733  0.5654
 7191TIP3    H143064   5.835   2.622   1.323  0.1733 -0.2244  3.0585
 7191TIP3    H243065   5.731   2.697   1.403 -1.6984  0.8708 -0.2375
 7192TIP3   OH243066   3.683   1.951   3.151 -0.0539 -0.5309 -0.1875
 7192TIP3    H143067   3.626   1.998   3.212 -2.2715 -1.9952 -0.9996
 7192TIP3    H243068   3.629   1.879   3.119  1.9623 -1.4131 -1.8030
 7193TIP3   OH243069   0.276   0.038   0.126 -0.2668  0.0024  0.0163
 7193TIP3    H143070   0.330   0.095   0.181 -1.0458  1.6333 -0.8193
 7193TIP3    H243071   0.220  -0.009   0.188 -1.3528  2.0317  0.6653
 7194TIP3   OH243072   0.416   3.595  15.926 -0.4658  1.0773  0.1058
 7194TIP3    H143073   0.452   3.613  15.839 -0.9034  0.3351 -0.2341
 7194TIP3    H243074   0.479   3.536  15.967 -0.8667  0.4530 -0.1708
 7195TIP3   OH243075   6.661   5.436  16.318 -0.1153  0.1329 -0.2411
 7195TIP3    H143076   6.722   5.393  16.377  1.1285 -2.7989 -3.3636
 7195TIP3    H243077   6.706   5.516  16.290  0.2897  0.3136  0.8737
 7196TIP3   OH243078   4.841   5.138  10.164 -0.2277 -0.0508 -0.1278
 7196TIP3    H143079   4.884   5.057  10.137 -1.6496 -1.0546  0.4780
 7196TIP3    H243080   4.748   5.121  10.152 -0.8023  0.3039  2.9076
 7197TIP3   OH243081   5.084   3.101  16.946  0.1904  0.2855 -0.1999
 7197TIP3    H143082   5.033   3.054  16.880  0.3338  0.0750 -0.1608
 7197TIP3    H243083   5.175   3.077  16.929  0.0328 -3.1437  2.5927
 7198TIP3   OH243084   5.893   1.453   0.343  0.0548 -0.1124  0.1733
 7198TIP3    H143085   5.965   1.414   0.392  0.7621  0.7326 -0.1765
 7198TIP3    H243086   5.869   1.531   0.394 -0.6972 -0.4419  0.3482
 7199TIP3   OH243087   5.748   5.455  16.706 -0.4662 -0.4237  0.4437
 7199TIP3    H143088   5.733   5.545  16.735 -0.2613 -0.8666  2.0092
 7199TIP3    H243089   5.740   5.459  16.611 -1.0817  1.1260  0.5295
 7200TIP3   OH243090   6.682   3.028  16.931 -0.4585 -0.5698 -0.0510
 7200TIP3    H143091   6.691   2.960  16.865  0.3973 -1.0051  0.5014
 7200TIP3    H243092   6.770   3.062  16.944 -0.4388 -1.0846  1.4648
 7201TIP3   OH243093   5.724   4.835   6.213 -0.0349 -0.4382 -0.0556
 7201TIP3    H143094   5.713   4.917   6.262  0.8885  0.0095 -0.5718
 7201TIP3    H243095   5.809   4.802   6.243 -1.1291 -2.0845  1.3944
 7202TIP3   OH243096   1.403   3.702   4.044 -0.1961  0.5475  0.2183
 7202TIP3    H143097   1.312   3.708   4.075 -0.4692  0.3378 -0.5273
 7202TIP3    H243098   1.429   3.612   4.065 -0.5530  0.2411 -0.5881
 7203TIP3   OH243099   4.104   0.518   5.856 -0.2238 -0.1348  0.1182
 7203TIP3    H143100   4.094   0.520   5.951  0.5559  0.7730  0.2039
 7203TIP3    H243101   4.082   0.428   5.831 -0.4948 -0.3679  1.1421
 7204TIP3   OH243102   0.711   3.763  10.644 -0.3717 -0.1548  0.2612
 7204TIP3    H143103   0.771   3.704  10.600  0.2969  0.2801  0.5647
 7204TIP3    H243104   0.629   3.757  10.595  0.6294  1.0385 -1.6667
 7205TIP3   OH243105   1.488   2.663  13.905 -0.4088  0.0766 -0.5927
 7205TIP3    H143106   1.566   2.714  13.885 -0.3507  1.2953  2.3044
 7205TIP3    H243107   1.501   2.581  13.859  2.2413  0.5145 -0.7931
 7206TIP3   OH243108   6.075   1.293   5.725  0.0103 -0.4828 -0.0797
 7206TIP3    H143109   6.055   1.379   5.690 -0.0120 -0.7054 -0.6197
 7206TIP3    H243110   6.088   1.238   5.648  1.5974 -0.6035  0.2458
 7207TIP3   OH243111   2.558   0.236  15.756  0.4584 -0.1302 -0.2983
 7207TIP3    H143112   2.482   0.294  15.752  0.4487 -0.1359 -0.1994
 7207TIP3    H243113   2.543   0.182  15.833  0.3852 -0.3790 -0.4853
 7208TIP3   OH243114   1.854   0.538  13.757  0.2950  0.1032 -0.0408
 7208TIP3    H143115   1.875   0.597  13.685  1.0621  0.6495  0.6107
 7208TIP3    H243116   1.772   0.496  13.731  1.7409 -1.5014 -2.3090
 7209TIP3   OH243117   1.849   5.557   3.409  0.3775 -0.2440  0.1486
 7209TIP3    H143118   1.919   5.575   3.472  0.0163  1.7690  0.0155
 7209TIP3    H243119   1.866   5.467   3.381  1.5908 -0.5830  1.7826
 7210TIP3   OH243120   3.632   4.779   5.357  0.2119 -0.1337 -0.1564
 7210TIP3    H143121   3.560   4.735   5.312  1.3452 -1.5347 -0.6826
 7210TIP3    H243122   3.638   4.735   5.442 -0.6589  1.1818  0.6247
 7211TIP3   OH243123   2.976   0.867  12.961  0.8212  0.4562  0.1323
 7211TIP3    H143124   2.934   0.949  12.989  1.4675  0.3561  1.4777
 7211TIP3    H243125   2.903   0.805  12.956  0.5692  0.6544  0.9787
 7212TIP3   OH243126   3.547   1.102  12.714  0.6197  0.2624 -0.0503
 7212TIP3    H143127   3.471   1.141  12.756 -1.1927 -0.0603 -2.7736
 7212TIP3    H243128   3.591   1.176  12.672  1.1896  0.2917  0.5852
 7213TIP3   OH243129   6.313   4.780   1.973  0.0210  0.7919  0.1046
 7213TIP3    H143130   6.344   4.834   1.901  0.5999  0.5461  0.1613
 7213TIP3    H243131   6.314   4.837   2.050  1.6345  0.4423  0.3777
 7214TIP3   OH243132   6.513   1.084  16.613 -0.3542  0.2456  0.5627
 7214TIP3    H143133   6.468   1.104  16.531  0.6887  0.5791  0.0568
 7214TIP3    H243134   6.443   1.054  16.671 -1.1526  0.2420 -0.3602
 7215TIP3   OH243135   6.070   6.682   5.562  0.2855  0.0162 -0.3164
 7215TIP3    H143136   6.010   6.617   5.598  0.0499 -0.2054 -1.0991
 7215TIP3    H243137   6.108   6.725   5.639  0.1365 -0.7626  0.1978
 7216TIP3   OH243138   2.867   6.362  14.628 -0.5178  0.1192 -0.4351
 7216TIP3    H143139   2.823   6.324  14.552 -0.7794 -0.8495  0.1778
 7216TIP3    H243140   2.833   6.313  14.702  1.3393 -0.4514  0.0948
 7217TIP3   OH243141   5.095   1.414   1.409  0.3272  0.1342  0.6647
 7217TIP3    H143142   5.124   1.338   1.460 -0.5518 -0.8622 -0.2623
 7217TIP3    H243143   5.019   1.383   1.360  0.6147  1.2929 -0.5967
 7218TIP3   OH243144   6.606   5.612   2.151 -0.0134  0.5985 -0.3007
 7218TIP3    H143145   6.696   5.623   2.182 -0.6018  1.5815  1.1697
 7218TIP3    H243146   6.586   5.520   2.169 -0.0282  0.9166  1.5552
 7219TIP3   OH243147   1.890   6.193   2.150 -0.5163  0.2508 -0.0741
 7219TIP3    H143148   1.954   6.136   2.193  1.9754  1.1993 -2.2910
 7219TIP3    H243149   1.880   6.156   2.063 -0.4423  1.9957 -0.8612
 7220TIP3   OH243150   4.119   0.919  12.134 -0.2275 -0.2878  0.4932
 7220TIP3    H143151   4.054   0.988  12.132 -0.0396 -0.1298 -0.2403
 7220TIP3    H243152   4.118   0.882  12.046  0.3210 -0.6073  0.6175
 7221TIP3   OH243153   4.460   4.825   2.987 -0.5478 -0.2854 -0.2310
 7221TIP3    H143154   4.368   4.819   2.963 -0.5601 -1.3454  0.0501
 7221TIP3    H243155   4.499   4.883   2.921 -1.1428 -0.8988 -1.1376
 7222TIP3   OH243156   2.138   0.244  12.173 -0.0440  0.5421  0.2152
 7222TIP3    H143157   2.117   0.331  12.206  0.5282  1.3681 -1.5066
 7222TIP3    H243158   2.063   0.219  12.119  0.7944  1.0093 -1.2154
 7223TIP3   OH243159   2.031   0.251  15.557  0.2586 -0.2234 -0.4353
 7223TIP3    H143160   1.987   0.329  15.590  0.8511 -0.0516 -0.0423
 7223TIP3    H243161   2.029   0.189  15.630  0.6411 -0.2232 -0.4217
 7224TIP3   OH243162   3.441   1.628  16.158  0.3449 -0.2432  0.0866
 7224TIP3    H143163   3.387   1.549  16.161  5.0744 -3.8776  0.5156
 7224TIP3    H243164   3.477   1.637  16.246  2.4679  0.3386 -0.7714
 7225TIP3   OH243165   4.012   0.249   5.261  0.6509  0.3318 -0.3039
 7225TIP3    H143166   3.962   0.298   5.196 -1.4445 -1.0282  0.1980
 7225TIP3    H243167   4.055   0.180   5.210 -1.3693 -1.0268 -0.2802
 7226TIP3   OH243168   0.071   5.775   1.754  0.1318 -0.4321 -0.3190
 7226TIP3    H143169   0.089   5.853   1.807  2.8372 -1.2668  0.1502
 7226TIP3    H243170  -0.000   5.731   1.800  2.4467 -1.2221  2.8966
 7227TIP3   OH243171   3.289   6.618  15.586 -0.3518 -0.1570  0.4725
 7227TIP3    H143172   3.296   6.699  15.636  0.1762 -0.2110  0.4967
 7227TIP3    H243173   3.216   6.633  15.526 -0.1605  0.3987  0.3673
 7228TIP3   OH243174   6.255   5.225  12.139  0.2266 -0.0835  0.3411
 7228TIP3    H143175   6.186   5.194  12.081  0.2543  0.0975  0.2111
 7228TIP3    H243176   6.216   5.299  12.186 -0.2512 -1.0706  1.5579
 7229TIP3   OH243177   1.706   3.814   4.104  0.3960  0.3734  0.1398
 7229TIP3    H143178   1.615   3.795   4.081 -0.1993  1.9533  1.0375
 7229TIP3    H243179   1.751   3.819   4.019 -0.6356  0.8861 -0.3988
 7230TIP3   OH243180   0.772   1.221   1.801 -0.1466 -0.4055  0.3927
 7230TIP3    H143181   0.854   1.196   1.759 -0.3143  2.0086 -1.6126
 7230TIP3    H243182   0.710   1.232   1.728 -2.6933 -3.2816  1.8992
 7231TIP3   OH243183   1.536   5.100  13.569  0.1207  0.2479 -0.0722
 7231TIP3    H143184   1.583   5.076  13.649 -0.6920  2.3851  1.1333
 7231TIP3    H243185   1.603   5.103  13.501  0.7953 -1.8123  0.4290
 7232TIP3   OH243186   4.797   1.132   1.695  0.2956 -0.1701  0.4380
 7232TIP3    H143187   4.859   1.204   1.705 -1.5773  1.2943  1.9825
 7232TIP3    H243188   4.807   1.106   1.603  0.7376  2.3417 -0.3070
 7233TIP3   OH243189   1.402   1.200   5.095  0.2918  0.8091 -0.3819
 7233TIP3    H143190   1.449   1.139   5.038 -0.0828  0.6526 -0.5260
 7233TIP3    H243191   1.471   1.246   5.143  0.5746  0.2147 -0.2107
 7234TIP3   OH243192   3.276   3.544  13.002 -0.1677  0.4951 -0.0561
 7234TIP3    H143193   3.185   3.522  13.021  0.3515 -0.2336  1.7980
 7234TIP3    H243194   3.278   3.558  12.907 -1.6183 -2.4995 -0.6467
 7235TIP3   OH243195   3.113   6.361  11.868  0.1108  0.0187  0.1731
 7235TIP3    H143196   3.019   6.345  11.873 -0.0935  1.0300 -0.0638
 7235TIP3    H243197   3.136   6.342  11.777  0.1009 -0.0559  0.1860
 7236TIP3   OH243198   4.839   1.190  12.473 -0.1421  0.0672  0.1082
 7236TIP3    H143199   4.891   1.111  12.486 -1.3593 -1.5124 -3.3944
 7236TIP3    H243200   4.778   1.191  12.547  1.2931 -1.0134  1.3707
 7237TIP3   OH243201   4.559   1.596  14.646  0.8209  0.1080  0.1695
 7237TIP3    H143202   4.598   1.667  14.594  1.5775 -0.3596  0.0948
 7237TIP3    H243203   4.551   1.523  14.584 -0.2853  0.2266  0.1511
 7238TIP3   OH243204   3.293   6.334  15.517 -0.7380 -1.0784  0.2440
 7238TIP3    H143205   3.218   6.301  15.468  0.2271  0.4346 -2.5225
 7238TIP3    H243206   3.285   6.429  15.512  1.8215 -0.8466 -1.0652
 7239TIP3   OH243207   4.692   3.580  13.096 -0.7086  0.0631 -0.4579
 7239TIP3    H143208   4.721   3.671  13.085  1.8935 -0.2934  2.1573
 7239TIP3    H243209   4.706   3.561  13.189 -2.1352 -2.7406 -0.7050
 7240TIP3   OH243210   2.506   2.580  16.804  0.0517  0.1528 -0.7600
 7240TIP3    H143211   2.588   2.627  16.821  0.1350  0.2534 -1.4032
 7240TIP3    H243212   2.440   2.649  16.794  0.0450  0.1064 -1.0438
 7241TIP3   OH243213   6.668   6.543   0.226 -0.3160 -0.4476  0.0403
 7241TIP3    H143214   6.663   6.602   0.301 -2.0717  0.6372 -0.8483
 7241TIP3    H243215   6.708   6.597   0.157  1.5262 -1.5068  0.2041
 7242TIP3   OH243216   1.773   1.682  11.726 -0.2008  1.0794  0.0019
 7242TIP3    H143217   1.827   1.699  11.649 -2.2474  0.5208 -1.6303
 7242TIP3    H243218   1.827   1.626  11.782  1.2506  1.3295 -1.1072
 7243TIP3   OH243219   0.849   1.909  11.919  0.8075  0.1022 -0.2016
 7243TIP3    H143220   0.773   1.855  11.897  0.5723  1.1494 -2.1615
 7243TIP3    H243221   0.816   1.973  11.982  0.0287  0.5901 -1.0927
 7244TIP3   OH243222   0.491   6.135  10.021  0.0948  0.2650 -0.3342
 7244TIP3    H143223   0.467   6.092  10.103  0.5160  1.1624  0.2723
 7244TIP3    H243224   0.586   6.124  10.015  0.4188  2.2423  0.5234
 7245TIP3   OH243225   2.423   3.029   4.931  0.1290 -0.2177 -0.3277
 7245TIP3    H143226   2.446   3.102   4.872 -0.5302  0.3881  0.1495
 7245TIP3    H243227   2.339   2.997   4.897 -0.4359  0.3644  0.4626
 7246TIP3   OH243228   0.480   0.536  17.219  0.0408  0.2232  0.3953
 7246TIP3    H143229   0.516   0.536  17.308  0.8427  0.5606  0.0801
 7246TIP3    H243230   0.481   0.628  17.193 -0.1391  0.1179  0.0160
 7247TIP3   OH243231   0.373   1.414  11.368 -0.0163  0.3926  0.3015
 7247TIP3    H143232   0.315   1.429  11.294  0.3123 -0.7355 -0.2140
 7247TIP3    H243233   0.320   1.433  11.445 -1.2792 -1.1758 -0.1236
 7248TIP3   OH243234   6.105   3.738   0.910  0.2519 -0.3462  0.0664
 7248TIP3    H143235   6.105   3.834   0.912 -0.6548 -0.3005 -1.0259
 7248TIP3    H243236   6.166   3.713   0.979 -0.3067  0.9950  1.1005
 7249TIP3   OH243237   3.107   3.099   2.984  0.2703 -0.4083  0.1838
 7249TIP3    H143238   3.138   3.031   2.924  1.0249  0.5154 -0.5090
 7249TIP3    H243239   3.144   3.180   2.949  0.5197  0.1975  1.7551
 7250TIP3   OH243240   4.983   6.420   2.346  0.4277 -0.1432  0.6045
 7250TIP3    H143241   4.981   6.353   2.414  1.6349  1.3352  2.1841
 7250TIP3    H243242   5.072   6.418   2.311 -0.0860 -0.6639 -0.7572
 7251TIP3   OH243243   3.543   3.577  15.924 -0.4409  0.4870  0.2215
 7251TIP3    H143244   3.543   3.491  15.967  2.2031  1.2279  1.9517
 7251TIP3    H243245   3.597   3.565  15.846 -0.0511  0.5631  0.4758
 7252TIP3   OH243246   6.775   2.472  13.032 -0.6171 -0.1296 -0.0382
 7252TIP3    H143247   6.690   2.450  13.071 -0.2225  0.2131  1.0426
 7252TIP3    H243248   6.800   2.554  13.074  0.5889 -0.6007  0.1941
 7253TIP3   OH243249   3.034   3.329   4.093 -0.2224 -0.3046  0.3846
 7253TIP3    H143250   3.032   3.238   4.125 -0.7150 -0.4503 -0.0584
 7253TIP3    H243251   3.125   3.357   4.107 -0.0108 -0.9418  0.3100
 7254TIP3   OH243252   6.379   2.440  15.104  0.5922 -0.2278  0.1097
 7254TIP3    H143253   6.295   2.485  15.108  0.5166 -0.4575  1.2764
 7254TIP3    H243254   6.439   2.505  15.067 -0.2234 -0.2976 -1.4431
 7255TIP3   OH243255   4.627   0.907  13.359  0.3377  0.1998 -0.3848
 7255TIP3    H143256   4.673   0.971  13.304  3.8289 -1.2003  0.6113
 7255TIP3    H243257   4.610   0.954  13.441 -3.1634  1.6986 -1.7730
 7256TIP3   OH243258   0.740   0.296  15.929 -0.2339  0.3227  0.2261
 7256TIP3    H143259   0.695   0.239  15.867 -2.1093  2.7149 -0.7960
 7256TIP3    H243260   0.684   0.374  15.935  0.4717  0.7581  4.0145
 7257TIP3   OH243261   3.942   6.636  10.731  0.3502 -0.2744 -0.4578
 7257TIP3    H143262   3.907   6.547  10.730  0.6761 -0.4041 -0.2324
 7257TIP3    H243263   3.922   6.669  10.819  0.0585 -0.0545 -0.6039
 7258TIP3   OH243264   2.155   3.167  12.133  0.5601  0.0281  0.3994
 7258TIP3    H143265   2.199   3.104  12.190  2.5666 -1.2792 -2.3730
 7258TIP3    H243266   2.212   3.244  12.134  1.9348 -0.8727 -1.5165
 7259TIP3   OH243267   1.546   4.427   2.957  0.0553 -0.4553 -0.6223
 7259TIP3    H143268   1.533   4.412   3.050  1.1842  1.1985 -0.1611
 7259TIP3    H243269   1.463   4.464   2.926 -0.2663 -0.8609 -0.2547
 7260TIP3   OH243270   0.785   1.607   5.429 -0.1314  0.3199  0.1355
 7260TIP3    H143271   0.698   1.585   5.462 -0.4071  2.3650  0.9580
 7260TIP3    H243272   0.830   1.647   5.504  1.7224 -1.1064 -0.1338
 7261TIP3   OH243273   0.485   6.259  15.332  0.2242 -0.3448 -0.0298
 7261TIP3    H143274   0.515   6.287  15.245 -0.7785 -0.1208 -0.3228
 7261TIP3    H243275   0.543   6.187  15.356  0.3711 -0.5592 -0.9902
 7262TIP3   OH243276   5.483   2.066   4.249 -0.2021 -0.2283 -0.1001
 7262TIP3    H143277   5.469   2.068   4.154 -1.5060  0.2274  0.0788
 7262TIP3    H243278   5.520   1.979   4.266 -1.7648 -1.0891 -0.8331
 7263TIP3   OH243279   3.275   4.536   2.863  0.3310 -0.0794  0.0224
 7263TIP3    H143280   3.357   4.568   2.901  0.8098 -0.7635 -0.4086
 7263TIP3    H243281   3.297   4.517   2.772  0.1745 -1.9513  0.3384
 7264TIP3   OH243282   0.213   2.280  11.024 -0.0102  0.4597  0.4270
 7264TIP3    H143283   0.229   2.370  10.997 -0.9263  0.3896 -0.3909
 7264TIP3    H243284   0.252   2.226  10.955 -0.7844  0.2608  0.1288
 7265TIP3   OH243285   4.501   5.822   5.540  0.1970  0.0793 -0.2727
 7265TIP3    H143286   4.419   5.827   5.589  0.4493  1.2310  0.0716
 7265TIP3    H243287   4.566   5.793   5.604  0.3085  0.4741 -0.2045
 7266TIP3   OH243288   1.754   4.623   3.156 -0.4988 -0.2894 -0.1849
 7266TIP3    H143289   1.660   4.626   3.137 -0.5433  0.8100  0.1647
 7266TIP3    H243290   1.760   4.607   3.250 -0.4706  4.0103  0.7285
 7267TIP3   OH243291   6.124   0.120   4.238 -0.8833  0.1003  0.2272
 7267TIP3    H143292   6.161   0.049   4.291  0.8639  0.9665  0.2445
 7267TIP3    H243293   6.117   0.194   4.299 -0.8999  0.4905 -0.2385
 7268TIP3   OH243294   4.185   5.454  16.247  0.2775  0.0993  0.1888
 7268TIP3    H143295   4.181   5.432  16.340 -0.0330  1.0271  0.4102
 7268TIP3    H243296   4.126   5.529  16.238  0.8657  0.4782 -0.6095
 7269TIP3   OH243297   3.999   1.459  13.586 -0.0394  0.5174 -0.4515
 7269TIP3    H143298   4.086   1.496  13.571  0.4663 -0.4394  0.0119
 7269TIP3    H243299   3.940   1.517  13.538  0.5104  2.8814  1.5013
 7270TIP3   OH243300   4.094   0.440  12.240 -0.4154 -0.1828  0.2137
 7270TIP3    H143301   4.047   0.501  12.183 -1.1050 -1.4532 -0.6253
 7270TIP3    H243302   4.034   0.425  12.313 -0.9065 -0.9888 -0.3330
 7271TIP3   OH243303   3.425   5.294  12.892  0.1171  0.4662  0.2660
 7271TIP3    H143304   3.415   5.327  12.803 -1.7222  0.1583  0.3267
 7271TIP3    H243305   3.518   5.306  12.912  0.2919  1.7993 -1.1927
 7272TIP3   OH243306   5.899   1.505  15.510 -0.7645 -0.4464 -0.0640
 7272TIP3    H143307   5.911   1.563  15.585 -1.0720 -2.1741  1.3861
 7272TIP3    H243308   5.938   1.553  15.437 -0.4152  1.2850  1.1869
 7273TIP3   OH243309   5.349   3.860   0.924 -0.2853  0.2951 -0.7466
 7273TIP3    H143310   5.320   3.928   0.985 -1.3179  0.7556 -1.7048
 7273TIP3    H243311   5.309   3.780   0.958 -0.7122  0.5186 -0.7077
 7274TIP3   OH243312   4.226   6.474   2.606  0.6680  0.2151  0.1978
 7274TIP3    H143313   4.289   6.534   2.646  0.6437 -0.0857  0.7031
 7274TIP3    H243314   4.141   6.514   2.624  0.7186  0.7045 -0.6265
 7275TIP3   OH243315   3.031   5.140   0.822  0.0610 -0.3391  0.2251
 7275TIP3    H143316   2.984   5.082   0.762  0.7340  0.6418 -1.3019
 7275TIP3    H243317   3.111   5.093   0.844 -1.3376 -1.8720  2.5726
 7276TIP3   OH243318   0.410   6.778   3.681 -0.0124 -0.3362  0.0295
 7276TIP3    H143319   0.318   6.778   3.707  0.1973 -1.5967  0.8335
 7276TIP3    H243320   0.408   6.795   3.586 -0.9515  1.3057  0.3023
 7277TIP3   OH243321   3.215   2.704  12.475 -0.1975  0.0390  0.2385
 7277TIP3    H143322   3.276   2.655  12.530  0.9681  0.2684 -0.8050
 7277TIP3    H243323   3.156   2.636  12.440  0.4878 -0.4398 -0.0267
 7278TIP3   OH243324   3.171   1.750  14.655 -0.0211  0.1869  0.1638
 7278TIP3    H143325   3.120   1.806  14.714 -1.2969  0.9981 -1.6256
 7278TIP3    H243326   3.168   1.664  14.697 -2.8193  0.2257  0.2592
 7279TIP3   OH243327   1.872   1.720  13.727 -0.1256 -0.1558 -0.3619
 7279TIP3    H143328   1.949   1.743  13.779 -0.0454 -2.2911  0.5795
 7279TIP3    H243329   1.895   1.746  13.638  0.4008  2.0531  0.3488
 7280TIP3   OH243330   0.247   3.245  15.143 -0.2009 -0.4319  0.1031
 7280TIP3    H143331   0.340   3.227  15.135 -0.1728  0.3509 -1.7612
 7280TIP3    H243332   0.217   3.259  15.053 -2.6156 -2.9358  0.3646
 7281TIP3   OH243333   6.552   0.539   2.418  0.2486 -0.1040  0.3746
 7281TIP3    H143334   6.470   0.497   2.444  0.4248 -0.5058  0.2833
 7281TIP3    H243335   6.613   0.517   2.488  0.5235 -0.5724 -0.0046
 7282TIP3   OH243336   4.769   1.035  15.583 -0.2209  0.1618 -0.4486
 7282TIP3    H143337   4.791   0.965  15.521  0.5990  0.0203 -0.0081
 7282TIP3    H243338   4.728   1.103  15.528  0.4219  0.0082 -1.1354
 7283TIP3   OH243339   0.557   1.775   2.963 -0.2356  0.6845  0.1671
 7283TIP3    H143340   0.561   1.809   3.053  0.0579  1.6729 -0.1985
 7283TIP3    H243341   0.580   1.851   2.908 -2.9077  0.8428 -0.9023
 7284TIP3   OH243342   4.489   0.671  15.126 -0.0881 -0.1778 -0.0666
 7284TIP3    H143343   4.469   0.765  15.124  0.8680  0.0478  0.4220
 7284TIP3    H243344   4.413   0.631  15.167  0.1904  0.5892  1.2337
 7285TIP3   OH243345   2.991   5.304  13.570  0.3567 -0.2354 -0.1241
 7285TIP3    H143346   3.040   5.256  13.504  0.4647 -0.4014  0.0764
 7285TIP3    H243347   3.050   5.375  13.596  1.3183 -1.5655  1.5348
 7286TIP3   OH243348   2.816   2.128   5.118  0.1912  0.0254  0.0846
 7286TIP3    H143349   2.830   2.054   5.058  2.0833  0.7838 -0.5143
 7286TIP3    H243350   2.740   2.173   5.083  0.3530 -0.4111 -0.8641
 7287TIP3   OH243351   5.134   2.395  17.211  0.2506 -0.0797 -0.2812
 7287TIP3    H143352   5.213   2.449  17.208 -0.2274  0.7051  0.7140
 7287TIP3    H243353   5.129   2.355  17.124 -0.8911  3.6395 -2.1001
 7288TIP3   OH243354   3.948   4.747  11.845 -0.4099 -0.0585  0.6497
 7288TIP3    H143355   3.883   4.810  11.874 -0.8037  0.1369 -0.6019
 7288TIP3    H243356   3.969   4.773  11.756  0.7903 -0.6042  0.7491
 7289TIP3   OH243357   2.381   4.555  15.022 -0.6221  0.5474 -0.6760
 7289TIP3    H143358   2.424   4.596  15.097 -2.2437  2.3323 -0.6517
 7289TIP3    H243359   2.349   4.628  14.970 -0.2484 -0.6685 -2.7174
 7290TIP3   OH243360   6.018   5.647   0.175 -0.1498 -0.5207 -0.0046
 7290TIP3    H143361   6.080   5.634   0.247 -1.4922 -0.2506  1.2499
 7290TIP3    H243362   6.015   5.562   0.131  0.3825 -0.8130  0.5022
 7291TIP3   OH243363   2.470   0.146  15.998  0.6011  0.0512  0.3663
 7291TIP3    H143364   2.442   0.070  16.049  2.1796 -0.7692  0.0667
 7291TIP3    H243365   2.480   0.216  16.063  0.3198 -0.3316  0.8283
 7292TIP3   OH243366   4.136   2.870   4.497 -0.3430 -0.5888 -0.3667
 7292TIP3    H143367   4.193   2.936   4.537  0.0118 -0.9592 -0.2594
 7292TIP3    H243368   4.061   2.865   4.556 -0.2183 -0.5182 -0.2004
 7293TIP3   OH243369   1.471   5.111  14.606  0.4970 -0.7544  0.0929
 7293TIP3    H143370   1.513   5.196  14.595  1.0875 -0.8921  1.1361
 7293TIP3    H243371   1.519   5.053  14.547 -0.0176 -0.3479 -0.7513
 7294TIP3   OH243372   3.098   3.881  17.203 -0.6670  0.0586  0.8274
 7294TIP3    H143373   3.010   3.919  17.214 -0.3699  0.6208  1.3103
 7294TIP3    H243374   3.099   3.851  17.112 -0.6872  1.8578  0.1762
 7295TIP3   OH243375   4.494   5.171  11.657  0.0733 -0.3725  0.0718
 7295TIP3    H143376   4.448   5.092  11.626 -0.4354 -1.2154  2.7434
 7295TIP3    H243377   4.587   5.150  11.648 -0.0338 -1.7803  1.7345
 7296TIP3   OH243378   4.099   0.657  14.549  0.2845 -0.6494 -0.2058
 7296TIP3    H143379   4.057   0.739  14.524 -1.2314 -1.1968  0.4298
 7296TIP3    H243380   4.064   0.592  14.487  1.5779 -0.8140 -0.7946
 7297TIP3   OH243381   6.011   6.323   4.729 -0.4462 -0.2252  0.6705
 7297TIP3    H143382   6.054   6.373   4.660  0.0250 -2.2575 -0.5758
 7297TIP3    H243383   5.921   6.356   4.730 -0.7257 -0.7711 -1.5913
 7298TIP3   OH243384   1.380   3.142  16.698 -0.7516  0.5094  0.1484
 7298TIP3    H143385   1.407   3.162  16.787 -2.0391  3.6794 -0.0542
 7298TIP3    H243386   1.462   3.127  16.651  0.0347  0.4110  1.4993
 7299TIP3   OH243387   0.987   2.283  11.789  0.0974 -0.4271 -0.6394
 7299TIP3    H143388   1.065   2.312  11.838 -0.9535  3.4142 -0.9327
 7299TIP3    H243389   0.988   2.188  11.799  3.5021 -0.3894  1.3532
 7300TIP3   OH243390   2.245   6.207   1.478 -0.1985 -0.5493  0.0685
 7300TIP3    H143391   2.285   6.253   1.405  0.3246  0.0784  0.7343
 7300TIP3    H243392   2.279   6.118   1.472  0.6080 -0.2541  0.1005
 7301TIP3   OH243393   3.596   2.274   4.704 -0.2286 -0.0923  0.5415
 7301TIP3    H143394   3.662   2.336   4.674 -0.1197 -0.5284 -0.1548
 7301TIP3    H243395   3.646   2.203   4.743 -0.3398  0.1163  1.0670
 7302TIP3   OH243396   6.774   3.411   0.147  0.5045  0.0317  0.0789
 7302TIP3    H143397   6.703   3.379   0.093 -0.9541  0.0376  1.8933
 7302TIP3    H243398   6.842   3.437   0.085 -1.2087  0.4045 -1.7348
 7303TIP3   OH243399   0.878   2.237  15.800 -0.0163  0.1117  0.0272
 7303TIP3    H143400   0.804   2.224  15.860 -0.3729  2.0202  0.0906
 7303TIP3    H243401   0.900   2.330  15.811  1.4102 -0.0661 -1.1155
 7304TIP3   OH243402   1.970   3.783   0.962  0.2996 -0.2258 -0.3350
 7304TIP3    H143403   1.955   3.743   0.877  0.9610 -0.0130 -0.5536
 7304TIP3    H243404   1.938   3.873   0.953  0.5179 -0.1551 -0.4103
 7305TIP3   OH243405   4.526   2.111  16.446 -0.3089 -0.4576  0.6108
 7305TIP3    H143406   4.543   2.034  16.501 -0.1274 -1.6285 -1.0396
 7305TIP3    H243407   4.552   2.085  16.358 -2.3413  0.7180 -0.4140
 7306TIP3   OH243408   4.191   2.992  14.214  0.6502  0.2383  0.0490
 7306TIP3    H143409   4.101   2.967  14.234  1.2624 -0.5004  2.0433
 7306TIP3    H243410   4.191   3.088  14.217 -0.0598  0.2451 -0.0375
 7307TIP3   OH243411   3.787   4.689  11.489  0.2951 -0.2011 -0.7313
 7307TIP3    H143412   3.863   4.730  11.529 -0.7147  0.8034  0.1820
 7307TIP3    H243413   3.724   4.760  11.477 -1.0242 -1.2493 -0.2234
 7308TIP3   OH243414   6.145   3.573  11.992  0.6823 -0.1888 -0.1786
 7308TIP3    H143415   6.137   3.481  12.019 -1.9908  0.2959  1.0126
 7308TIP3    H243416   6.113   3.574  11.902 -1.9855 -0.1450  0.6605
 7309TIP3   OH243417   6.650   6.736   0.772  0.7186 -0.1930  0.5696
 7309TIP3    H143418   6.592   6.684   0.716  1.5918  0.5602 -1.0928
 7309TIP3    H243419   6.711   6.672   0.808 -0.0211 -0.7257  0.9128
 7310TIP3   OH243420   1.844   0.043  11.987 -0.4495 -0.2236 -0.0420
 7310TIP3    H143421   1.854   0.029  11.893  2.7991  0.3277  0.1341
 7310TIP3    H243422   1.803  -0.038  12.019 -1.2558 -0.5634 -1.8550
 7311TIP3   OH243423   0.053   2.456  11.822 -0.4862 -0.7311 -0.0634
 7311TIP3    H143424   0.035   2.373  11.866 -0.5254 -0.3693  0.6172
 7311TIP3    H243425   0.023   2.523  11.883 -0.9763 -0.2198 -0.8432
 7312TIP3   OH243426   6.161   1.246   4.965 -0.3051  0.1981 -0.3998
 7312TIP3    H143427   6.218   1.284   4.898 -0.5876  0.2557 -0.6123
 7312TIP3    H243428   6.149   1.316   5.029  1.3552 -0.3932  0.6249
 7313TIP3   OH243429   3.723   4.696   3.850 -0.5405 -0.0785 -0.1258
 7313TIP3    H143430   3.815   4.695   3.822 -0.5109 -1.9527 -0.0803
 7313TIP3    H243431   3.678   4.745   3.782  0.3364 -0.0952 -0.7376
 7314TIP3   OH243432   3.773   6.324   2.882 -0.6237  0.1779  0.2960
 7314TIP3    H143433   3.862   6.347   2.908 -0.0692  1.7710 -2.5680
 7314TIP3    H243434   3.778   6.232   2.857  0.2116  0.2141  0.3086
 7315TIP3   OH243435   5.187   4.652  14.157 -0.7287 -0.5881 -0.7241
 7315TIP3    H143436   5.232   4.621  14.078  2.0148 -0.6778  0.7743
 7315TIP3    H243437   5.173   4.745  14.142 -0.7078 -0.6997 -1.5014
 7316TIP3   OH243438   0.604   6.136   1.997 -0.0807 -0.4780  0.5962
 7316TIP3    H143439   0.614   6.156   1.904  2.6123  1.6093  1.2054
 7316TIP3    H243440   0.511   6.148   2.015 -0.7372 -1.4381 -1.9014
 7317TIP3   OH243441   2.246   5.513  13.027 -0.2439 -0.1332  0.5571
 7317TIP3    H143442   2.167   5.467  13.053 -0.7108  0.1193 -0.3846
 7317TIP3    H243443   2.284   5.545  13.110 -1.2677 -0.0030  0.9834
 7318TIP3   OH243444   2.533   2.428   4.085 -0.0454  0.8081 -0.1698
 7318TIP3    H143445   2.444   2.433   4.121 -0.0514  0.0280 -0.0727
 7318TIP3    H243446   2.584   2.385   4.153  0.1435  0.1487 -0.7218
 7319TIP3   OH243447   6.405   5.094  15.244 -0.3502  0.0367 -0.3945
 7319TIP3    H143448   6.389   5.040  15.167 -0.2615  0.3515 -0.6381
 7319TIP3    H243449   6.424   5.032  15.314 -0.3360 -0.2494 -0.6508
 7320TIP3   OH243450   1.413   0.632  16.329 -0.2159  0.5490 -0.0505
 7320TIP3    H143451   1.371   0.556  16.287  0.7879  0.1807 -0.4087
 7320TIP3    H243452   1.502   0.633  16.293  0.6915  0.2209  2.0836
 7321TIP3   OH243453   4.775   0.530  17.093  0.0480 -0.0092 -0.1233
 7321TIP3    H143454   4.847   0.584  17.126  1.2433 -2.2303  1.1047
 7321TIP3    H243455   4.748   0.574  17.012  2.5234  1.1308 -0.4329
 7322TIP3   OH243456   3.969   4.303  13.624  0.0608  0.2826 -0.3569
 7322TIP3    H143457   4.051   4.283  13.579  2.1440 -1.3351  3.6777
 7322TIP3    H243458   3.951   4.395  13.601  3.5362  1.0078 -0.6655
 7323TIP3   OH243459   2.221   5.932  13.107  0.1055 -0.1953  0.4788
 7323TIP3    H143460   2.231   6.027  13.108  0.1091 -0.1944  0.3784
 7323TIP3    H243461   2.150   5.915  13.169  0.8774 -0.2245  1.3694
 7324TIP3   OH243462   0.433   2.582   1.927 -0.3634  0.5601 -0.6300
 7324TIP3    H143463   0.487   2.647   1.971 -1.9387  1.1453  0.5397
 7324TIP3    H243464   0.410   2.519   1.995  0.4828 -0.8086 -1.5689
 7325TIP3   OH243465   1.404   2.488  14.334 -0.7192 -0.1238  0.0504
 7325TIP3    H143466   1.432   2.544  14.406 -2.7499  0.3990  0.5062
 7325TIP3    H243467   1.369   2.549  14.269 -0.1464 -0.6886 -0.8024
 7326TIP3   OH243468   2.840   0.293   3.680  0.1446 -0.6906  0.0427
 7326TIP3    H143469   2.874   0.238   3.751  0.5214 -0.0535  0.3625
 7326TIP3    H243470   2.770   0.344   3.720 -0.5224 -1.2633 -0.3695
 7327TIP3   OH243471   5.534   2.670   1.736  0.0209 -0.4567 -0.4659
 7327TIP3    H143472   5.523   2.734   1.806  5.1366  0.2121  0.0816
 7327TIP3    H243473   5.499   2.713   1.658  0.8077  1.8680  0.3985
 7328TIP3   OH243474   0.850   2.953  14.222  0.1889 -0.0231 -0.2362
 7328TIP3    H143475   0.826   2.861  14.233  0.5042  0.0821  1.4809
 7328TIP3    H243476   0.894   2.956  14.137 -0.5589 -1.2973 -0.6988
 7329TIP3   OH243477   1.388   4.410  15.643  0.5502  0.1352 -0.3487
 7329TIP3    H143478   1.339   4.363  15.710  1.5141 -3.6986 -2.0556
 7329TIP3    H243479   1.327   4.476  15.610 -0.7905  0.4622  2.4811
 7330TIP3   OH243480   0.828   3.299  13.369  0.1331  0.0979  0.2912
 7330TIP3    H143481   0.790   3.323  13.453 -0.3477  0.2747  0.0247
 7330TIP3    H243482   0.922   3.292  13.386 -0.0311 -0.4987  0.9876
 7331TIP3   OH243483   3.572   6.790  15.388 -0.6265 -0.0307  0.4296
 7331TIP3    H143484   3.514   6.799  15.465 -0.8114  0.8724  0.2028
 7331TIP3    H243485   3.518   6.821  15.315 -0.3901 -0.7217 -0.0411
 7332TIP3   OH243486   2.677   2.869  13.001 -0.1443  0.2459  0.6341
 7332TIP3    H143487   2.602   2.834  12.952  0.7943 -0.0195 -0.6319
 7332TIP3    H243488   2.663   2.836  13.090 -1.0705 -0.5370  0.2278
 7333TIP3   OH243489   4.315   6.093  14.360 -0.1010  0.1266 -0.3645
 7333TIP3    H143490   4.259   6.066  14.433 -0.1071 -0.6874 -0.6503
 7333TIP3    H243491   4.263   6.157  14.312 -1.1626 -1.2167 -1.0887
 7334TIP3   OH243492   4.656   5.568   0.225  0.0460 -0.0395  0.3735
 7334TIP3    H143493   4.701   5.584   0.308 -0.1980 -2.2755  0.9818
 7334TIP3    H243494   4.724   5.582   0.159  0.6645  0.2059  1.0430
 7335TIP3   OH243495   1.691   2.690  12.281  0.3502 -0.3581  0.2556
 7335TIP3    H143496   1.738   2.617  12.241  0.3942  0.5926 -1.5679
 7335TIP3    H243497   1.603   2.686  12.242  0.1138  0.1028  0.7199
 7336TIP3   OH243498   5.204   2.968  13.666  0.2910 -0.1872  0.3369
 7336TIP3    H143499   5.186   2.914  13.589 -2.0437  0.8420  0.0625
 7336TIP3    H243500   5.130   2.951  13.724  1.8379 -0.6871  2.2651
 7337TIP3   OH243501   1.044   6.717  12.772  0.6703  0.0769  0.1448
 7337TIP3    H143502   1.050   6.812  12.759 -0.8636  0.2553  0.5453
 7337TIP3    H243503   0.979   6.689  12.708 -1.3735 -0.1692  2.2322
 7338TIP3   OH243504   6.440   4.732  16.876  0.1174 -0.1674  0.1411
 7338TIP3    H143505   6.449   4.679  16.955 -0.2572  2.0966  1.8112
 7338TIP3    H243506   6.388   4.808  16.904  0.2609  0.8772 -2.2086
 7339TIP3   OH243507   0.474   0.468   6.170 -0.6992 -0.0769  0.4881
 7339TIP3    H143508   0.487   0.375   6.191  0.2374  0.3579  1.9243
 7339TIP3    H243509   0.429   0.504   6.246  0.9732  1.1094  0.9692
 7340TIP3   OH243510   5.328   2.141  14.420  0.7473  0.4156  0.0579
 7340TIP3    H143511   5.257   2.171  14.363 -1.2137  0.3158  2.3182
 7340TIP3    H243512   5.357   2.221  14.465 -0.4777 -0.0603  1.7853
 7341TIP3   OH243513   0.731   0.053  14.469  0.8734  0.3431 -0.3880
 7341TIP3    H143514   0.682   0.111  14.411  0.6172  1.2911  0.7483
 7341TIP3    H243515   0.691  -0.034  14.454 -0.3961  0.8877 -0.3291
 7342TIP3   OH243516   2.927   6.380   6.214 -0.1352  0.2775  0.3429
 7342TIP3    H143517   3.003   6.322   6.206 -0.2941  0.1862 -0.5883
 7342TIP3    H243518   2.854   6.321   6.236 -0.5663 -0.1048 -1.8806
 7343TIP3   OH243519   2.592   2.731  15.420  0.0981  0.3322  0.4661
 7343TIP3    H143520   2.615   2.785  15.345  0.4533  0.1554  0.4481
 7343TIP3    H243521   2.606   2.789  15.496  0.6102  0.2229  0.4559
 7344TIP3   OH243522   1.351   4.863  14.097  0.1019  0.0137  0.4620
 7344TIP3    H143523   1.356   4.922  14.172 -0.2492 -2.0936  2.2387
 7344TIP3    H243524   1.264   4.879  14.059 -0.0195  0.5567  0.9709
 7345TIP3   OH243525   5.053   0.987  14.695  0.3396  0.1456 -0.5633
 7345TIP3    H143526   4.965   0.954  14.713  0.4946  0.3943  0.6884
 7345TIP3    H243527   5.046   1.082  14.708  0.3668  0.4189 -2.2553
 7346TIP3   OH243528   6.787   1.330   4.202  0.3579  0.1772  0.3446
 7346TIP3    H143529   6.783   1.425   4.192  0.5130  0.4179  2.1852
 7346TIP3    H243530   6.728   1.296   4.135 -1.3401  1.6873  0.9897
 7347TIP3   OH243531   4.886   2.412   3.890 -0.4869 -0.3404  0.4141
 7347TIP3    H143532   4.936   2.332   3.873  0.4120 -0.2809  2.4634
 7347TIP3    H243533   4.952   2.481   3.893 -0.9707  0.1060  0.9089
 7348TIP3   OH243534   2.289   4.565   3.870  0.0127  0.2511 -0.1277
 7348TIP3    H143535   2.384   4.555   3.872 -0.0728 -0.6922  1.5076
 7348TIP3    H243536   2.273   4.652   3.906  0.2674  0.2296  0.0422
 7349TIP3   OH243537   6.220   4.515  16.235 -0.6553  0.4658 -0.3266
 7349TIP3    H143538   6.186   4.586  16.289 -0.2776 -0.8045  1.7024
 7349TIP3    H243539   6.183   4.436  16.275 -0.2641 -0.5525 -1.9039
 7350TIP3   OH243540   4.938   3.580  11.015 -0.3758 -0.1025  0.4997
 7350TIP3    H143541   5.017   3.563  10.964 -1.0864  1.3515 -1.1774
 7350TIP3    H243542   4.867   3.542  10.964 -1.2613  2.5108 -0.3858
 7351TIP3   OH243543   5.085   0.190   2.057  0.1176  0.3998 -0.0362
 7351TIP3    H143544   5.032   0.110   2.052  2.1907 -1.0523  0.0507
 7351TIP3    H243545   5.127   0.186   2.143  1.8350  0.4716 -0.8209
 7352TIP3   OH243546   5.789   2.426  16.656 -0.8359 -0.4196  0.6226
 7352TIP3    H143547   5.826   2.431  16.744  1.8538 -1.0216 -0.3904
 7352TIP3    H243548   5.714   2.367  16.665 -0.2537 -0.9648  2.3874
 7353TIP3   OH243549   0.554   0.819  13.059  0.2460  0.2358 -0.3668
 7353TIP3    H143550   0.626   0.755  13.055  0.1717  0.2101 -2.0792
 7353TIP3    H243551   0.553   0.859  12.972  0.1671  2.4663  0.5818
 7354TIP3   OH243552   3.539   2.304  12.955 -0.0813  0.8420  0.0179
 7354TIP3    H143553   3.464   2.310  13.014 -0.4715  2.1972 -0.5796
 7354TIP3    H243554   3.586   2.386  12.968  1.2121  0.1050  0.2373
 7355TIP3   OH243555   0.903   6.815  16.866 -0.1391 -0.0972 -0.0231
 7355TIP3    H143556   0.837   6.844  16.803 -0.3203  0.2790  0.3376
 7355TIP3    H243557   0.986   6.825  16.820 -0.4237 -2.2813 -1.1574
 7356TIP3   OH243558   3.687   0.368  11.073  0.6297  0.4910  0.0935
 7356TIP3    H143559   3.730   0.450  11.094 -1.1842  1.0478  1.9416
 7356TIP3    H243560   3.752   0.301  11.093  1.4756  1.3947  0.4386
 7357TIP3   OH243561   0.550   5.383   4.958  0.1991  0.0513 -0.1238
 7357TIP3    H143562   0.642   5.366   4.937  0.3169  0.4012  0.1040
 7357TIP3    H243563   0.501   5.338   4.890  0.5535  0.5342 -0.7052
 7358TIP3   OH243564   4.748   0.574  15.064  0.0628  0.0270  0.3192
 7358TIP3    H143565   4.655   0.594  15.064  0.2323  0.8700  0.2144
 7358TIP3    H243566   4.755   0.491  15.111 -0.3671  1.8932  4.0263
 7359TIP3   OH243567   3.442   3.381   0.559 -0.0074  0.2523 -0.2852
 7359TIP3    H143568   3.396   3.402   0.640 -0.4723 -0.7016 -0.2949
 7359TIP3    H243569   3.373   3.376   0.492  0.1104 -0.9732 -0.3390
 7360TIP3   OH243570   5.608   3.319  15.681  0.2616  0.5352 -0.2325
 7360TIP3    H143571   5.522   3.355  15.658  0.5055  0.3691 -1.5335
 7360TIP3    H243572   5.647   3.383  15.739 -0.1282  1.3749 -0.8786
 7361TIP3   OH243573   1.031   2.646  17.001 -0.0112  0.1262 -0.4616
 7361TIP3    H143574   1.067   2.568  17.041  0.6871  0.8300  0.3209
 7361TIP3    H243575   0.962   2.614  16.943  1.5294 -1.2042 -1.6305
 7362TIP3   OH243576   4.508   5.632  15.939  0.6129 -0.2202 -0.1723
 7362TIP3    H143577   4.520   5.624  16.034  2.7785  1.5106 -0.2028
 7362TIP3    H243578   4.439   5.569  15.918  0.4696 -1.0785  2.4488
 7363TIP3   OH243579   1.104   5.203  11.962 -0.6659 -0.2383 -0.0638
 7363TIP3    H143580   1.144   5.199  11.875 -0.1815  1.3894  0.0322
 7363TIP3    H243581   1.168   5.161  12.020 -0.5033 -0.4024 -0.3631
 7364TIP3   OH243582   2.752   2.730   4.541  0.4088  0.2526  0.2832
 7364TIP3    H143583   2.659   2.719   4.562  0.2842  1.6376  0.4984
 7364TIP3    H243584   2.785   2.787   4.610  1.1510  0.7336 -0.4622
 7365TIP3   OH243585   2.410   4.507  16.459 -0.5378  0.1795  0.4649
 7365TIP3    H143586   2.409   4.539  16.368  0.3417  1.2777  0.8168
 7365TIP3    H243587   2.323   4.467  16.471 -1.2239  1.3382 -0.4105
 7366TIP3   OH243588   6.664   3.288   2.697  0.5871 -0.5330  0.7185
 7366TIP3    H143589   6.626   3.253   2.778  0.8347 -0.4816  0.8583
 7366TIP3    H243590   6.642   3.381   2.699 -0.6927 -0.8019 -0.0044
 7367TIP3   OH243591   6.034   5.669  11.715  0.0356 -0.1625  0.2311
 7367TIP3    H143592   6.099   5.623  11.662  0.7244  0.9386  0.0923
 7367TIP3    H243593   5.977   5.599  11.749 -1.9629 -0.8094 -3.8466
 7368TIP3   OH243594   3.387   5.550  15.907 -0.0645 -0.4621 -0.1880
 7368TIP3    H143595   3.446   5.486  15.947 -0.9865 -0.8720  0.5492
 7368TIP3    H243596   3.441   5.594  15.842  0.3442 -2.6719 -1.4620
 7369TIP3   OH243597   0.654   3.209   3.186  0.3159  0.4423  0.0875
 7369TIP3    H143598   0.750   3.209   3.179  0.3020 -0.3518 -0.2196
 7369TIP3    H243599   0.624   3.183   3.099 -0.2261  1.8497 -0.1768
 7370TIP3   OH243600   4.024   0.712  15.204 -0.5542  0.0064  0.3533
 7370TIP3    H143601   4.092   0.703  15.137  1.5759 -1.1792  2.4876
 7370TIP3    H243602   3.960   0.772  15.166  1.4326  0.8227 -1.9910
 7371TIP3   OH243603   0.202   6.218  15.899 -0.5786  0.0881 -0.0617
 7371TIP3    H143604   0.223   6.138  15.946  0.3915  0.8790  0.8878
 7371TIP3    H243605   0.106   6.217  15.891 -0.5754 -1.1711 -0.1221
 7372TIP3   OH243606   6.231   2.778   0.407 -0.2192  0.4324  0.5144
 7372TIP3    H143607   6.281   2.701   0.377  0.0831  1.3207 -1.4463
 7372TIP3    H243608   6.177   2.745   0.478  0.8559 -1.3014  0.5990
 7373TIP3   OH243609   3.308   4.936   4.376  0.3718  0.3012  0.1034
 7373TIP3    H143610   3.394   4.971   4.401  1.0850  0.5930 -2.4556
 7373TIP3    H243611   3.328   4.863   4.318 -0.9848  1.9490 -2.6767
 7374TIP3   OH243612   2.791   3.456   2.788  0.0358 -0.0468  0.1725
 7374TIP3    H143613   2.878   3.427   2.761  0.4200  0.3444  0.9812
 7374TIP3    H243614   2.763   3.391   2.852  0.1598  0.3841  0.6681
 7375TIP3   OH243615   0.066   3.564   2.665  0.2278  0.5844  0.3880
 7375TIP3    H143616  -0.029   3.553   2.670  0.1215  0.9251 -0.5882
 7375TIP3    H243617   0.081   3.653   2.699  0.1136  0.8070 -0.1350
 7376TIP3   OH243618   4.831   3.217  16.632 -0.4267 -0.0356 -0.2517
 7376TIP3    H143619   4.749   3.193  16.675 -0.2172  0.0317  0.1905
 7376TIP3    H243620   4.892   3.149  16.659 -0.1061  0.4049  0.1372
 7377TIP3   OH243621   0.720   0.672  11.094 -0.0615 -0.3240 -0.3416
 7377TIP3    H143622   0.734   0.578  11.093 -2.9505 -0.8568 -1.2831
 7377TIP3    H243623   0.775   0.704  11.165  0.6833 -2.7646  0.2775
 7378TIP3   OH243624   1.928   4.117   2.238  0.3232 -1.0479 -0.0349
 7378TIP3    H143625   2.012   4.120   2.192 -0.0710  0.3286 -0.7294
 7378TIP3    H243626   1.880   4.046   2.196  0.1676 -0.1570 -1.4497
 7379TIP3   OH243627   5.240   5.603  15.621 -0.1026  0.0714  0.3642
 7379TIP3    H143628   5.282   5.533  15.571 -1.8719 -0.7675 -0.0336
 7379TIP3    H243629   5.231   5.675  15.558 -1.0909 -0.4966 -0.1772
 7380TIP3   OH243630   1.485   1.346  14.582 -0.8318  0.0713 -0.0073
 7380TIP3    H143631   1.412   1.391  14.624  0.8613  1.6083  1.4646
 7380TIP3    H243632   1.501   1.269  14.636 -1.2592 -0.2259 -0.2876
 7381TIP3   OH243633   0.240   6.643   1.701 -0.2153 -0.5682 -0.5782
 7381TIP3    H143634   0.227   6.600   1.617  1.6710  1.6333 -2.1390
 7381TIP3    H243635   0.335   6.652   1.710 -0.3146 -1.1643  2.0786
 7382TIP3   OH243636   3.099   2.920  15.554 -1.1223 -0.0622 -0.3967
 7382TIP3    H143637   3.191   2.919  15.582 -1.0928 -1.2688 -0.4546
 7382TIP3    H243638   3.087   3.005  15.511 -0.5054  0.8259  1.1064
 7383TIP3   OH243639   5.901   4.867  15.228 -0.3278 -0.6745  0.1618
 7383TIP3    H143640   5.897   4.903  15.317  0.3507  0.1932 -0.1459
 7383TIP3    H243641   5.987   4.824  15.224 -1.4557 -3.2016  0.8162
 7384TIP3   OH243642   4.941   2.956  15.373 -0.2285  0.1727  0.1579
 7384TIP3    H143643   4.924   3.018  15.444  1.4714  1.3178 -0.3609
 7384TIP3    H243644   5.025   2.985  15.336 -1.0748 -0.3370 -2.3636
 7385TIP3   OH243645   6.773   2.331   0.733 -0.2452  0.1174 -0.2291
 7385TIP3    H143646   6.856   2.352   0.689 -0.7669  0.4865 -1.0650
 7385TIP3    H243647   6.796   2.323   0.826  0.5043  1.5584 -0.2614
 7386TIP3   OH243648   4.109   4.694  16.891 -0.1392  0.1871 -0.0936
 7386TIP3    H143649   4.113   4.679  16.797 -0.8863 -0.4214 -0.0462
 7386TIP3    H243650   4.091   4.787  16.901 -0.4804  0.1723 -0.5644
 7387TIP3   OH243651   1.536   6.468  15.452 -0.2170  0.3451 -0.0349
 7387TIP3    H143652   1.577   6.533  15.396 -1.6413  0.6858 -0.7385
 7387TIP3    H243653   1.582   6.386  15.432  0.2772  0.7539 -0.6030
 7388TIP3   OH243654   1.934   3.624  11.130 -0.4988 -0.1870 -0.0223
 7388TIP3    H143655   1.903   3.618  11.040  0.8962  0.4862 -0.5640
 7388TIP3    H243656   1.963   3.715  11.140 -3.1620  0.5900  1.9772
 7389TIP3   OH243657   4.243   5.172   1.948 -0.3734 -0.0462  0.1594
 7389TIP3    H143658   4.190   5.201   2.023 -0.2291 -0.0992  0.2823
 7389TIP3    H243659   4.315   5.235   1.944  1.0742 -1.5025  1.6703
 7390TIP3   OH243660   6.680   2.829   6.019  0.0723  1.0722 -0.4759
 7390TIP3    H143661   6.672   2.795   6.108  1.1971  1.0090 -0.3964
 7390TIP3    H243662   6.595   2.809   5.979 -0.3378  0.8273  0.4793
 7391TIP3   OH243663   2.787   6.097   2.477 -0.2695 -0.1901  0.1510
 7391TIP3    H143664   2.849   6.083   2.549  0.0257 -0.5044 -0.1673
 7391TIP3    H243665   2.840   6.131   2.405 -0.4561 -0.5016 -0.1379
 7392TIP3   OH243666   4.391   1.320  14.775 -0.0759  0.0684  0.4275
 7392TIP3    H143667   4.359   1.245  14.825 -2.1270 -0.2014 -1.1524
 7392TIP3    H243668   4.485   1.320  14.789 -0.2640 -1.5891  2.0792
 7393TIP3   OH243669   1.588   3.222  11.263 -0.0513 -0.4479  0.1770
 7393TIP3    H143670   1.644   3.292  11.228 -0.4021 -0.6922 -0.9139
 7393TIP3    H243671   1.596   3.231  11.358  0.6205  0.4989  0.0538
 7394TIP3   OH243672   3.185   3.840  11.393 -0.1535  0.5332 -0.3614
 7394TIP3    H143673   3.172   3.753  11.357  2.4818  0.2225 -0.7902
 7394TIP3    H243674   3.152   3.900  11.326  0.4492 -0.1271 -1.2670
 7395TIP3   OH243675   3.210   0.795  16.555 -0.1835  0.1909  0.2265
 7395TIP3    H143676   3.300   0.826  16.542 -0.0545 -0.2550 -0.0023
 7395TIP3    H243677   3.220   0.700  16.569 -0.6861 -0.0135 -0.7150
 7396TIP3   OH243678   3.018   4.782  11.620  0.0557 -0.2046 -0.3410
 7396TIP3    H143679   2.990   4.728  11.694 -2.6062  1.2428 -0.1739
 7396TIP3    H243680   2.983   4.738  11.543 -0.6418  0.3586 -0.3542
 7397TIP3   OH243681   5.846   3.627  15.469  0.2214  0.2034 -0.5934
 7397TIP3    H143682   5.847   3.703  15.527  0.4879 -0.2708  0.0469
 7397TIP3    H243683   5.872   3.554  15.526  0.4007 -0.2903 -1.2977
 7398TIP3   OH243684   4.236   3.575  16.729 -0.0247  0.3333  0.0371
 7398TIP3    H143685   4.171   3.617  16.673 -1.2514 -0.1933  1.0257
 7398TIP3    H243686   4.296   3.533  16.667  0.1980  1.9675 -0.9267
 7399TIP3   OH243687   2.817   5.214  10.751  0.0590 -0.3201  0.6856
 7399TIP3    H143688   2.846   5.296  10.711 -0.6697 -0.1814  0.4338
 7399TIP3    H243689   2.873   5.147  10.712 -0.7787 -0.2145 -0.7460
 7400TIP3   OH243690   2.940   5.422   2.744 -0.1872  0.0487 -0.1642
 7400TIP3    H143691   2.887   5.353   2.703  0.5011 -0.0052 -1.0054
 7400TIP3    H243692   2.883   5.460   2.811 -0.0139 -2.4190  1.4874
 7401TIP3   OH243693   0.268   1.388   2.685  0.1991 -0.3731  0.0308
 7401TIP3    H143694   0.250   1.296   2.665 -1.7949 -0.2848  1.2119
 7401TIP3    H243695   0.285   1.390   2.779  3.0868  0.1267 -0.3916
 7402TIP3   OH243696   5.264   3.621   3.242  0.0667  0.1544  0.3155
 7402TIP3    H143697   5.222   3.694   3.196 -1.2607  0.1941  1.5422
 7402TIP3    H243698   5.341   3.661   3.283  0.6505  0.3489 -0.9027
 7403TIP3   OH243699   4.182   4.763  13.824 -0.5100  0.3086 -0.4009
 7403TIP3    H143700   4.259   4.711  13.804 -0.0124  0.5583  0.7549
 7403TIP3    H243701   4.123   4.702  13.868  0.2480  0.7669  1.3405
 7404TIP3   OH243702   6.595   3.820  11.057 -0.1338 -0.3541  0.0851
 7404TIP3    H143703   6.584   3.888  10.991 -1.0334  0.1997  0.7862
 7404TIP3    H243704   6.658   3.759  11.018 -0.6332 -0.0390 -1.2688
 7405TIP3   OH243705   5.169   3.830  12.016 -0.9172 -0.4382 -0.4122
 7405TIP3    H143706   5.130   3.759  12.068 -1.3727 -0.6334 -1.0199
 7405TIP3    H243707   5.102   3.899  12.016 -0.8350 -0.3595 -0.5769
 7406TIP3   OH243708   1.969   6.089   1.181  0.2204  0.3270  0.0381
 7406TIP3    H143709   1.918   6.070   1.259  0.8245  1.7255  0.8222
 7406TIP3    H243710   2.030   6.016   1.173  0.8538  0.6685  1.5031
 7407TIP3   OH243711   4.633   2.538  16.492 -0.0762 -0.4747 -0.0211
 7407TIP3    H143712   4.655   2.631  16.501  1.8665 -1.0770  2.1330
 7407TIP3    H243713   4.665   2.515  16.405  1.5719  0.3658  0.3205
 7408TIP3   OH243714   4.149   1.822   2.379 -0.4007 -0.4423  0.3093
 7408TIP3    H143715   4.232   1.870   2.386  0.0055 -1.0537 -0.1449
 7408TIP3    H243716   4.143   1.773   2.462 -0.7005  0.2092  0.6732
 7409TIP3   OH243717   5.015   2.795   4.185 -0.3691  0.1331  0.4350
 7409TIP3    H143718   5.023   2.733   4.258  0.9444  0.0178  0.2238
 7409TIP3    H243719   5.041   2.879   4.222 -1.9528  0.5386  0.6679
 7410TIP3   OH243720   6.334   2.890   1.321 -0.3092  0.0176 -0.3796
 7410TIP3    H143721   6.309   2.857   1.234 -0.4558 -0.2288 -0.2460
 7410TIP3    H243722   6.256   2.874   1.375 -0.6104  1.1343 -0.4517
 7411TIP3   OH243723   0.385   2.471   1.075 -0.4424  0.0099 -0.1614
 7411TIP3    H143724   0.372   2.475   1.170 -0.1053 -2.2821  0.0471
 7411TIP3    H243725   0.460   2.412   1.064  0.2426  1.1299 -1.8330
 7412TIP3   OH243726   0.764   1.466  12.358 -0.2311  0.2964 -0.1626
 7412TIP3    H143727   0.765   1.558  12.385 -1.8252  0.0418  0.9442
 7412TIP3    H243728   0.763   1.417  12.441 -3.1614 -0.5780 -0.5691
 7413TIP3   OH243729   4.099   0.871  15.620  0.3842 -0.5951 -0.8262
 7413TIP3    H143730   4.161   0.849  15.689  1.1946  0.1283 -1.3037
 7413TIP3    H243731   4.060   0.954  15.648  0.0660 -0.7454 -0.8166
 7414TIP3   OH243732   6.517   1.845  12.017 -0.2280 -0.0426 -0.2383
 7414TIP3    H143733   6.562   1.771  11.976 -1.4508 -0.1669 -1.4253
 7414TIP3    H243734   6.507   1.909  11.947 -4.2651 -1.1204 -0.8728
 7415TIP3   OH243735   2.611   6.171   3.743 -0.2969 -0.3367 -0.4034
 7415TIP3    H143736   2.674   6.226   3.791  1.0334 -1.3465 -0.9301
 7415TIP3    H243737   2.566   6.121   3.810  2.0132 -2.2268 -0.1264
 7416TIP3   OH243738   5.056   1.307  13.556  0.0231  0.4868  0.9338
 7416TIP3    H143739   5.034   1.273  13.470 -0.3467  0.0951  1.1792
 7416TIP3    H243740   5.049   1.232  13.615 -2.9678  1.3389  1.8620
 7417TIP3   OH243741   3.599   4.196   4.903  0.5097  0.4693  0.1612
 7417TIP3    H143742   3.665   4.256   4.938  0.1939  0.9736 -0.1063
 7417TIP3    H243743   3.608   4.117   4.957 -0.9076  1.6895  2.3415
 7418TIP3   OH243744   2.084   4.007   3.193 -0.0994  0.4663 -0.0200
 7418TIP3    H143745   2.133   3.999   3.111  1.0787 -0.6246  0.7459
 7418TIP3    H243746   2.049   4.096   3.192  3.4955  2.0452  0.2028
 7419TIP3   OH243747   5.434   3.688   2.899 -0.5201  0.5558  0.2036
 7419TIP3    H143748   5.481   3.633   2.836  0.1716 -0.5592  1.6420
 7419TIP3    H243749   5.502   3.734   2.947 -0.7853 -1.0052  2.2449
 7420TIP3   OH243750   3.772   1.240  14.730  0.5953 -0.0005  0.2574
 7420TIP3    H143751   3.782   1.326  14.769 -1.0501 -0.0718  0.8714
 7420TIP3    H243752   3.692   1.245  14.678  0.6031 -1.0949  0.1061
 7421TIP3   OH243753   5.440   2.555  14.744  0.2049 -0.1300  0.2101
 7421TIP3    H143754   5.385   2.568  14.821 -0.2782 -3.0165  0.4729
 7421TIP3    H243755   5.485   2.639  14.731 -1.1456  1.0150  2.4521
 7422TIP3   OH243756   1.557   2.213  10.344  0.0238  0.2889  1.5609
 7422TIP3    H143757   1.580   2.303  10.366  0.2315  0.3150  1.2498
 7422TIP3    H243758   1.469   2.200  10.380 -1.9858  2.0506 -2.1290
 7423TIP3   OH243759   3.904   5.613   3.390 -0.0048  0.0594  0.1564
 7423TIP3    H143760   3.821   5.649   3.359  0.2778 -0.4718 -1.3552
 7423TIP3    H243761   3.880   5.533   3.437 -0.5711  1.6884  2.8252
 7424TIP3   OH243762   5.864   0.474  15.897 -0.3142 -0.2958 -0.1588
 7424TIP3    H143763   5.891   0.399  15.950  2.3864 -0.3416 -1.4055
 7424TIP3    H243764   5.855   0.546  15.959  1.6468 -0.6066  0.5675
 7425TIP3   OH243765   6.686   3.211   4.734 -0.5798  0.3782  0.2790
 7425TIP3    H143766   6.628   3.255   4.671  1.5349 -0.9192 -2.7982
 7425TIP3    H243767   6.669   3.118   4.721  0.2918  0.0644  1.2860
 7426TIP3   OH243768   3.493   3.235   5.399  1.1629 -0.1841 -0.0416
 7426TIP3    H143769   3.467   3.257   5.488  0.0056  1.5574 -0.7343
 7426TIP3    H243770   3.442   3.157   5.377  1.1309 -0.3682  0.6751
 7427TIP3   OH243771   0.448   0.375   2.441  0.1741 -0.3063 -0.7759
 7427TIP3    H143772   0.409   0.367   2.354  1.5156 -1.9037 -1.2886
 7427TIP3    H243773   0.541   0.357   2.427  0.4483 -0.3875  0.9573
 7428TIP3   OH243774   2.250   3.169  11.334 -0.3134 -0.0522 -0.0809
 7428TIP3    H143775   2.278   3.259  11.319 -0.6035 -0.1182 -1.0569
 7428TIP3    H243776   2.167   3.178  11.382 -0.9973  0.2389 -1.2859
 7429TIP3   OH243777   0.190   4.332  12.213 -0.1125  0.0640 -0.0072
 7429TIP3    H143778   0.111   4.350  12.264 -2.1251 -2.3893 -2.0419
 7429TIP3    H243779   0.238   4.267  12.265 -0.8239 -0.4714 -0.0101
 7430TIP3   OH243780   0.638   6.034   5.237 -0.1119  0.0540  0.1195
 7430TIP3    H143781   0.704   6.102   5.244  0.7826 -0.7005 -0.6946
 7430TIP3    H243782   0.577   6.066   5.170  0.0900  0.2278  0.0172
 7431TIP3   OH243783   0.452   2.684  11.808  0.1540  0.3513  1.0094
 7431TIP3    H143784   0.452   2.732  11.891  0.0922  1.1735  0.5432
 7431TIP3    H243785   0.384   2.728  11.756  0.7970  0.4050  0.2092
 7432TIP3   OH243786   0.973   3.099   5.638  0.0630  0.2410 -0.2556
 7432TIP3    H143787   1.047   3.045   5.664  2.0267  2.9482  0.1320
 7432TIP3    H243788   0.938   3.135   5.720  0.3026  1.3909 -0.6331
 7433TIP3   OH243789   5.732   0.766   5.614  0.5052  0.8724 -0.7670
 7433TIP3    H143790   5.641   0.760   5.587 -0.3919 -0.5817  2.1077
 7433TIP3    H243791   5.728   0.792   5.706  3.0178  1.2214 -0.6791
 7434TIP3   OH243792   2.591   5.316  15.053 -0.0783  0.0819  0.2337
 7434TIP3    H143793   2.663   5.294  14.994 -1.2930  0.2806 -1.3778
 7434TIP3    H243794   2.555   5.397  15.018  0.0713  1.0581  2.1492
 7435TIP3   OH243795   2.964   3.779   3.599  0.3442 -0.0983 -0.2947
 7435TIP3    H143796   2.949   3.697   3.552  1.6434 -1.4759  1.5573
 7435TIP3    H243797   3.058   3.780   3.618  0.2612  1.5503  0.1915
 7436TIP3   OH243798   2.388   2.608  15.654 -0.0291  0.4035 -0.3066
 7436TIP3    H143799   2.476   2.571  15.662 -0.1773 -0.4397 -2.0285
 7436TIP3    H243800   2.354   2.571  15.573 -1.6050  1.5042 -0.1981
 7437TIP3   OH243801   5.341   6.069   1.550  1.1524 -0.7177  0.3145
 7437TIP3    H143802   5.330   6.031   1.463 -2.0626  3.7627 -1.6126
 7437TIP3    H243803   5.423   6.117   1.545 -1.0825  3.4027 -2.3336
 7438TIP3   OH243804   0.579   1.215   1.614  0.1021  0.2139  0.2241
 7438TIP3    H143805   0.505   1.263   1.651  0.3371  2.6645 -2.1658
 7438TIP3    H243806   0.558   1.123   1.628 -3.2143  0.8199 -0.0704
 7439TIP3   OH243807   4.247   1.976   3.411  0.2369  0.0571  0.2967
 7439TIP3    H143808   4.266   2.067   3.389  1.0827 -0.6794 -2.4788
 7439TIP3    H243809   4.160   1.978   3.450 -1.1609  1.7967 -2.5981
 7440TIP3   OH243810   6.243   1.276  15.471 -0.4065 -0.7663  0.2503
 7440TIP3    H143811   6.197   1.193  15.470 -0.0684 -0.9645  0.6534
 7440TIP3    H243812   6.273   1.289  15.381 -0.4426 -1.0880  0.1923
 7441TIP3   OH243813   6.605   5.212  12.441  0.0476  0.0675  0.1835
 7441TIP3    H143814   6.611   5.192  12.534 -0.3492 -1.8733 -0.1580
 7441TIP3    H243815   6.511   5.205  12.421  0.2248 -0.3916 -0.5194
 7442TIP3   OH243816   3.230   4.449   5.022  0.7170  0.2173  0.4048
 7442TIP3    H143817   3.322   4.467   5.004  0.6822 -0.7083 -0.8084
 7442TIP3    H243818   3.197   4.407   4.943 -0.5700 -0.1472  1.0940
 7443TIP3   OH243819   0.183   1.802  13.544 -0.2180 -0.2657  0.1629
 7443TIP3    H143820   0.148   1.867  13.605 -0.8274 -1.9407  1.7005
 7443TIP3    H243821   0.124   1.727  13.553  0.9132 -1.3345 -0.9544
 7444TIP3   OH243822   0.942   4.357  11.129 -0.0179  0.1894 -0.3191
 7444TIP3    H143823   0.966   4.310  11.049  0.2272  0.4195 -0.3827
 7444TIP3    H243824   0.952   4.450  11.106 -1.3109  0.3085 -0.4595
 7445TIP3   OH243825   0.271   2.146  16.181  0.0515  0.0517 -0.4152
 7445TIP3    H143826   0.211   2.134  16.254  0.5114  3.6913  0.7366
 7445TIP3    H243827   0.342   2.200  16.216  2.6083 -1.6763 -2.4902
 7446TIP3   OH243828   2.336   1.552  16.607  0.3927 -0.3362  0.1717
 7446TIP3    H143829   2.410   1.609  16.585 -0.2520  0.0147 -1.1360
 7446TIP3    H243830   2.261   1.611  16.613  0.0659 -0.7951  0.7556
 7447TIP3   OH243831   4.554   2.422  16.159 -0.5386  0.1386 -0.3094
 7447TIP3    H143832   4.613   2.360  16.202 -0.7057  0.1401 -0.0744
 7447TIP3    H243833   4.503   2.460  16.231 -1.2980 -0.3537 -0.5776
 7448TIP3   OH243834   6.468   6.720   2.047  0.1018  0.1394  0.1772
 7448TIP3    H143835   6.418   6.795   2.078  1.3035  0.9716  0.2039
 7448TIP3    H243836   6.441   6.647   2.103  0.0577  0.9142  1.1913
 7449TIP3   OH243837   1.550   3.245   4.088 -0.2901 -0.2874 -0.5640
 7449TIP3    H143838   1.472   3.194   4.067 -0.6896  0.3542 -0.6635
 7449TIP3    H243839   1.525   3.296   4.165  1.3894 -3.2018  2.1706
 7450TIP3   OH243840   4.644   1.294  14.724 -0.0655 -0.8772  0.3435
 7450TIP3    H143841   4.719   1.351  14.742  0.3664 -1.9971  2.4692
 7450TIP3    H243842   4.676   1.235  14.656  0.6317 -0.6470  0.4558
 7451TIP3   OH243843   6.322   3.872  16.130  0.1148  0.0876 -0.4425
 7451TIP3    H143844   6.324   3.962  16.098  1.6458  0.5966  0.9851
 7451TIP3    H243845   6.229   3.856  16.149 -0.0880  1.6480  0.0539
 7452TIP3   OH243846   0.101   6.313  12.424  0.1731 -0.0034 -0.1767
 7452TIP3    H143847   0.008   6.337  12.434  0.2638 -0.1290  1.0838
 7452TIP3    H243848   0.098   6.224  12.389 -0.1745 -0.0601 -0.0088
 7453TIP3   OH243849   5.484   6.392   6.487 -0.2627 -0.0920 -0.6141
 7453TIP3    H143850   5.397   6.407   6.451 -1.2709 -2.9177  0.3797
 7453TIP3    H243851   5.482   6.433   6.574  0.0169  1.2578 -1.2167
 7454TIP3   OH243852   4.453   4.226  16.389  0.0027 -0.2687 -0.3559
 7454TIP3    H143853   4.518   4.247  16.456  1.1627 -1.2588 -1.1161
 7454TIP3    H243854   4.436   4.309  16.344 -1.5173  0.6210  1.7189
 7455TIP3   OH243855   2.741   6.749  12.218 -0.1370  0.0532  0.2883
 7455TIP3    H143856   2.830   6.712  12.218 -0.1103  0.0726  1.5638
 7455TIP3    H243857   2.688   6.683  12.262 -0.8214 -0.0852 -0.7333
 7456TIP3   OH243858   6.049   5.628   2.424 -0.0619  0.0419 -0.3233
 7456TIP3    H143859   6.135   5.642   2.385  1.3849 -0.6844  2.3895
 7456TIP3    H243860   6.022   5.542   2.391  0.8300 -0.2954 -0.2016
 7457TIP3   OH243861   0.408   1.505  16.505  0.2002 -0.0553  0.5518
 7457TIP3    H143862   0.329   1.527  16.555 -1.2441 -0.5885 -1.3908
 7457TIP3    H243863   0.375   1.468  16.423  2.4878  0.0129 -0.4644
 7458TIP3   OH243864   0.556   5.872  11.679  0.4103 -0.0543  0.6096
 7458TIP3    H143865   0.642   5.860  11.719  0.9621  1.2792 -0.1076
 7458TIP3    H243866   0.539   5.965  11.686 -2.3129 -0.6199  3.2890
 7459TIP3   OH243867   4.840   2.943   0.260  0.2157  0.1557 -0.2637
 7459TIP3    H143868   4.805   2.888   0.330  2.0346 -1.1250 -0.2936
 7459TIP3    H243869   4.921   2.979   0.296 -0.0667  1.4644 -0.8786
 7460TIP3   OH243870   3.429   5.337   4.213 -0.5480 -0.2465  0.2131
 7460TIP3    H143871   3.499   5.345   4.149 -0.2540 -0.5877  0.4906
 7460TIP3    H243872   3.348   5.343   4.161 -0.3116 -0.8683 -0.2314
 7461TIP3   OH243873   5.428   0.398   1.208 -0.1187 -0.1983 -0.5616
 7461TIP3    H143874   5.391   0.417   1.294  0.8154  0.6502 -0.3286
 7461TIP3    H243875   5.355   0.407   1.147 -0.7432 -0.6153  0.1091
 7462TIP3   OH243876   6.647   6.382   6.324 -0.9282 -0.2992 -0.4821
 7462TIP3    H143877   6.688   6.295   6.319 -1.8264 -0.6404 -2.4892
 7462TIP3    H243878   6.588   6.376   6.399  1.7092 -0.1534  1.7985
 7463TIP3   OH243879   4.210   3.994  12.625 -0.4484  0.1721 -0.0723
 7463TIP3    H143880   4.185   3.978  12.716 -1.3871  1.2612 -0.1134
 7463TIP3    H243881   4.259   3.916  12.600  0.7569  0.2930  1.6865
 7464TIP3   OH243882   2.262   6.268  13.798 -0.3320  0.6209 -0.0404
 7464TIP3    H143883   2.334   6.264  13.735 -0.5240  0.3508 -0.2455
 7464TIP3    H243884   2.252   6.362  13.816  0.5766  0.6155  0.5850
 7465TIP3   OH243885   5.597   3.801  12.427  0.5220 -0.1306 -0.7534
 7465TIP3    H143886   5.599   3.706  12.424 -0.0628 -0.1351 -1.0974
 7465TIP3    H243887   5.642   3.829  12.348  1.3514 -0.1122 -0.2814
 7466TIP3   OH243888   5.745   5.440  14.176  0.4999  0.5424 -0.5282
 7466TIP3    H143889   5.694   5.380  14.230  2.4901 -0.7164  0.0851
 7466TIP3    H243890   5.743   5.402  14.088  1.4259 -0.2581 -0.2246
 7467TIP3   OH243891   2.278   2.963  14.913 -0.0853  0.0915  0.5664
 7467TIP3    H143892   2.334   2.987  14.987 -0.1822 -0.8683  0.9750
 7467TIP3    H243893   2.206   2.914  14.953 -0.1591 -0.4101 -0.1631
 7468TIP3   OH243894   5.932   3.459   3.451 -0.1243 -0.1111  0.1573
 7468TIP3    H143895   6.025   3.446   3.429 -0.4356 -2.4304 -0.0607
 7468TIP3    H243896   5.909   3.542   3.409  1.6106  0.0377 -0.5936
 7469TIP3   OH243897   1.491   5.567  15.493 -0.6623 -0.0097  0.3373
 7469TIP3    H143898   1.475   5.649  15.446  1.0383  0.3951  0.3990
 7469TIP3    H243899   1.509   5.594  15.583  2.0620 -0.1431 -0.0563
 7470TIP3   OH243900   1.538   0.704   2.345 -0.0753  0.0017 -0.2510
 7470TIP3    H143901   1.463   0.650   2.319 -0.3961  0.7472 -0.9022
 7470TIP3    H243902   1.505   0.793   2.345  1.1014  0.4701 -1.6591
 7471TIP3   OH243903   4.727   0.465  16.363 -0.0406  0.2314 -0.4310
 7471TIP3    H143904   4.746   0.455  16.270 -1.1794  0.9657 -0.7608
 7471TIP3    H243905   4.667   0.393  16.384 -1.0581  0.9891 -0.6633
 7472TIP3   OH243906   4.629   5.225  13.336  0.3265  0.0764 -0.2587
 7472TIP3    H143907   4.671   5.173  13.405 -2.2738  0.3772  1.7160
 7472TIP3    H243908   4.643   5.175  13.256  1.5133 -1.4919  0.8672
 7473TIP3   OH243909   2.430   5.217  13.586  0.3614  0.5559  0.4865
 7473TIP3    H143910   2.457   5.143  13.641  2.8473  0.8692 -0.1853
 7473TIP3    H243911   2.470   5.293  13.628  1.1542  0.9734 -0.9583
 7474TIP3   OH243912   2.605   2.887  14.324  0.3559 -0.3412  0.1445
 7474TIP3    H143913   2.600   2.894  14.229 -0.2203  1.3748  0.2718
 7474TIP3    H243914   2.697   2.865  14.342  0.1366 -2.2764 -0.8433
 7475TIP3   OH243915   3.584   6.499   5.765 -0.6995 -0.2979 -0.2564
 7475TIP3    H143916   3.625   6.415   5.789 -0.6335  0.2006  1.4496
 7475TIP3    H243917   3.500   6.498   5.809 -0.3235  0.9040  0.5305
 7476TIP3   OH243918   6.074   3.068  12.808 -0.0766  0.1661 -0.2255
 7476TIP3    H143919   6.169   3.058  12.798  0.0412  1.2925 -0.3702
 7476TIP3    H243920   6.053   3.145  12.756 -1.3900 -1.1785 -1.7973
 7477TIP3   OH243921   6.810   6.794   2.342  0.0651 -0.2653  0.2415
 7477TIP3    H143922   6.813   6.713   2.392  1.5604 -0.3693  0.0284
 7477TIP3    H243923   6.722   6.796   2.305  0.5350 -2.7143 -1.2191
 7478TIP3   OH243924   4.024   1.927  14.864 -0.1166  0.0929 -0.3562
 7478TIP3    H143925   4.004   1.919  14.957  0.5522 -0.1280 -0.2208
 7478TIP3    H243926   3.955   1.878  14.820 -0.4920  0.2830  0.0166
 7479TIP3   OH243927   3.808   0.082   4.162  0.6327  0.5141  0.2974
 7479TIP3    H143928   3.842   0.154   4.109 -1.0730  0.9722 -0.2161
 7479TIP3    H243929   3.875   0.069   4.229  1.9990  1.0974 -0.9081
 7480TIP3   OH243930   6.376   2.123  11.026  0.3946  0.1500  0.2863
 7480TIP3    H143931   6.388   2.171  10.944  0.0381  0.0247  0.1570
 7480TIP3    H243932   6.364   2.032  10.998  0.5455  0.0647  0.4980
 7481TIP3   OH243933   5.362   5.868  15.009 -0.3076 -0.0357 -0.1392
 7481TIP3    H143934   5.395   5.950  14.971  2.1145 -0.5732  0.6708
 7481TIP3    H243935   5.271   5.887  15.031  0.8038  3.3133  2.3064
 7482TIP3   OH243936   6.669   4.487   1.197 -0.1836 -0.0679  0.2975
 7482TIP3    H143937   6.763   4.479   1.185 -0.0040  0.6385  1.1225
 7482TIP3    H243938   6.644   4.407   1.245  0.0234 -0.1707  0.2326
 7483TIP3   OH243939   0.574   3.062  13.860  0.5029  0.0605  0.1517
 7483TIP3    H143940   0.523   2.990  13.897 -1.3416  1.6713  0.9988
 7483TIP3    H243941   0.617   3.102  13.936 -0.7113  1.4428  0.1709
 7484TIP3   OH243942   6.809   3.701  13.777 -0.7662  0.2838  0.1611
 7484TIP3    H143943   6.875   3.708  13.846 -0.9019  1.6514  0.1740
 7484TIP3    H243944   6.856   3.720  13.697 -0.2615 -2.7483 -0.4134
 7485TIP3   OH243945   2.183   3.461   3.677  0.4658 -0.2050  0.3831
 7485TIP3    H143946   2.197   3.367   3.665  2.5353 -0.2778  2.6643
 7485TIP3    H243947   2.269   3.500   3.661 -0.6283  1.5135 -1.7386
 7486TIP3   OH243948   5.652   2.376   0.476 -0.4926  0.0859  0.5457
 7486TIP3    H143949   5.717   2.334   0.419 -0.9355  0.1605 -0.0192
 7486TIP3    H243950   5.698   2.450   0.516  0.0632 -0.4586  0.9343
 7487TIP3   OH243951   5.502   0.430  13.012  0.0900 -0.4754 -0.2279
 7487TIP3    H143952   5.588   0.408  12.977 -0.7830 -1.4758 -1.9029
 7487TIP3    H243953   5.462   0.484  12.944 -0.8027 -0.4706  0.2799
 7488TIP3   OH243954   6.377   2.443   6.039  0.4420  0.1937 -0.3748
 7488TIP3    H143955   6.294   2.481   6.010  0.2688  1.9554  2.1084
 7488TIP3    H243956   6.352   2.361   6.081 -0.1531  0.9543  0.8045
 7489TIP3   OH243957   3.753   5.885   5.451 -0.1662  0.0456 -0.1337
 7489TIP3    H143958   3.780   5.968   5.491  0.2089 -0.3791  0.5125
 7489TIP3    H243959   3.701   5.911   5.375  0.7290  0.8682 -0.4732
 7490TIP3   OH243960   4.207   6.250  16.404  0.1655  0.5853 -0.1584
 7490TIP3    H143961   4.236   6.340  16.391  1.6049  0.2602  0.5126
 7490TIP3    H243962   4.276   6.211  16.459 -0.0681 -1.1070 -1.0029
 7491TIP3   OH243963   1.795   3.790  14.543 -0.2630  0.7377  0.1199
 7491TIP3    H143964   1.713   3.778  14.590 -0.3962 -2.5028 -0.7190
 7491TIP3    H243965   1.855   3.726  14.582  0.9166  0.9312 -1.2928
 7492TIP3   OH243966   6.427   4.789   2.314 -0.3634  0.3725 -0.1090
 7492TIP3    H143967   6.460   4.866   2.360 -0.1015 -0.4491  1.1222
 7492TIP3    H243968   6.332   4.792   2.327 -0.2103 -0.4663  1.5623
 7493TIP3   OH243969   0.688   0.795  12.413  0.0421  0.1976 -0.2144
 7493TIP3    H143970   0.759   0.840  12.368  1.4736 -0.5375  1.2134
 7493TIP3    H243971   0.615   0.798  12.351  1.4820  0.4414 -1.9871
 7494TIP3   OH243972   6.157   0.917  14.770 -0.3268  0.2200  0.0849
 7494TIP3    H143973   6.216   0.976  14.724  1.6273 -0.4967  1.5221
 7494TIP3    H243974   6.124   0.858  14.701  0.1546  1.0247 -0.8568
 7495TIP3   OH243975   1.332   3.185  12.571 -0.4653  0.1090 -0.3132
 7495TIP3    H143976   1.365   3.274  12.560 -1.5723  0.6553  0.5522
 7495TIP3    H243977   1.288   3.165  12.489  0.2609  0.1370 -0.7174
 7496TIP3   OH243978   6.748   3.102   6.052 -0.0799  0.1489 -0.4342
 7496TIP3    H143979   6.784   3.117   5.965 -1.0232  0.8744 -0.7209
 7496TIP3    H243980   6.740   3.007   6.059  3.2358 -0.1905  0.2483
 7497TIP3   OH243981   0.700   2.814  14.529 -0.4501 -0.2697 -0.6605
 7497TIP3    H143982   0.716   2.720  14.532 -1.2709 -0.3969  0.5891
 7497TIP3    H243983   0.782   2.854  14.556  0.1686 -0.5703 -2.0081
 7498TIP3   OH243984   4.634   4.005   1.466 -0.1390  0.3399  0.1938
 7498TIP3    H143985   4.623   3.919   1.507 -0.9032 -0.7548 -2.1257
 7498TIP3    H243986   4.634   4.067   1.539  0.3058 -1.5967  1.9292
 7499TIP3   OH243987   4.893   5.271   5.241 -0.1744  0.4934 -0.5005
 7499TIP3    H143988   4.848   5.251   5.322  1.2886 -2.3933 -0.2529
 7499TIP3    H243989   4.872   5.197   5.183  1.0869  1.0344 -1.7090
 7500TIP3   OH243990   1.888   0.954   0.240  0.3759  0.7194 -0.0398
 7500TIP3    H143991   1.819   0.889   0.253 -1.1035  1.7133 -2.2964
 7500TIP3    H243992   1.853   1.034   0.280  0.6803  0.9578 -0.2478
 7501TIP3   OH243993   4.438   4.039   5.178 -0.3514  0.0752  0.2482
 7501TIP3    H143994   4.465   4.000   5.260 -0.0525 -2.2805 -0.8968
 7501TIP3    H243995   4.513   4.027   5.119 -0.8917  0.9015 -0.6499
 7502TIP3   OH243996   4.821   1.900   5.003 -0.1141  0.1132 -0.3709
 7502TIP3    H143997   4.860   1.822   4.964  0.0141 -0.3726  0.6930
 7502TIP3    H243998   4.733   1.905   4.967 -1.1903 -2.1793  1.6929
 7503TIP3   OH243999   3.356   3.474  11.736  0.1297  0.3775  0.0136
 7503TIP3    H144000   3.299   3.444  11.665  0.9163 -0.0077 -0.4661
 7503TIP3    H244001   3.372   3.567  11.716  0.2721  0.2955 -0.2672
 7504TIP3   OH244002   0.624   0.648   2.932  0.0322 -0.0623  0.3047
 7504TIP3    H144003   0.700   0.699   2.960  0.5251 -0.7252  0.1974
 7504TIP3    H244004   0.584   0.701   2.863  0.1484  0.4921  0.6541
 7505TIP3   OH244005   0.073   5.538  13.223 -0.9256  0.1714 -0.0670
 7505TIP3    H144006   0.165   5.547  13.246  0.2858 -2.6472 -3.0016
 7505TIP3    H244007   0.057   5.610  13.161  0.3189 -0.9962 -1.8581
 7506TIP3   OH244008   4.078   5.706   1.277  0.0911  0.4009 -0.3652
 7506TIP3    H144009   4.051   5.780   1.223 -3.7007 -0.2182  0.4606
 7506TIP3    H244010   4.071   5.630   1.219 -0.9393  0.1147  0.1202
 7507TIP3   OH244011   0.556   5.768  12.467  0.1170 -0.4886 -0.3233
 7507TIP3    H144012   0.521   5.850  12.502  0.8543  0.3631 -1.4986
 7507TIP3    H244013   0.636   5.752  12.517  0.8765  0.4324 -1.2054
 7508TIP3   OH244014   6.514   3.501  14.683  0.0513 -0.0022  0.2683
 7508TIP3    H144015   6.422   3.520  14.701  0.2805 -0.7208  2.5589
 7508TIP3    H244016   6.529   3.416  14.725  1.7692  0.1164 -0.0388
 7509TIP3   OH244017   2.768   1.477   5.557 -0.4199  0.5328 -0.3646
 7509TIP3    H144018   2.754   1.570   5.538 -0.3613  0.5608 -0.2709
 7509TIP3    H244019   2.687   1.448   5.599 -0.1444  0.7336  0.3240
 7510TIP3   OH244020   2.493   1.639   3.456  0.1380  0.0247 -0.2106
 7510TIP3    H144021   2.403   1.642   3.488 -0.3048  3.1250 -1.4069
 7510TIP3    H244022   2.545   1.672   3.529 -0.1021  0.9578 -0.4363
 7511TIP3   OH244023   5.886   0.354  13.158  0.1066  0.0388  0.1752
 7511TIP3    H144024   5.844   0.388  13.079  0.5762  1.1286  0.3673
 7511TIP3    H244025   5.852   0.265  13.167  1.3223 -0.7752 -2.2155
 7512TIP3   OH244026   3.842   1.800  14.254  0.0196  1.0483 -0.3475
 7512TIP3    H144027   3.847   1.885  14.298 -0.5463 -0.1472  2.2171
 7512TIP3    H244028   3.784   1.747  14.309 -1.1735 -0.4775 -2.8620
 7513TIP3   OH244029   4.573   6.632   3.601  0.1195 -0.2099  0.5464
 7513TIP3    H144030   4.524   6.623   3.520 -1.7478 -0.3413  1.6399
 7513TIP3    H244031   4.542   6.714   3.640  1.5150  0.2264  0.8085
 7514TIP3   OH244032   6.698   2.001   4.556 -0.6535 -0.5498  0.2363
 7514TIP3    H144033   6.669   2.059   4.627  1.5262 -0.7134  1.3495
 7514TIP3    H244034   6.694   1.913   4.594 -2.4686 -1.0422 -0.9402
 7515TIP3   OH244035   4.469   4.559   2.997  0.2853 -0.3492 -0.3297
 7515TIP3    H144036   4.479   4.654   3.009  0.3794 -0.2314 -1.2416
 7515TIP3    H244037   4.451   4.525   3.085 -1.1353  0.6947 -0.1755
 7516TIP3   OH244038   1.698   6.195   5.286  0.0417  0.7573 -1.0346
 7516TIP3    H144039   1.607   6.213   5.307 -0.3042 -1.1189 -0.7650
 7516TIP3    H244040   1.733   6.153   5.365  0.8398  0.5033 -1.5118
 7517TIP3   OH244041   0.113   6.702  13.092  0.1222  0.0399 -0.3104
 7517TIP3    H144042   0.205   6.711  13.117  0.0583 -0.8031  0.2831
 7517TIP3    H244043   0.111   6.724  12.999  1.1228 -1.0536 -0.6226
 7518TIP3   OH244044   0.487   1.423  15.770 -0.5041 -0.0849  0.2332
 7518TIP3    H144045   0.465   1.458  15.684  0.9846  0.1153 -0.0942
 7518TIP3    H244046   0.422   1.354  15.785 -1.1028  0.2254 -0.8078
 7519TIP3   OH244047   0.367   1.085   0.849  0.0032 -0.3197  0.1486
 7519TIP3    H144048   0.391   1.158   0.792 -1.5115 -0.7405 -1.1038
 7519TIP3    H244049   0.353   1.012   0.788 -2.9775 -0.4571  0.8503
 7520TIP3   OH244050   3.658   5.138  17.112  0.2481  0.0008  0.3114
 7520TIP3    H144051   3.573   5.136  17.068  0.6960  0.2925 -0.5943
 7520TIP3    H244052   3.697   5.221  17.085  0.6585  0.0585  1.0499
 7521TIP3   OH244053   4.035   5.471  10.552  1.0063 -0.2889 -0.2528
 7521TIP3    H144054   4.128   5.488  10.568  1.2366 -1.3786 -0.3348
 7521TIP3    H244055   4.028   5.462  10.457  0.8525 -0.3650 -0.2356
 7522TIP3   OH244056   4.406   6.204   0.577 -0.5098  0.3989  0.2627
 7522TIP3    H144057   4.410   6.119   0.621 -0.8730  1.3051  2.1152
 7522TIP3    H244058   4.338   6.252   0.623 -1.1107  1.3195 -1.4991
 7523TIP3   OH244059   1.757   4.347  13.200 -0.9641 -0.0693  0.9414
 7523TIP3    H144060   1.714   4.346  13.115 -0.7052 -0.6750  0.8097
 7523TIP3    H244061   1.736   4.433  13.237 -0.5942  0.4274  0.0209
 7524TIP3   OH244062   4.245   6.749  17.066 -0.4329 -0.1697 -0.0245
 7524TIP3    H144063   4.321   6.805  17.080  0.3455 -0.7196 -1.8272
 7524TIP3    H244064   4.179   6.807  17.028  0.5011 -0.4836 -2.2520
 7525TIP3   OH244065   4.062   4.494   3.984 -0.2746 -0.5269 -0.0849
 7525TIP3    H144066   4.085   4.586   3.970  1.3656 -1.2236 -2.5213
 7525TIP3    H244067   4.142   4.454   4.017 -0.8567 -1.1685  0.5713
 7526TIP3   OH244068   4.126   6.546  14.955 -0.4792 -0.3390  0.1836
 7526TIP3    H144069   4.078   6.628  14.944 -1.4420 -0.9527 -0.4111
 7526TIP3    H244070   4.216   6.573  14.974 -0.8323  0.8455  0.2773
 7527TIP3   OH244071   0.658   2.472   0.618  0.5383 -0.2267 -0.4022
 7527TIP3    H144072   0.748   2.444   0.602  0.9504  0.5113  0.4962
 7527TIP3    H244073   0.653   2.558   0.577  1.1555  1.0202  1.9159
 7528TIP3   OH244074   3.960   0.084   0.763  0.4032  0.2664  0.0984
 7528TIP3    H144075   3.876   0.116   0.731  0.7643 -2.0316 -3.7017
 7528TIP3    H244076   4.019   0.159   0.754 -0.1055  0.4394 -2.6340
 7529TIP3   OH244077   1.722   5.986   4.089 -0.1477  0.6305  0.7324
 7529TIP3    H144078   1.750   6.063   4.139  0.6882  0.6670  0.2217
 7529TIP3    H244079   1.626   5.992   4.087 -0.1122  1.4073  1.0852
 7530TIP3   OH244080   5.535   1.267  15.330  0.3007 -0.2842  0.1783
 7530TIP3    H144081   5.476   1.191  15.329  0.5798 -0.5202  0.8713
 7530TIP3    H244082   5.481   1.339  15.365  0.7943 -0.8480  2.2444
 7531TIP3   OH244083   2.103   0.056  14.232 -0.2314 -0.5917 -0.0503
 7531TIP3    H144084   2.025   0.035  14.282  0.2930  1.1610  1.6232
 7531TIP3    H244085   2.152  -0.025  14.227 -1.7043 -1.5051 -0.3721
 7532TIP3   OH244086   6.548   3.224   2.935  0.4604 -0.1078 -0.1936
 7532TIP3    H144087   6.613   3.228   3.006 -0.0454 -0.1253  0.2781
 7532TIP3    H244088   6.472   3.181   2.974  1.0582 -2.4451 -1.4508
 7533TIP3   OH244089   5.802   4.976  12.763 -0.2334  0.1788 -0.3374
 7533TIP3    H144090   5.883   5.022  12.785 -0.7496 -0.3618  3.1645
 7533TIP3    H244091   5.830   4.902  12.709  1.5644  0.2981  0.3746
 7534TIP3   OH244092   3.811   5.810   0.642 -0.0328 -0.3461  0.2642
 7534TIP3    H144093   3.902   5.831   0.621 -1.0715  1.9385 -2.7034
 7534TIP3    H244094   3.769   5.896   0.654 -2.6052 -1.0095 -2.7329
 7535TIP3   OH244095   4.323   2.518   4.110 -0.1971 -0.4794  0.2346
 7535TIP3    H144096   4.330   2.441   4.166  1.0502  0.4158  1.3712
 7535TIP3    H244097   4.295   2.588   4.170  2.6291  0.8566  0.1308
 7536TIP3   OH244098   3.326   6.711  12.723 -0.8608 -0.0593 -0.2612
 7536TIP3    H144099   3.333   6.706  12.628 -1.8203  0.9108 -0.4078
 7536TIP3    H244100   3.262   6.781  12.739 -0.9068 -0.3710  1.0877
 7537TIP3   OH244101   1.081   4.705   1.235  0.4433 -0.1221  0.0657
 7537TIP3    H144102   1.112   4.658   1.158  1.2585 -1.7193  1.2936
 7537TIP3    H244103   1.153   4.699   1.298 -0.5521  0.2370  1.2979
 7538TIP3   OH244104   5.803   5.832  13.415 -0.2118 -0.8266  0.2349
 7538TIP3    H144105   5.771   5.869  13.332  0.3693  1.3601  0.9053
 7538TIP3    H244106   5.725   5.824  13.469 -0.2226  0.8037  0.5279
 7539TIP3   OH244107   0.741   5.158   3.204  0.0768 -0.4023 -0.2223
 7539TIP3    H144108   0.815   5.109   3.241  0.6655  0.7220  0.1337
 7539TIP3    H244109   0.769   5.249   3.206  0.0739 -0.2261 -3.2857
 7540TIP3   OH244110   4.982   3.203  15.850 -0.4012 -0.0141 -0.0866
 7540TIP3    H144111   5.036   3.133  15.886  0.4965  0.0554 -1.2482
 7540TIP3    H244112   5.037   3.281  15.855 -0.7437  0.2531 -0.4234
 7541TIP3   OH244113   2.254   5.780   5.787  0.0910  0.1815  0.2657
 7541TIP3    H144114   2.319   5.773   5.717  1.2622  1.2229  1.2072
 7541TIP3    H244115   2.284   5.716   5.853  0.8668  1.4540  1.2023
 7542TIP3   OH244116   6.210   1.959   5.896  0.2525 -0.4065  0.4068
 7542TIP3    H144117   6.265   1.894   5.851 -0.7093  0.1251 -1.6838
 7542TIP3    H244118   6.188   2.022   5.827 -0.6394  0.9377  1.8773
 7543TIP3   OH244119   1.157   3.244   2.307  0.5032 -0.2126 -0.2857
 7543TIP3    H144120   1.187   3.315   2.364  1.4000 -0.3870 -0.5242
 7543TIP3    H244121   1.102   3.288   2.242  1.4719  0.3558 -0.7412
 7544TIP3   OH244122   2.184   2.078   1.954 -0.2988  0.1970  0.3641
 7544TIP3    H144123   2.142   2.054   2.036  0.3773 -2.5372  0.0124
 7544TIP3    H244124   2.124   2.046   1.886  0.5657 -0.4074 -0.1446
 7545TIP3   OH244125   5.681   5.037  12.993 -0.0484 -0.0098  0.1420
 7545TIP3    H144126   5.684   4.973  13.064  0.9301 -0.0317  0.0843
 7545TIP3    H244127   5.740   5.003  12.926 -1.1040 -0.0864 -0.7911
 7546TIP3   OH244128   5.839   5.435  15.949 -0.3871  0.9656 -0.2800
 7546TIP3    H144129   5.916   5.413  15.896  0.3041  1.2970  0.5615
 7546TIP3    H244130   5.796   5.351  15.965 -0.7644  0.8891 -1.5772
 7547TIP3   OH244131   6.610   1.777   0.151 -0.3426  0.1920 -0.2278
 7547TIP3    H144132   6.566   1.833   0.087  1.0115  0.8296 -0.6557
 7547TIP3    H244133   6.566   1.693   0.143 -2.4993  1.1784  0.4964
 7548TIP3   OH244134   0.294   0.506  15.561  0.0343 -0.2975  0.1721
 7548TIP3    H144135   0.229   0.527  15.494 -0.2328  0.2803  0.6105
 7548TIP3    H244136   0.354   0.445  15.517 -1.1830 -1.4008 -0.0279
 7549TIP3   OH244137   3.444   2.518   3.481  0.1917  1.0128 -0.1701
 7549TIP3    H144138   3.491   2.602   3.484  1.1161  0.6297 -2.4239
 7549TIP3    H244139   3.511   2.452   3.497 -0.0499  0.5846 -0.8907
 7550TIP3   OH244140   0.481   3.541  14.300 -0.2168  0.1828 -0.7764
 7550TIP3    H144141   0.432   3.582  14.372 -1.1496  0.8638 -1.7565
 7550TIP3    H244142   0.414   3.522  14.234  0.6459 -0.2274 -1.5504
 7551TIP3   OH244143   5.237   1.353   4.473 -0.3106 -0.6263 -0.1397
 7551TIP3    H144144   5.283   1.287   4.421  1.6048 -0.3978  1.1692
 7551TIP3    H244145   5.154   1.311   4.497  0.7671 -2.5433  0.4962
 7552TIP3   OH244146   4.991   3.804  11.135 -0.2642  0.2740 -0.1371
 7552TIP3    H144147   4.944   3.879  11.098 -1.3757  0.2361  1.1394
 7552TIP3    H244148   4.971   3.732  11.076 -0.2003  0.6912 -0.6832
 7553TIP3   OH244149   1.324   6.350  12.751  0.3575 -0.4473  0.1960
 7553TIP3    H144150   1.258   6.358  12.682  1.6647 -1.5704 -1.2689
 7553TIP3    H244151   1.337   6.256  12.760 -0.1792 -0.3625  2.4409
 7554TIP3   OH244152   6.735   0.178   0.228 -0.4577  0.0120  0.7078
 7554TIP3    H144153   6.793   0.115   0.271 -1.4892 -1.5164 -0.0435
 7554TIP3    H244154   6.770   0.186   0.139 -1.1573 -0.6376  0.3617
 7555TIP3   OH244155   1.012   5.093  15.158 -0.0899  0.4490 -0.2847
 7555TIP3    H144156   1.038   5.039  15.084 -0.5629  1.1621 -0.9973
 7555TIP3    H244157   1.089   5.097  15.214  1.2633  2.1609 -2.1177
 7556TIP3   OH244158   5.077   2.663  11.898 -0.0249  0.5515 -0.2049
 7556TIP3    H144159   5.168   2.679  11.874 -0.5862  2.1892 -1.4591
 7556TIP3    H244160   5.055   2.735  11.957 -0.8029  0.8055 -0.7916
 7557TIP3   OH244161   0.543   5.205  14.618  0.1756 -0.6456  0.6904
 7557TIP3    H144162   0.588   5.138  14.567  0.7820  0.0340  0.3211
 7557TIP3    H244163   0.450   5.188  14.603  0.3338 -1.0415  0.1366
 7558TIP3   OH244164   2.213   2.319  14.263 -0.3952  0.2044  0.2019
 7558TIP3    H144165   2.189   2.245  14.207 -0.6311 -0.1210  0.7277
 7558TIP3    H244166   2.135   2.375  14.264 -1.0055 -0.6245  1.5389
 7559TIP3   OH244167   3.261   0.544  12.297 -0.0903  0.0844  0.3588
 7559TIP3    H144168   3.240   0.575  12.385 -0.4473 -0.2651  0.4028
 7559TIP3    H244169   3.177   0.542  12.251  0.1956  0.9854 -0.2347
 7560TIP3   OH244170   2.997   0.707  11.202 -0.6598 -0.7371 -0.4639
 7560TIP3    H144171   2.912   0.710  11.157 -0.9787  0.6726  0.1726
 7560TIP3    H244172   3.052   0.652  11.146 -1.5466 -0.4046 -1.7012
 7561TIP3   OH244173   5.667   5.245  16.494 -0.1044  0.3571 -0.2938
 7561TIP3    H144174   5.576   5.275  16.489 -0.5129 -0.6276  0.7382
 7561TIP3    H244175   5.672   5.173  16.431 -0.4205 -0.4447  0.5686
 7562TIP3   OH244176   0.817   0.640  15.806  0.2330 -0.1977 -0.0723
 7562TIP3    H144177   0.721   0.647  15.800  0.0079 -1.4946  1.2970
 7562TIP3    H244178   0.844   0.604  15.722 -0.6863 -1.3307  0.0941
 7563TIP3   OH244179   3.874   1.938   6.594  0.3999  0.3627 -0.1821
 7563TIP3    H144180   3.958   1.979   6.572  0.7841 -0.7830 -0.9332
 7563TIP3    H244181   3.899   1.856   6.637 -0.3191 -0.5675 -1.4970
 7564TIP3   OH244182   1.354   4.191  13.758  0.2024 -0.1662 -0.5115
 7564TIP3    H144183   1.395   4.104  13.760  1.3238  0.3406 -0.4645
 7564TIP3    H244184   1.359   4.218  13.667 -2.7820 -1.3031 -1.1342
 7565TIP3   OH244185   1.581   5.366   0.705 -0.5276  0.2722  0.4703
 7565TIP3    H144186   1.570   5.449   0.660 -2.4570  0.1784  0.6786
 7565TIP3    H244187   1.494   5.325   0.701 -0.1121 -0.8563  2.0505
 7566TIP3   OH244188   3.300   6.083   0.124  0.0715 -0.2182 -0.4827
 7566TIP3    H144189   3.264   6.131   0.048 -1.0037 -0.0300  0.1242
 7566TIP3    H244190   3.226   6.033   0.158  0.5472 -0.3093  0.4468
 7567TIP3   OH244191   4.742   5.853  13.450  0.5968 -0.1371  0.0102
 7567TIP3    H144192   4.801   5.928  13.445  2.1757 -1.2865  0.7197
 7567TIP3    H244193   4.714   5.850  13.541  0.0802 -0.0809 -0.1434
 7568TIP3   OH244194   5.752   0.386  12.910 -0.5715  0.2969 -0.7782
 7568TIP3    H144195   5.764   0.292  12.922  0.6895  0.5153 -0.0742
 7568TIP3    H244196   5.790   0.405  12.824  0.2351  0.3142 -0.4310
 7569TIP3   OH244197   5.856   2.789   3.599 -0.2886  0.0084  0.0124
 7569TIP3    H144198   5.857   2.875   3.642 -0.0541 -0.6372  1.3625
 7569TIP3    H244199   5.771   2.787   3.553  0.5254  1.7124 -1.7364
 7570TIP3   OH244200   4.304   1.786  12.911 -0.1434  0.0782 -0.2481
 7570TIP3    H144201   4.274   1.841  12.839 -1.5085 -1.1918 -0.7007
 7570TIP3    H244202   4.379   1.738  12.876 -0.8575 -0.6014 -0.8847
 7571TIP3   OH244203   2.862   0.856  14.344  0.6192 -0.0073 -0.0864
 7571TIP3    H144204   2.886   0.943  14.374 -0.8564 -0.1183  1.6102
 7571TIP3    H244205   2.779   0.837  14.388  0.3225 -1.8212 -1.2898
 7572TIP3   OH244206   2.287   2.230   5.026  0.3660 -0.4015 -0.5387
 7572TIP3    H144207   2.308   2.305   5.081  0.5612 -0.3461 -0.6872
 7572TIP3    H244208   2.206   2.194   5.063 -1.4071  1.6340 -2.1836
 7573TIP3   OH244209   6.040   0.918  12.583  0.6604 -0.0453 -0.1391
 7573TIP3    H144210   6.040   0.976  12.508  2.3306  0.7783  0.4529
 7573TIP3    H244211   5.967   0.858  12.568 -0.1924  1.2930 -1.4616
 7574TIP3   OH244212   0.162   2.516  13.392  0.2038  0.0333 -0.5245
 7574TIP3    H144213   0.115   2.481  13.468  0.5377  1.0889  0.2058
 7574TIP3    H244214   0.250   2.477  13.399 -0.2087 -1.0920 -1.2789
 7575TIP3   OH244215   6.794   3.404  12.264 -0.3615 -0.2423 -0.3714
 7575TIP3    H144216   6.709   3.404  12.219 -0.6366 -0.6206  0.1257
 7575TIP3    H244217   6.801   3.491  12.302 -0.9924 -0.5069  0.4039
 7576TIP3   OH244218   1.183   2.562  16.620  0.0297  0.0043  0.1043
 7576TIP3    H144219   1.242   2.637  16.608  0.4855 -0.4241 -0.3527
 7576TIP3    H244220   1.236   2.498  16.668 -0.6536  0.3251  1.3563
 7577TIP3   OH244221   4.052   4.217   4.002 -0.2837  0.6766  0.4761
 7577TIP3    H144222   4.084   4.303   4.030 -1.7876  1.1353  0.8635
 7577TIP3    H244223   3.978   4.236   3.944  0.0348 -0.3505 -0.3043
 7578TIP3   OH244224   1.685   4.176   1.976  0.3948  0.0323 -0.0473
 7578TIP3    H144225   1.633   4.218   2.044 -0.6164 -0.5900 -0.4136
 7578TIP3    H244226   1.637   4.096   1.955  1.4130 -0.4763 -0.5297
 7579TIP3   OH244227   0.777   6.643   2.127 -0.5558  0.1009  0.9414
 7579TIP3    H144228   0.840   6.587   2.172 -1.9964 -1.5585  0.9734
 7579TIP3    H244229   0.724   6.681   2.197 -0.9614 -0.2183  0.8118
 7580TIP3   OH244230   0.115   0.440  11.186 -0.9852 -0.3734 -0.0211
 7580TIP3    H144231   0.154   0.516  11.143  0.8961 -1.0829  0.3180
 7580TIP3    H244232   0.065   0.396  11.118 -4.3631  2.4637  0.3287
 7581TIP3   OH244233   2.600   2.793  14.581 -0.1318 -0.3855 -0.2544
 7581TIP3    H144234   2.592   2.830  14.493  0.4482 -0.0151 -0.1581
 7581TIP3    H244235   2.609   2.869  14.639 -1.9574 -0.5508  0.3085
 7582TIP3   OH244236   3.854   1.539  14.582  0.2613  0.4575 -0.4730
 7582TIP3    H144237   3.824   1.627  14.562  1.7857  1.1794  0.2023
 7582TIP3    H244238   3.871   1.540  14.676  1.6090 -0.1075 -0.6809
 7583TIP3   OH244239   2.993   5.868   5.725  0.0104 -0.4631  0.1195
 7583TIP3    H144240   3.035   5.785   5.703 -1.1926 -1.1897  0.4842
 7583TIP3    H244241   3.064   5.923   5.758  0.7989 -1.4001  0.0249
 7584TIP3   OH244242   0.505   2.412  11.783  0.4125  0.3762 -0.0895
 7584TIP3    H144243   0.540   2.413  11.871  0.0949  0.6964  0.0363
 7584TIP3    H244244   0.468   2.499  11.771  1.8398  0.8753 -1.1031
 7585TIP3   OH244245   3.119   2.877   4.948  0.0552  0.5151  0.4204
 7585TIP3    H144246   3.119   2.955   4.892  1.6075 -0.0384 -0.4214
 7585TIP3    H244247   3.030   2.872   4.983 -0.1511  2.5118  0.2993
 7586TIP3   OH244248   5.552   3.917  11.832  0.2901  0.7255  0.0393
 7586TIP3    H144249   5.520   3.841  11.881  3.6452 -0.9204 -0.0146
 7586TIP3    H244250   5.564   3.986  11.897  1.7263 -0.4206  1.0523
 7587TIP3   OH244251   4.073   4.710  12.314  1.0827  0.0866  0.3555
 7587TIP3    H144252   4.089   4.776  12.247 -1.1497 -0.7113 -1.0984
 7587TIP3    H244253   4.059   4.629  12.264  3.8552 -1.6165  2.0524
 7588TIP3   OH244254   4.540   2.804   0.652  0.4792 -0.5207 -0.0306
 7588TIP3    H144255   4.515   2.712   0.639  0.5300 -0.4808 -0.4237
 7588TIP3    H244256   4.528   2.844   0.566 -0.0124 -0.0467  0.2512
 7589TIP3   OH244257   6.500   6.742   4.088  0.2740 -0.2243  0.5480
 7589TIP3    H144258   6.433   6.745   4.156 -1.3055  1.6115 -0.9532
 7589TIP3    H244259   6.570   6.799   4.121 -0.3854  0.4951  0.7356
 7590TIP3   OH244260   0.927   0.906   5.958  0.7192 -0.5403  0.2124
 7590TIP3    H144261   0.915   0.950   5.874  1.8975 -2.2117 -0.9002
 7590TIP3    H244262   0.871   0.955   6.019 -1.9924 -0.6240 -1.9824
 7591TIP3   OH244263   6.552   0.021  17.288 -0.0340  0.1307 -0.4526
 7591TIP3    H144264   6.642   0.020  17.320  0.1837  0.0070 -1.0698
 7591TIP3    H244265   6.505   0.074  17.352  0.2204 -0.8191  0.5554
 7592TIP3   OH244266   1.252   0.175   3.510 -0.2865 -1.1430  0.2568
 7592TIP3    H144267   1.340   0.188   3.474 -1.3045  1.1997 -1.6054
 7592TIP3    H244268   1.253   0.084   3.542  2.2772 -1.7155 -1.1516
 7593TIP3   OH244269   2.544   5.474  12.409 -0.0156 -0.1530  0.4620
 7593TIP3    H144270   2.572   5.467  12.500 -2.4138 -1.1988  1.2044
 7593TIP3    H244271   2.523   5.567  12.398  0.6275  0.0434  0.8442
 7594TIP3   OH244272   3.858   1.360  13.799 -0.1141 -0.5529 -0.0957
 7594TIP3    H144273   3.918   1.385  13.729 -1.4778  1.4969 -0.6454
 7594TIP3    H244274   3.873   1.424  13.868 -3.1741  1.6508 -1.2172
 7595TIP3   OH244275   1.597   2.052   5.475  0.3382  0.5389  0.3109
 7595TIP3    H144276   1.574   2.012   5.558  0.1362 -0.3603 -0.1626
 7595TIP3    H244277   1.517   2.095   5.445  0.6079  1.4732  0.9107
 7596TIP3   OH244278   5.572   4.151  15.636 -0.3890 -0.1448  0.3362
 7596TIP3    H144279   5.530   4.207  15.702  1.1800  1.5789 -0.0262
 7596TIP3    H244280   5.636   4.100  15.686 -1.0778 -0.8358  0.5182
 7597TIP3   OH244281   1.093   1.507  12.776  0.1072  0.2824 -0.2957
 7597TIP3    H144282   1.104   1.438  12.842 -2.8610 -0.0145  0.0245
 7597TIP3    H244283   1.160   1.488  12.710  0.8695 -1.5122  0.9200
 7598TIP3   OH244284   6.089   5.494  15.515 -0.1470 -0.5848 -0.0967
 7598TIP3    H144285   6.005   5.506  15.471 -0.7783  0.2625  1.2598
 7598TIP3    H244286   6.118   5.583  15.536  0.5336 -0.9202  0.4249
 7599TIP3   OH244287   0.119   3.466  11.786  0.1154 -0.5953  0.1181
 7599TIP3    H144288   0.088   3.519  11.859 -0.3206 -0.4179 -0.1890
 7599TIP3    H244289   0.040   3.422  11.753  0.1975 -0.1883 -0.6407
 7600TIP3   OH244290   5.201   2.321   5.658  0.2174 -0.2829 -0.1320
 7600TIP3    H144291   5.192   2.415   5.672  0.0605 -0.2673 -0.3368
 7600TIP3    H244292   5.136   2.281   5.716  0.5871 -0.2878  0.2861
 7601TIP3   OH244293   5.792   3.947  12.541 -0.2794  0.5588 -0.2235
 7601TIP3    H144294   5.705   3.928  12.509 -0.3446  0.5606 -0.0513
 7601TIP3    H244295   5.792   3.916  12.632  0.0561  0.1111 -0.3764
 7602TIP3   OH244296   3.502   0.093  12.852 -0.2095  0.4433 -0.2885
 7602TIP3    H144297   3.442   0.105  12.926 -0.0586 -0.4708 -0.0051
 7602TIP3    H244298   3.444   0.087  12.775 -0.6023 -1.3918  0.0826
 7603TIP3   OH244299   0.354   5.657   1.122  0.1201 -0.3260 -0.1065
 7603TIP3    H144300   0.270   5.641   1.079  0.6375  1.0769 -1.7811
 7603TIP3    H244301   0.353   5.750   1.142  0.2084 -0.8104  2.3909
 7604TIP3   OH244302   3.768   3.925   3.887 -0.0898 -0.2323  0.4212
 7604TIP3    H144303   3.794   3.857   3.824  3.3686  0.3131  1.0507
 7604TIP3    H244304   3.794   4.007   3.845 -1.7365  0.5138  0.8067
 7605TIP3   OH244305   1.582   3.492   0.602 -0.3045 -0.6602 -0.1710
 7605TIP3    H144306   1.581   3.451   0.689 -1.1304 -0.6136 -0.1476
 7605TIP3    H244307   1.624   3.428   0.546  1.1445 -0.2882  0.4463
 7606TIP3   OH244308   3.309   3.502   6.171 -0.1491 -0.3659  0.0525
 7606TIP3    H144309   3.338   3.449   6.096 -2.4966 -1.6017 -0.0847
 7606TIP3    H244310   3.314   3.443   6.246 -1.8940 -0.5321  0.0714
 7607TIP3   OH244311   5.859   0.530  11.126  0.2339  0.3509 -0.0089
 7607TIP3    H144312   5.821   0.540  11.039  0.8588 -0.7947 -0.4350
 7607TIP3    H244313   5.814   0.595  11.179 -2.2212 -0.8561 -0.4928
 7608TIP3   OH244314   3.445   5.881   3.201  0.7678 -0.2240  0.2340
 7608TIP3    H144315   3.407   5.803   3.161  0.0311 -0.3896  1.2308
 7608TIP3    H244316   3.507   5.914   3.136 -0.6815 -0.2556 -1.2116
 7609TIP3   OH244317   0.237   5.853  17.135 -0.2206 -0.3409  0.0221
 7609TIP3    H144318   0.313   5.901  17.167 -0.7789  0.3249  0.3768
 7609TIP3    H244319   0.273   5.774  17.096  0.5382 -0.7814  1.5698
 7610TIP3   OH244320   6.718   0.367  16.683  0.6531  0.4481 -0.0152
 7610TIP3    H144321   6.727   0.317  16.764  0.0918 -2.1704 -1.4608
 7610TIP3    H244322   6.808   0.384  16.655  0.8501  0.2185  0.4721
 7611TIP3   OH244323   5.659   6.792   4.468 -0.1196  0.0695 -0.0447
 7611TIP3    H144324   5.752   6.802   4.488  0.1287  0.4290 -1.3297
 7611TIP3    H244325   5.654   6.794   4.373 -1.4279 -0.1438  0.0002
 7612TIP3   OH244326   3.257   3.642  17.150 -0.8018  0.4064 -0.0934
 7612TIP3    H144327   3.206   3.707  17.199 -0.0586 -0.0078  1.2971
 7612TIP3    H244328   3.192   3.578  17.121 -1.2939  0.7939  0.1404
 7613TIP3   OH244329   1.639   2.318   3.331  0.5615  0.3318 -0.1808
 7613TIP3    H144330   1.639   2.230   3.294 -1.1461  0.2033  0.0286
 7613TIP3    H244331   1.562   2.320   3.388  1.2532  1.5837  0.7731
 7614TIP3   OH244332   2.465   5.817   4.063 -0.0156  0.2328 -0.6790
 7614TIP3    H144333   2.505   5.800   4.148  1.7756  0.5789 -1.3946
 7614TIP3    H244334   2.460   5.731   4.021 -3.0723 -0.3163  0.5877
 7615TIP3   OH244335   5.772   5.393   1.536  0.3444 -0.0532 -0.1451
 7615TIP3    H144336   5.698   5.333   1.550 -0.3880  0.9523  0.3943
 7615TIP3    H244337   5.849   5.336   1.541 -0.3214 -0.9402  0.4834
 7616TIP3   OH244338   3.216   4.001   0.114 -0.3514  0.2375  0.2522
 7616TIP3    H144339   3.182   3.947   0.042  0.0460  0.7782 -0.3533
 7616TIP3    H244340   3.308   4.014   0.093 -0.9473  3.2903 -1.0362
 7617TIP3   OH244341   3.297   4.422   3.384  0.4261  0.3331  0.1869
 7617TIP3    H144342   3.211   4.448   3.350  0.6197  0.5295 -0.1510
 7617TIP3    H244343   3.290   4.435   3.479 -0.0851 -0.1267  0.2227
 7618TIP3   OH244344   6.243   5.495  17.304 -0.3452 -0.8309  0.1028
 7618TIP3    H144345   6.207   5.481  17.217 -1.7350  0.5161  0.4186
 7618TIP3    H244346   6.254   5.590  17.310  1.1758 -1.0166  0.8719
 7619TIP3   OH244347   0.899   3.836  14.409 -0.4753  0.5157  0.1812
 7619TIP3    H144348   0.946   3.920  14.412 -1.5123  1.0931  0.9441
 7619TIP3    H244349   0.897   3.813  14.316 -0.1758  1.3406 -0.0389
 7620TIP3   OH244350   2.373   6.668  10.832  0.9775  0.6395  0.7056
 7620TIP3    H144351   2.391   6.641  10.742  2.1003  0.6670  0.9147
 7620TIP3    H244352   2.283   6.702  10.829 -0.1513 -2.0887  0.2056
 7621TIP3   OH244353   5.736   6.447   5.068 -0.2390 -0.4348  0.9939
 7621TIP3    H144354   5.693   6.526   5.101  0.9686  1.1431 -0.9817
 7621TIP3    H244355   5.694   6.430   4.983  1.3204 -0.3229  0.1798
 7622TIP3   OH244356   6.608   4.944  12.596 -0.2680  0.1072 -0.6630
 7622TIP3    H144357   6.514   4.949  12.585 -0.3213  2.1623  0.3133
 7622TIP3    H244358   6.627   5.003  12.669  1.9526  1.1299 -1.9746
 7623TIP3   OH244359   0.749   2.681   4.336 -0.0602 -0.1125  0.2990
 7623TIP3    H144360   0.725   2.590   4.355 -0.7701  0.2736  1.3958
 7623TIP3    H244361   0.665   2.727   4.336  0.3380  0.6205  0.2502
 7624TIP3   OH244362   5.615   4.303  13.445  0.3500  0.2648 -0.7694
 7624TIP3    H144363   5.587   4.217  13.414  1.2726 -0.5480  0.5440
 7624TIP3    H244364   5.709   4.294  13.461  0.3338  1.2869  0.0753
 7625TIP3   OH244365   6.588   3.607   4.164  0.4201  0.0974  0.7823
 7625TIP3    H144366   6.634   3.611   4.248  1.2347  0.1218  0.3389
 7625TIP3    H244367   6.637   3.543   4.112  0.9311  1.3052 -0.2696
 7626TIP3   OH244368   1.296   1.666  11.184 -0.2338  0.3706 -0.7431
 7626TIP3    H144369   1.329   1.628  11.266 -1.2648  2.5346  0.7467
 7626TIP3    H244370   1.356   1.738  11.166 -1.2939  1.3065 -0.6349
 7627TIP3   OH244371   0.485   3.840  16.048 -0.0373 -0.3997 -0.1230
 7627TIP3    H144372   0.441   3.756  16.055  0.0802 -0.4777 -0.3099
 7627TIP3    H244373   0.444   3.883  15.973  0.2081 -0.4760 -0.3029
 7628TIP3   OH244374   6.472   0.284  15.468  1.0491  0.6271  0.1569
 7628TIP3    H144375   6.506   0.206  15.425  2.1720  0.6013  1.0687
 7628TIP3    H244376   6.380   0.287  15.441  0.6485 -1.6586  1.0440
 7629TIP3   OH244377   2.265   5.600  11.968 -0.7734  0.5188  0.0622
 7629TIP3    H144378   2.248   5.589  11.874 -1.1214 -1.2663  0.3037
 7629TIP3    H244379   2.179   5.620  12.006 -0.7593  0.5226  0.0927
 7630TIP3   OH244380   4.777   0.917  12.860 -0.0653 -0.4192 -0.0479
 7630TIP3    H144381   4.792   0.945  12.950 -1.4972 -1.0195  0.3977
 7630TIP3    H244382   4.743   0.995  12.816 -1.0240 -0.5737  0.3918
 7631TIP3   OH244383   0.503   3.615   2.075  0.4066 -0.1085 -0.1544
 7631TIP3    H144384   0.524   3.574   1.992  0.0281  0.5174 -0.5737
 7631TIP3    H244385   0.456   3.696   2.051  0.4466  0.1713  0.6545
 7632TIP3   OH244386   4.174   5.068  14.546  0.1535  0.2313  0.3042
 7632TIP3    H144387   4.188   5.089  14.638  0.6778 -1.7704  0.7329
 7632TIP3    H244388   4.262   5.052  14.511 -0.1484 -0.5146 -0.1397
 7633TIP3   OH244389   0.764   4.184  16.523 -0.2282  0.6681 -0.2831
 7633TIP3    H144390   0.696   4.124  16.492  0.0677 -0.7444  1.6019
 7633TIP3    H244391   0.728   4.220  16.605  0.3024  1.7966 -0.5273
 7634TIP3   OH244392   3.379   4.019  15.682 -0.1086 -0.1085 -0.1718
 7634TIP3    H144393   3.369   4.112  15.659 -0.3383 -0.2659 -0.7104
 7634TIP3    H244394   3.460   4.016  15.733 -1.6042  0.8525  2.4292
 7635TIP3   OH244395   2.107   1.412   2.868  0.1115  0.5683  0.4709
 7635TIP3    H144396   2.064   1.487   2.826 -2.7107 -0.6799  0.9136
 7635TIP3    H244397   2.093   1.426   2.962  1.5347  0.5708  0.6980
 7636TIP3   OH244398   0.641   3.217  11.626 -0.5316  0.1615 -0.1831
 7636TIP3    H144399   0.735   3.234  11.624 -0.5510  0.4537  0.7410
 7636TIP3    H244400   0.609   3.243  11.540  0.4100 -1.0713 -0.9413
 7637TIP3   OH244401   1.821   5.443  15.652  0.6548 -0.3441  0.7397
 7637TIP3    H144402   1.831   5.496  15.731  0.9889 -0.8434  1.0323
 7637TIP3    H244403   1.746   5.386  15.670  0.5526 -0.2623  0.5826
 7638TIP3   OH244404   5.153   4.821  12.437  0.9768 -0.0337 -0.4088
 7638TIP3    H144405   5.153   4.879  12.362  1.3242  3.0171  1.7650
 7638TIP3    H244406   5.243   4.789  12.443  1.8864  2.4457  0.5279
 7639TIP3   OH244407   1.425   6.635  14.054 -0.3954  0.1575 -0.1669
 7639TIP3    H144408   1.440   6.568  13.988  0.6788 -0.0421  0.2616
 7639TIP3    H244409   1.330   6.633  14.070 -0.6809  0.2244 -1.6983
 7640TIP3   OH244410   2.605   1.231   2.060 -0.2562  0.7635 -0.2698
 7640TIP3    H144411   2.629   1.324   2.053 -1.1634  1.2040  1.7260
 7640TIP3    H244412   2.602   1.214   2.154  3.6356 -2.3783 -0.4328
 7641TIP3   OH244413   3.150   0.221  14.730 -0.2235 -0.6818  0.0376
 7641TIP3    H144414   3.096   0.149  14.698  0.3300 -0.3565 -1.7429
 7641TIP3    H244415   3.090   0.296  14.734 -0.0000 -0.3645 -1.7602
 7642TIP3   OH244416   4.737   2.040  14.805  0.1254 -0.4608 -0.1075
 7642TIP3    H144417   4.770   2.097  14.874 -0.3186  0.4131 -0.5847
 7642TIP3    H244418   4.649   2.074  14.787  0.3995 -0.3862 -1.3955
 7643TIP3   OH244419   0.361   0.532   2.657  0.4428  0.0261  0.1573
 7643TIP3    H144420   0.409   0.474   2.598  0.3702  0.8007 -0.6807
 7643TIP3    H244421   0.273   0.537   2.620 -0.7064 -2.2213  2.2508
 7644TIP3   OH244422   3.049   6.241  11.482  0.1891  0.3164 -0.4254
 7644TIP3    H144423   3.003   6.227  11.399 -0.0065  1.5652 -0.5418
 7644TIP3    H244424   2.990   6.204  11.548  1.2153 -2.5402 -0.9409
 7645TIP3   OH244425   5.990   4.730   5.251 -0.0350 -0.5924  0.1611
 7645TIP3    H144426   6.032   4.747   5.335  0.1129  0.7310 -0.1594
 7645TIP3    H244427   6.061   4.735   5.187 -0.0512 -2.1360 -0.0097
 7646TIP3   OH244428   6.314   5.269   1.844  0.1248 -0.7116 -0.6110
 7646TIP3    H144429   6.331   5.176   1.862  0.0036 -0.2794  2.3518
 7646TIP3    H244430   6.220   5.272   1.825 -0.4166 -0.9913  1.7169
 7647TIP3   OH244431   1.492   4.325  16.181 -0.6626 -0.1437  0.2846
 7647TIP3    H144432   1.546   4.266  16.129 -0.4086  0.6429 -0.3661
 7647TIP3    H244433   1.402   4.296  16.164 -0.5018 -0.8382  0.6024
 7648TIP3   OH244434   3.678   0.499   3.728  0.0748  0.6819  0.4253
 7648TIP3    H144435   3.742   0.475   3.795  0.1171  0.3854  0.2811
 7648TIP3    H244436   3.602   0.530   3.777  0.2512  0.8408  0.6010
 7649TIP3   OH244437   2.698   0.955  16.201  0.0097 -0.3059 -0.3497
 7649TIP3    H144438   2.724   1.033  16.251  0.5407 -1.2088  0.8230
 7649TIP3    H244439   2.614   0.978  16.162 -1.9292 -0.5192  3.2960
 7650TIP3   OH244440   0.817   3.314   3.750 -0.3285 -0.0892 -0.1799
 7650TIP3    H144441   0.912   3.315   3.764 -0.3856 -1.2373  0.4110
 7650TIP3    H244442   0.804   3.253   3.678 -0.6105  0.1562 -0.3376
 7651TIP3   OH244443   5.670   2.495  16.366  0.7915  0.5653  0.6867
 7651TIP3    H144444   5.721   2.487  16.447 -1.0757  2.0686  2.1146
 7651TIP3    H244445   5.580   2.475  16.392  0.1456  0.9656 -1.0642
 7652TIP3   OH244446   6.421   0.903   1.153  0.6763 -0.2278 -0.1493
 7652TIP3    H144447   6.494   0.890   1.093  0.5316  0.1275 -0.4072
 7652TIP3    H244448   6.349   0.853   1.115  0.0653  1.3965 -1.2430
 7653TIP3   OH244449   4.335   3.334   4.291 -0.1021 -0.2891  0.0089
 7653TIP3    H144450   4.423   3.371   4.298  0.0423 -0.6674  0.2503
 7653TIP3    H244451   4.280   3.391   4.345  0.5046 -1.5962  2.1373
 7654TIP3   OH244452   4.086   4.140  11.023 -0.1121  0.5271 -0.0457
 7654TIP3    H144453   4.108   4.105  11.110 -2.0432 -0.8320 -0.0397
 7654TIP3    H244454   4.040   4.222  11.041 -0.0233  0.5316  0.1669
 7655TIP3   OH244455   5.196   6.038  12.123 -0.4258  0.3859 -0.1963
 7655TIP3    H144456   5.161   6.072  12.041 -0.5950  1.2578  0.2268
 7655TIP3    H244457   5.241   5.957  12.099 -0.4157  0.6728 -1.1497
 7656TIP3   OH244458   3.111   5.357  12.187  0.3906 -0.0293  0.9535
 7656TIP3    H144459   3.040   5.416  12.214  0.3327  0.3126  0.0703
 7656TIP3    H244460   3.172   5.413  12.140  0.4497 -0.6256  0.3063
 7657TIP3   OH244461   0.735   0.489   5.284 -0.0840  0.0582  0.1398
 7657TIP3    H144462   0.719   0.547   5.210 -0.4689 -0.3522 -0.1059
 7657TIP3    H244463   0.712   0.402   5.251  1.7705 -0.4511  0.0741
 7658TIP3   OH244464   1.071   2.901  11.342 -0.2847 -0.6195 -0.2536
 7658TIP3    H144465   1.153   2.897  11.292 -0.0864  2.2648 -0.3126
 7658TIP3    H244466   1.012   2.841  11.295  0.5865  0.2728 -2.6587
 7659TIP3   OH244467   2.653   3.072   6.090 -0.7163  0.2362  0.1504
 7659TIP3    H144468   2.741   3.042   6.065 -0.5731  1.6476 -1.1699
 7659TIP3    H244469   2.669   3.145   6.150 -0.9586  0.7648 -0.4172
 7660TIP3   OH244470   2.680   2.310   4.596  0.3843  0.2800  0.2768
 7660TIP3    H144471   2.671   2.262   4.513  2.9208 -0.2003  0.1827
 7660TIP3    H244472   2.688   2.241   4.662 -3.6856  0.6169  1.3570
 7661TIP3   OH244473   5.109   0.380   2.361 -0.0625 -0.1357 -0.0530
 7661TIP3    H144474   5.021   0.405   2.333  0.1560 -0.1943 -0.8151
 7661TIP3    H244475   5.167   0.429   2.303  0.3921 -1.3391 -0.6359
 7662TIP3   OH244476   3.835   2.385  11.972 -0.1681  0.5876  0.2696
 7662TIP3    H144477   3.799   2.297  11.982 -0.8936  0.4834 -2.5510
 7662TIP3    H244478   3.902   2.391  12.040 -0.4417 -1.9524  0.8610
 7663TIP3   OH244479   0.202   5.951  16.283  0.2321 -0.3274  0.0949
 7663TIP3    H144480   0.180   6.010  16.355  0.2378  0.8647 -0.8399
 7663TIP3    H244481   0.281   5.906  16.312  0.9523  1.0411  0.3481
 7664TIP3   OH244482   4.851   5.574  16.478 -0.6278  0.0973  0.1222
 7664TIP3    H144483   4.937   5.545  16.448  0.1863  1.4148  1.0819
 7664TIP3    H244484   4.810   5.496  16.514  0.2115 -0.5208 -0.2361
 7665TIP3   OH244485   2.159   3.092  17.056 -0.3064  0.2200 -0.0313
 7665TIP3    H144486   2.212   3.012  17.051 -1.5349 -0.7048  1.0432
 7665TIP3    H244487   2.071   3.063  17.032 -0.8373  1.1899  0.6868
 7666TIP3   OH244488   3.248   6.652   5.261  0.3098 -0.3429 -0.6467
 7666TIP3    H144489   3.286   6.681   5.344  1.0985 -1.3375 -0.6472
 7666TIP3    H244490   3.301   6.694   5.194 -0.5737  0.7777 -0.6656
 7667TIP3   OH244491   2.955   0.914   0.669  0.5211 -0.1253  0.0406
 7667TIP3    H144492   3.015   0.848   0.635  0.5831  0.5499 -1.2072
 7667TIP3    H244493   2.965   0.908   0.764  0.1125 -2.2893  0.0052
 7668TIP3   OH244494   0.871   4.928   5.465 -0.5375  0.4877 -0.2517
 7668TIP3    H144495   0.839   5.009   5.426  1.1204  1.5138  0.3940
 7668TIP3    H244496   0.889   4.871   5.390 -1.5899  0.7591 -0.7225
 7669TIP3   OH244497   1.186   3.365  14.128  0.4968  0.0869  0.5335
 7669TIP3    H144498   1.270   3.411  14.135  1.2425 -0.6479 -2.4399
 7669TIP3    H244499   1.129   3.426  14.080 -1.4091  1.3153  3.9603
 7670TIP3   OH244500   3.207   5.199   4.352 -0.1493 -0.5577  0.1830
 7670TIP3    H144501   3.282   5.242   4.311 -0.3426 -0.8037 -0.4390
 7670TIP3    H244502   3.235   5.108   4.363 -1.0079 -1.1104 -1.7886
 7671TIP3   OH244503   3.438   2.915  14.928 -0.0018  0.0539  0.4183
 7671TIP3    H144504   3.496   2.863  14.983  0.4949  1.2769  1.0859
 7671TIP3    H244505   3.349   2.893  14.957  0.1675 -0.9202  0.2138
 7672TIP3   OH244506   0.300   5.029  12.933  0.4046 -0.2045  0.2931
 7672TIP3    H144507   0.211   5.060  12.947  0.2373  0.0060 -1.0939
 7672TIP3    H244508   0.355   5.098  12.970  0.0145 -0.5019  1.4786
 7673TIP3   OH244509   2.513   0.748  11.544  0.5440  0.1875 -0.7349
 7673TIP3    H144510   2.423   0.765  11.570  1.2473 -0.1235  2.1941
 7673TIP3    H244511   2.529   0.656  11.568  2.3464  0.9403  1.2721
 7674TIP3   OH244512   5.405   3.009  13.481  0.0564  0.1497  0.1849
 7674TIP3    H144513   5.333   3.005  13.543 -2.7294 -1.8922 -2.8725
 7674TIP3    H244514   5.386   3.084  13.425  1.4818  0.8291  0.5538
 7675TIP3   OH244515   5.580   6.393   0.651  0.0826  0.9490  0.0663
 7675TIP3    H144516   5.503   6.450   0.656 -1.3476 -0.8418 -0.2797
 7675TIP3    H244517   5.601   6.389   0.557 -0.2266  0.4446  0.0110
 7676TIP3   OH244518   2.439   0.434   4.965 -0.1671 -0.8953  0.1530
 7676TIP3    H144519   2.439   0.501   4.897  1.1889  0.6736  1.6190
 7676TIP3    H244520   2.365   0.377   4.942 -0.6115  0.3672 -1.8156
 7677TIP3   OH244521   6.424   4.656   2.924 -0.2020  0.2505  0.1158
 7677TIP3    H144522   6.420   4.711   3.002  1.6034 -0.0366  0.4653
 7677TIP3    H244523   6.458   4.715   2.856  1.0931 -0.2084  0.3262
 7678TIP3   OH244524   2.112   1.297  14.177 -0.5405 -0.4043 -0.3044
 7678TIP3    H144525   2.061   1.243  14.118 -0.5186 -1.0060  0.2226
 7678TIP3    H244526   2.082   1.274  14.264 -0.2201  0.1141 -0.0478
 7679TIP3   OH244527   0.125   5.583  14.077  0.2226  0.2856 -0.1826
 7679TIP3    H144528   0.070   5.531  14.135  0.6461 -2.1080 -1.7929
 7679TIP3    H244529   0.081   5.580  13.992  0.9594  1.4835 -0.6496
 7680TIP3   OH244530   4.881   6.643  16.875 -0.3941  0.2189 -0.7077
 7680TIP3    H144531   4.889   6.696  16.954 -0.6844  0.3602 -0.7721
 7680TIP3    H244532   4.903   6.554  16.903  1.6024  0.5955 -0.9090
 7681TIP3   OH244533   2.299   5.515   0.449  0.1163  0.1677 -0.3734
 7681TIP3    H144534   2.234   5.542   0.384  0.7443  2.4111 -0.1349
 7681TIP3    H244535   2.383   5.545   0.414  0.6382  0.0734  0.7529
 7682TIP3   OH244536   4.460   0.993   4.343  0.3242  0.1905  0.4283
 7682TIP3    H144537   4.512   1.056   4.392 -0.9639  0.2647  1.7838
 7682TIP3    H244538   4.388   0.971   4.402 -1.1303  0.0374 -1.3254
 7683TIP3   OH244539   3.485   1.526  12.837  0.1882 -0.4028 -0.2526
 7683TIP3    H144540   3.410   1.561  12.886 -0.5135 -1.5543 -0.4742
 7683TIP3    H244541   3.486   1.577  12.756  0.0191  0.0361  0.0175
 7684TIP3   OH244542   2.125   4.891   3.417  0.2615  0.4298 -0.0466
 7684TIP3    H144543   2.172   4.811   3.392  0.6602  0.5074  0.4360
 7684TIP3    H244544   2.103   4.933   3.333 -0.2807 -0.3662 -0.3133
 7685TIP3   OH244545   1.828   1.292   4.467  0.1101  0.1452  0.1566
 7685TIP3    H144546   1.741   1.254   4.480  0.4729 -0.8352 -0.1972
 7685TIP3    H244547   1.842   1.348   4.543  0.1767 -1.6459  1.5235
 7686TIP3   OH244548   2.656   1.466   3.317  0.0523  0.5713  0.2540
 7686TIP3    H144549   2.608   1.384   3.304  0.6700  0.2464 -0.0180
 7686TIP3    H244550   2.591   1.526   3.353 -0.1716 -0.3211  1.3836
 7687TIP3   OH244551   4.848   0.150   4.793 -0.4619 -0.0080  0.4307
 7687TIP3    H144552   4.772   0.198   4.759  1.8234  2.6824 -1.3661
 7687TIP3    H244553   4.892   0.116   4.715  1.2904  0.3787  1.1936
 7688TIP3   OH244554   4.038   4.742  15.121  0.4656  0.4435  0.0317
 7688TIP3    H144555   4.103   4.678  15.092  1.0061  1.5818 -1.3483
 7688TIP3    H244556   4.018   4.716  15.211  0.3886 -1.8685 -0.5862
 7689TIP3   OH244557   0.628   0.233  13.499 -0.0823  0.2642 -0.5848
 7689TIP3    H144558   0.699   0.172  13.520 -1.7240 -1.2089  1.0902
 7689TIP3    H244559   0.658   0.318  13.531 -0.3143 -0.9330  3.3367
 7690TIP3   OH244560   4.703   4.750   2.385 -0.3715  0.2285 -1.1081
 7690TIP3    H144561   4.735   4.667   2.350  0.0458  1.0716 -2.8384
 7690TIP3    H244562   4.609   4.749   2.365 -0.5447 -0.2098 -0.2979
 7691TIP3   OH244563   0.301   5.762  11.748  0.1746  0.1279 -0.0706
 7691TIP3    H144564   0.389   5.801  11.752  0.3403  0.0075 -1.7626
 7691TIP3    H244565   0.315   5.676  11.707 -0.5087 -0.7467  1.4144
 7692TIP3   OH244566   4.487   3.837   1.270 -0.2895 -0.0236 -0.7559
 7692TIP3    H144567   4.443   3.788   1.201  2.1259 -0.7748 -1.8700
 7692TIP3    H244568   4.465   3.791   1.351  1.0162 -2.4047 -1.6459
 7693TIP3   OH244569   4.019   4.467  12.544 -0.2515 -0.4563  0.1011
 7693TIP3    H144570   4.076   4.439  12.472  0.6443 -1.5302  1.1989
 7693TIP3    H244571   4.056   4.425  12.622  0.4175  2.8214  1.6860
 7694TIP3   OH244572   0.781   2.669   0.239  0.5426  0.1387  0.3970
 7694TIP3    H144573   0.850   2.735   0.235  1.2668 -0.5893  0.5318
 7694TIP3    H244574   0.788   2.622   0.155  0.6514 -0.3624  0.6834
 7695TIP3   OH244575   3.430   1.036   3.598 -0.0025  0.6789 -0.3772
 7695TIP3    H144576   3.488   1.109   3.577  0.5419  0.8681  1.5728
 7695TIP3    H244577   3.472   0.960   3.559  1.6335  0.8038  1.0177
 7696TIP3   OH244578   6.423   1.205   3.289 -0.5380  0.4170 -0.0693
 7696TIP3    H144579   6.515   1.233   3.284 -0.5282  0.3697 -0.1568
 7696TIP3    H244580   6.425   1.113   3.264 -0.3325 -0.1475  1.9206
 7697TIP3   OH244581   0.527   2.538  13.739  0.0237 -0.2901 -0.4690
 7697TIP3    H144582   0.576   2.516  13.659 -0.3082 -1.3547 -0.4011
 7697TIP3    H244583   0.436   2.519  13.717 -0.1736  0.2494 -0.1150
 7698TIP3   OH244584   5.408   5.666   1.549  0.7047  0.2558  0.3395
 7698TIP3    H144585   5.471   5.712   1.493  0.4649 -0.2170 -0.3301
 7698TIP3    H244586   5.463   5.620   1.613  1.0204  0.1232 -0.0244
 7699TIP3   OH244587   3.809   6.813  13.363  0.1023  0.5861 -0.7464
 7699TIP3    H144588   3.782   6.750  13.297  1.7597 -0.6603 -0.2937
 7699TIP3    H244589   3.883   6.859  13.323 -0.5743  1.7128 -0.7523
 7700TIP3   OH244590   1.754   2.236  15.334 -0.4874  0.0534  0.7938
 7700TIP3    H144591   1.738   2.291  15.411  1.1984  1.3161  0.2967
 7700TIP3    H244592   1.850   2.229  15.329 -0.3995  1.7536 -2.3205
 7701TIP3   OH244593   0.456   6.782  13.400  0.6407  0.0173  0.0961
 7701TIP3    H144594   0.365   6.753  13.391  0.8517 -0.8939  0.8169
 7701TIP3    H244595   0.450   6.878  13.400 -0.2306 -0.0201 -0.6679
 7702TIP3   OH244596   0.128   5.022   4.758 -0.3468 -0.3358 -0.0656
 7702TIP3    H144597   0.172   5.042   4.842  1.0054 -0.0634 -0.8067
 7702TIP3    H244598   0.184   4.957   4.717 -0.9807 -0.4308 -0.7938
 7703TIP3   OH244599   4.517   4.224   3.512  0.2223  0.3109  0.5239
 7703TIP3    H144600   4.526   4.196   3.420 -1.2843  1.6383 -0.0657
 7703TIP3    H244601   4.443   4.284   3.512  0.6602  0.9247  2.5066
 7704TIP3   OH244602   6.630   1.330   6.328  0.4959  0.4203 -0.2309
 7704TIP3    H144603   6.613   1.307   6.419 -0.4745  1.9200  0.0005
 7704TIP3    H244604   6.725   1.333   6.322  0.6804 -2.3258 -0.0080
 7705TIP3   OH244605   0.826   2.797   4.612 -0.0092 -0.4637 -0.6041
 7705TIP3    H144606   0.795   2.768   4.526 -1.9948 -0.7297  0.1275
 7705TIP3    H244607   0.801   2.726   4.671  0.3185  0.1894  0.3417
 7706TIP3   OH244608   0.602   0.827   5.126  0.3493 -0.5767  0.2487
 7706TIP3    H144609   0.681   0.879   5.113  0.5740 -0.9320  0.2139
 7706TIP3    H244610   0.533   0.893   5.141  0.6296 -0.2674  0.1885
 7707TIP3   OH244611   1.872   6.690  12.303 -0.5676  0.2018 -0.3602
 7707TIP3    H144612   1.799   6.655  12.355 -0.0225  0.4195  0.5758
 7707TIP3    H244613   1.838   6.694  12.214 -1.0180 -1.6562 -0.3183
 7708TIP3   OH244614   1.014   1.753  15.328  0.2077 -0.4554 -0.1858
 7708TIP3    H144615   1.038   1.799  15.247  0.1211  0.8201  0.4835
 7708TIP3    H244616   1.035   1.816  15.397  3.2304 -2.6103  1.0568
 7709TIP3   OH244617   4.102   5.187   4.422  0.5513 -0.0491  0.0612
 7709TIP3    H144618   4.133   5.261   4.474  0.2351  0.4824 -0.4958
 7709TIP3    H244619   4.179   5.156   4.375  0.1144  1.8212 -1.9958
 7710TIP3   OH244620   6.794   3.676   5.863  0.4341 -0.6153  0.0607
 7710TIP3    H144621   6.730   3.636   5.803  1.1645  0.0625 -1.2026
 7710TIP3    H244622   6.784   3.626   5.944  1.4468 -3.5664 -1.4844
 7711TIP3   OH244623   0.783   4.468  13.101  0.1017 -0.1424 -0.3204
 7711TIP3    H144624   0.736   4.518  13.035  1.0196 -0.0929 -0.9511
 7711TIP3    H244625   0.845   4.414  13.052  2.0216  1.1538  0.5322
 7712TIP3   OH244626   3.679   0.631  13.320  0.1647 -0.3960  0.1680
 7712TIP3    H144627   3.707   0.652  13.231  0.6240 -0.2158  0.3518
 7712TIP3    H244628   3.610   0.695  13.339  0.1065 -0.3976 -0.0368
 7713TIP3   OH244629   0.515   1.171  13.255 -0.0957  0.0292  0.1703
 7713TIP3    H144630   0.501   1.094  13.310  1.1564  0.9298  1.8491
 7713TIP3    H244631   0.496   1.245  13.312  1.1397  1.0092 -0.6329
 7714TIP3   OH244632   0.255   3.776   1.919  1.1406 -0.0400  0.7663
 7714TIP3    H144633   0.249   3.682   1.935 -0.7478  0.1355  1.2657
 7714TIP3    H244634   0.235   3.786   1.826  1.1836 -0.1226  0.7486
 7715TIP3   OH244635   0.557   5.205  12.316 -0.5758 -0.3793  0.2958
 7715TIP3    H144636   0.489   5.251  12.365  1.6453 -0.3933  3.6456
 7715TIP3    H244637   0.632   5.200  12.375  1.6600 -2.3061 -2.3946
 7716TIP3   OH244638   5.567   3.781  15.677 -0.2836  0.1068 -0.0296
 7716TIP3    H144639   5.509   3.844  15.719  0.4514  2.1416 -1.8869
 7716TIP3    H244640   5.527   3.765  15.591  0.7941 -0.0736 -0.5158
 7717TIP3   OH244641   3.598   6.697  12.484 -0.2385  0.6753  0.4796
 7717TIP3    H144642   3.503   6.711  12.487 -0.5549 -0.4064 -1.8257
 7717TIP3    H244643   3.611   6.616  12.533 -0.5247  0.7800  0.7344
 7718TIP3   OH244644   4.783   4.951   3.019  0.2105 -0.7823  0.4253
 7718TIP3    H144645   4.862   4.924   2.971 -0.4370 -1.6030 -0.2078
 7718TIP3    H244646   4.716   4.961   2.951  0.3221  2.3380  0.6238
 7719TIP3   OH244647   5.905   0.291  13.832 -0.1216 -0.0819  0.2173
 7719TIP3    H144648   5.889   0.298  13.737  0.0126  0.4117  0.2251
 7719TIP3    H244649   5.949   0.373  13.854  0.9453 -0.7156  0.4938
 7720TIP3   OH244650   2.410   0.866   0.672  0.2262  0.0003 -0.4109
 7720TIP3    H144651   2.485   0.922   0.650  1.2486 -0.5544  1.4653
 7720TIP3    H244652   2.392   0.885   0.764 -1.6044 -0.3083 -0.6742
 7721TIP3   OH244653   4.642   3.353   5.206 -0.0491  0.1238  0.2264
 7721TIP3    H144654   4.582   3.280   5.218 -0.6142  0.6570  0.7545
 7721TIP3    H244655   4.725   3.323   5.243 -0.0073 -0.5848 -0.4188
 7722TIP3   OH244656   5.130   2.757  13.480 -0.7633 -0.3689 -0.0771
 7722TIP3    H144657   5.041   2.721  13.476 -0.3339 -1.5617  0.6169
 7722TIP3    H244658   5.181   2.689  13.522  1.0518 -0.8119 -2.7766
 7723TIP3   OH244659   5.603   4.393  15.344  0.0860 -0.1636 -0.4233
 7723TIP3    H144660   5.684   4.425  15.304 -0.1596  0.0096 -0.7900
 7723TIP3    H244661   5.533   4.432  15.291 -0.2230 -1.0140 -0.6706
 7724TIP3   OH244662   1.469   4.569  14.759  0.2476 -0.4031  0.2197
 7724TIP3    H144663   1.471   4.489  14.705 -2.0257  0.0220 -0.6192
 7724TIP3    H244664   1.558   4.578  14.792  0.3431 -3.9757  1.3859
 7725TIP3   OH244665   2.763   4.944  17.279 -0.2535 -0.2383 -0.1573
 7725TIP3    H144666   2.719   5.015  17.327 -0.8603 -0.7738  0.1057
 7725TIP3    H244667   2.851   4.977  17.263 -0.3775  0.3851  0.3763
 7726TIP3   OH244668   2.463   4.221   2.810  0.0363 -0.0010 -0.2114
 7726TIP3    H144669   2.487   4.172   2.889  0.9707 -0.4701 -0.7670
 7726TIP3    H244670   2.519   4.185   2.742 -1.2646 -0.0951 -1.2531
 7727TIP3   OH244671   5.512   1.514  14.246 -0.3973  0.0894  0.1937
 7727TIP3    H144672   5.550   1.504  14.159  2.5402  0.8451  1.2871
 7727TIP3    H244673   5.463   1.433  14.260  0.3161 -0.6932 -1.5474
 7728TIP3   OH244674   6.621   1.617   5.197 -0.4999  0.2096 -0.1900
 7728TIP3    H144675   6.526   1.624   5.209 -0.5995  0.0598 -0.8974
 7728TIP3    H244676   6.653   1.588   5.283 -0.9409  1.5484  0.4716
 7729TIP3   OH244677   4.786   2.270  14.345  0.1028  0.2306  0.1811
 7729TIP3    H144678   4.693   2.270  14.325  0.0960 -0.4653  0.1792
 7729TIP3    H244679   4.798   2.197  14.407  0.8544 -0.6397 -0.9286
 7730TIP3   OH244680   0.202   4.553  11.127  0.0864  0.4107  0.2998
 7730TIP3    H144681   0.203   4.480  11.066  0.7479  1.2267 -0.7037
 7730TIP3    H244682   0.117   4.547  11.171  0.4995 -1.4863  0.9346
 7731TIP3   OH244683   6.035   2.434  12.082  0.5351  0.4407  0.1600
 7731TIP3    H144684   6.053   2.503  12.019  1.8080  0.2093  0.2423
 7731TIP3    H244685   5.951   2.397  12.055  0.9863  0.4334 -1.3162
 7732TIP3   OH244686   2.045   2.527  16.661 -0.2548  0.0414  0.1515
 7732TIP3    H144687   2.005   2.449  16.699 -2.0443  1.2580  0.9349
 7732TIP3    H244688   2.068   2.581  16.737 -1.0315  1.1675 -0.3741
 7733TIP3   OH244689   6.755   4.638   1.499 -0.2456 -0.0637  0.1051
 7733TIP3    H144690   6.831   4.654   1.444  0.3591 -0.6124  0.7533
 7733TIP3    H244691   6.788   4.642   1.589 -0.8463 -0.9044  0.3859
 7734TIP3   OH244692   5.492   5.444   0.835 -0.3014 -0.1692 -0.6063
 7734TIP3    H144693   5.515   5.366   0.886 -0.2773  0.5881  0.5934
 7734TIP3    H244694   5.471   5.411   0.748  0.5309 -1.4155 -0.3607
 7735TIP3   OH244695   6.649   1.493   2.625 -0.2335 -0.1807 -0.0772
 7735TIP3    H144696   6.699   1.476   2.704  0.3987  2.4360  0.1808
 7735TIP3    H244697   6.565   1.449   2.639 -0.4529  0.8771  2.4454
 7736TIP3   OH244698   6.490   3.003   4.020  0.0062  0.1503  0.0597
 7736TIP3    H144699   6.583   2.995   4.043  0.0730 -0.5098 -0.3834
 7736TIP3    H244700   6.463   3.087   4.056  0.8461  0.4688 -0.0230
 7737TIP3   OH244701   0.747   4.775   3.674 -0.5403 -0.1939  0.3237
 7737TIP3    H144702   0.839   4.798   3.660 -0.4000 -1.4592 -1.1635
 7737TIP3    H244703   0.699   4.827   3.610 -0.6830 -0.6861  0.0242
 7738TIP3   OH244704   1.323   2.646  14.134  0.3263  0.0374  0.0675
 7738TIP3    H144705   1.312   2.740  14.144 -2.7248 -0.1074 -0.9712
 7738TIP3    H244706   1.390   2.637  14.066 -0.4216  1.5200 -0.9273
 7739TIP3   OH244707   4.396   0.354  12.078 -0.1182 -0.2632  0.0098
 7739TIP3    H144708   4.433   0.342  11.991  0.8941  0.4027  0.3284
 7739TIP3    H244709   4.308   0.390  12.063  0.1587  0.1027 -0.7267
 7740TIP3   OH244710   0.448   1.823   3.569 -0.0338 -0.4193 -0.5042
 7740TIP3    H144711   0.403   1.907   3.557 -0.3604 -0.3483  0.9862
 7740TIP3    H244712   0.508   1.839   3.642 -0.6517 -1.6763  0.3080
 7741TIP3   OH244713   3.079   1.346   2.348 -0.0196  0.1475  0.1537
 7741TIP3    H144714   3.016   1.285   2.387 -0.0198 -0.3408 -0.5801
 7741TIP3    H244715   3.026   1.420   2.319  0.1156  1.0422  2.0416
 7742TIP3   OH244716   2.878   2.576  11.747  0.0616  0.0043  0.9070
 7742TIP3    H144717   2.904   2.535  11.830 -0.3639 -1.7703  0.2183
 7742TIP3    H244718   2.837   2.658  11.773  0.9356  0.0028  2.3822
 7743TIP3   OH244719   0.504   6.402  12.231 -0.0754 -0.2384 -0.3821
 7743TIP3    H144720   0.497   6.493  12.204  1.3337 -0.0519 -0.1771
 7743TIP3    H244721   0.433   6.358  12.184 -1.8487  1.2228  0.8251
 7744TIP3   OH244722   4.775   0.896  15.835  0.2857 -0.7655 -0.1667
 7744TIP3    H144723   4.760   0.939  15.750  0.9173 -0.0715  0.0635
 7744TIP3    H244724   4.870   0.888  15.841  0.2188 -1.3018  0.2494
 7745TIP3   OH244725   3.427   2.003   0.174 -0.3673  0.4770  0.2773
 7745TIP3    H144726   3.458   1.947   0.102 -1.2541 -0.1854  0.3950
 7745TIP3    H244727   3.492   1.990   0.243 -1.9501 -2.6351  1.3644
 7746TIP3   OH244728   4.719   6.444  16.228  0.4330 -0.2117  0.5373
 7746TIP3    H144729   4.654   6.395  16.278 -2.4346  2.2319 -0.4864
 7746TIP3    H244730   4.728   6.395  16.146  2.1497 -2.0781  1.7499
 7747TIP3   OH244731   2.146   2.096  10.623 -0.2715 -0.1485  0.4996
 7747TIP3    H144732   2.225   2.075  10.572 -1.4086  1.5331 -2.1993
 7747TIP3    H244733   2.077   2.043  10.583 -1.0852  0.7161  0.7140
 7748TIP3   OH244734   4.349   0.712   4.314  0.3260  0.2904 -0.5621
 7748TIP3    H144735   4.409   0.651   4.357 -0.3669 -1.5824 -2.0828
 7748TIP3    H244736   4.401   0.754   4.246  0.5200  0.5560 -0.2535
 7749TIP3   OH244737   1.431   1.764   0.096 -0.3868 -0.0411  0.7503
 7749TIP3    H144738   1.455   1.826   0.027 -0.8646 -0.6706 -0.0075
 7749TIP3    H244739   1.457   1.678   0.060 -2.4876 -0.6041  0.4644
 7750TIP3   OH244740   0.081   1.244  16.387 -0.0385 -0.1068  0.3763
 7750TIP3    H144741   0.060   1.204  16.471 -0.1879  1.8948  1.3426
 7750TIP3    H244742   0.174   1.227  16.375 -0.1575 -0.9712  0.6049
 7751TIP3   OH244743   0.017   2.344   4.879  0.8601 -0.2368 -0.0219
 7751TIP3    H144744   0.069   2.270   4.909 -1.2586 -1.4763  0.7754
 7751TIP3    H244745  -0.017   2.384   4.959 -0.1724 -0.0254 -0.5573
 7752TIP3   OH244746   3.671   1.386   2.547  0.6448  0.1662  0.4402
 7752TIP3    H144747   3.725   1.392   2.468 -0.7021 -0.1713 -0.5466
 7752TIP3    H244748   3.592   1.341   2.518 -0.5239  1.3507  1.6495
 7753TIP3   OH244749   3.053   5.200   0.284 -0.1328 -0.0938 -0.0216
 7753TIP3    H144750   2.975   5.233   0.329 -0.0114 -0.7614  0.6982
 7753TIP3    H244751   3.042   5.229   0.194 -1.3713 -0.4320 -0.0007
 7754TIP3   OH244752   5.283   5.510  16.126 -0.3165  0.5252 -0.1219
 7754TIP3    H144753   5.310   5.547  16.042  1.9034  0.8301  0.6496
 7754TIP3    H244754   5.314   5.573  16.191  0.5077 -0.9922  1.0492
 7755TIP3   OH244755   1.965   2.963  13.075  0.0886  0.0804 -0.4312
 7755TIP3    H144756   1.989   3.013  13.153 -0.4615 -1.6291  0.8825
 7755TIP3    H244757   1.913   3.024  13.023  0.5383  1.2838  0.4720
 7756TIP3   OH244758   3.551   6.165   1.109 -0.3134 -0.0396  0.3447
 7756TIP3    H144759   3.579   6.255   1.124 -0.9242  0.0853  0.7630
 7756TIP3    H244760   3.504   6.168   1.025  0.0188 -0.0519  0.1562
 7757TIP3   OH244761   5.633   0.058  16.116  0.6852 -0.0960 -0.1460
 7757TIP3    H144762   5.699   0.063  16.185 -0.2506  0.1412  0.7674
 7757TIP3    H244763   5.661  -0.016  16.061  1.0024 -0.8282  0.9730
 7758TIP3   OH244764   6.016   2.137  14.585 -0.0385  0.2026 -0.3120
 7758TIP3    H144765   6.065   2.128  14.503 -0.4474  0.8450 -0.6383
 7758TIP3    H244766   5.926   2.112  14.561  0.0336 -0.5413  0.1728
 7759TIP3   OH244767   6.080   5.102   2.702  0.2587 -0.3712 -0.5657
 7759TIP3    H144768   6.044   5.190   2.714 -0.9871 -1.0399  0.8714
 7759TIP3    H244769   6.031   5.047   2.763 -0.0852 -2.3828 -2.5113
 7760TIP3   OH244770   1.649   2.331  11.184  0.1940  0.1175 -0.1800
 7760TIP3    H144771   1.566   2.295  11.213 -0.8105  0.4411 -2.4573
 7760TIP3    H244772   1.696   2.257  11.146  0.7775  0.0198  0.7144
 7761TIP3   OH244773   4.786   4.248   1.944  0.4362  0.4531 -0.3695
 7761TIP3    H144774   4.728   4.281   2.013  0.5501  0.2450 -0.1696
 7761TIP3    H244775   4.850   4.318   1.931  2.0340 -0.5047  1.6282
 7762TIP3   OH244776   5.044   4.733   4.705 -0.3066 -0.1996  0.3016
 7762TIP3    H144777   5.053   4.777   4.790  0.7541 -1.6518  0.9868
 7762TIP3    H244778   5.109   4.775   4.649  0.8019 -0.9437  0.9928
 7763TIP3   OH244779   3.918   6.046  12.479 -0.2409 -0.2088  0.1526
 7763TIP3    H144780   3.934   5.953  12.463 -0.5235 -0.9394  3.3931
 7763TIP3    H244781   3.826   6.052  12.501 -0.7496  1.2693 -2.0253
 7764TIP3   OH244782   1.555   6.713   4.417 -0.0585  0.6562  0.4952
 7764TIP3    H144783   1.593   6.684   4.334 -0.7629  1.0524  0.0248
 7764TIP3    H244784   1.552   6.808   4.410 -2.5871  0.6024 -0.1716
 7765TIP3   OH244785   4.270   1.551  14.308 -0.0806  0.1763 -0.4478
 7765TIP3    H144786   4.223   1.631  14.282  0.0082 -0.0492 -1.3134
 7765TIP3    H244787   4.206   1.481  14.293 -0.3679  0.1264  0.8718
 7766TIP3   OH244788   1.650   0.741   4.721  0.2151  0.2165 -0.1232
 7766TIP3    H144789   1.569   0.757   4.769  0.7836  0.9026  0.6537
 7766TIP3    H244790   1.678   0.654   4.748 -0.5182 -0.2332 -0.7905
 7767TIP3   OH244791   1.331   5.439  12.708 -0.2488 -0.3741 -0.3258
 7767TIP3    H144792   1.250   5.424  12.757  0.3018 -0.8789  0.4513
 7767TIP3    H244793   1.374   5.511  12.753  0.1571 -0.6925 -0.2009
 7768TIP3   OH244794   4.239   6.791   2.062 -0.0783  0.5454  0.0219
 7768TIP3    H144795   4.306   6.731   2.093  0.8625  1.7497  0.3899
 7768TIP3    H244796   4.223   6.850   2.137  1.7791  3.1123 -1.4334
 7769TIP3   OH244797   5.322   3.961  12.777 -0.5693 -0.3755  0.2771
 7769TIP3    H144798   5.253   4.022  12.750  0.2875  1.0135  1.1245
 7769TIP3    H244799   5.338   3.908  12.699 -1.1333  0.6950 -0.6039
 7770TIP3   OH244800   5.647   3.270  12.908  0.7454  0.6504  0.2729
 7770TIP3    H144801   5.687   3.189  12.878 -1.6852 -0.2987 -0.6321
 7770TIP3    H244802   5.562   3.244  12.943  1.1447  2.4600  2.8976
 7771TIP3   OH244803   0.258   4.448   2.782 -0.1743 -0.0715 -0.3857
 7771TIP3    H144804   0.347   4.442   2.817 -0.6926  1.8159  1.3978
 7771TIP3    H244805   0.201   4.423   2.855 -1.1863  1.1425 -0.7246
 7772TIP3   OH244806   1.154   0.941  14.858  0.3812 -0.0587  0.2995
 7772TIP3    H144807   1.213   0.895  14.798  0.4832  0.1650  0.2280
 7772TIP3    H244808   1.212   0.976  14.926  0.4394  0.8617 -0.2080
 7773TIP3   OH244809   3.417   6.052  13.704 -0.0462 -0.2309  0.2343
 7773TIP3    H144810   3.347   6.088  13.650 -0.3920 -0.7703  0.3097
 7773TIP3    H244811   3.497   6.091  13.668 -0.3317 -0.0537 -0.2283
 7774TIP3   OH244812   5.131   1.769   3.577 -0.7547  0.0790 -0.4753
 7774TIP3    H144813   5.115   1.688   3.529  1.2400 -1.4025  1.1639
 7774TIP3    H244814   5.191   1.818   3.522 -0.0213 -0.7081 -0.3989
 7775TIP3   OH244815   5.102   5.783  16.407  0.5676  0.7066  0.4520
 7775TIP3    H144816   5.046   5.855  16.377 -0.3027 -0.7970 -1.7882
 7775TIP3    H244817   5.127   5.808  16.496 -0.9127  3.0430  0.3062
 7776TIP3   OH244818   5.990   3.851   1.259 -0.1960 -0.0209 -0.0569
 7776TIP3    H144819   5.897   3.866   1.270 -0.2948  1.1408 -1.9726
 7776TIP3    H244820   6.012   3.893   1.176  2.2880  0.8620  0.9356
 7777TIP3   OH244821   0.284   3.690   4.426  0.4093 -0.1473  0.3250
 7777TIP3    H144822   0.359   3.730   4.471  0.6606 -0.1890 -0.0476
 7777TIP3    H244823   0.273   3.744   4.348  1.7191 -1.6857 -0.9895
 7778TIP3   OH244824   0.616   3.939  14.935 -0.5877  0.0322 -0.1683
 7778TIP3    H144825   0.700   3.907  14.903 -0.5377 -1.3468  1.2296
 7778TIP3    H244826   0.564   3.859  14.948 -1.3581  0.6964  1.0093
 7779TIP3   OH244827   4.956   3.402   0.739  0.1231 -0.2516  0.6572
 7779TIP3    H144828   4.935   3.492   0.764 -1.1171 -0.3177 -0.0804
 7779TIP3    H244829   4.995   3.410   0.652 -1.3371 -0.5125 -0.0575
 7780TIP3   OH244830   5.532   0.879  12.996 -0.6242 -0.0346 -0.3070
 7780TIP3    H144831   5.581   0.838  13.067 -0.6249 -0.0810 -0.3332
 7780TIP3    H244832   5.581   0.854  12.917  0.3359  1.3849 -0.1987
 7781TIP3   OH244833   5.665   1.843   4.200 -0.0995 -0.1255 -0.0685
 7781TIP3    H144834   5.652   1.782   4.128 -0.3231 -0.8030  0.5321
 7781TIP3    H244835   5.658   1.789   4.279  1.0355  0.4366  0.4404
 7782TIP3   OH244836   5.743   0.142  13.265  0.5007 -0.7116 -0.3071
 7782TIP3    H144837   5.748   0.082  13.191 -0.7698 -1.0409 -0.1470
 7782TIP3    H244838   5.704   0.090  13.335  0.5982 -0.0641  0.2361
 7783TIP3   OH244839   5.141   1.708   0.831 -0.7274  0.3133  0.9242
 7783TIP3    H144840   5.183   1.740   0.912  0.4107  0.0904  0.4396
 7783TIP3    H244841   5.208   1.655   0.789 -1.7931 -0.7699  0.5240
 7784TIP3   OH244842   6.055   1.224   1.098  0.3037  0.2642 -0.1656
 7784TIP3    H144843   6.047   1.262   1.010  0.3887  2.0705  0.5571
 7784TIP3    H244844   5.978   1.167   1.106 -0.3866  1.0424 -0.9684
 7785TIP3   OH244845   5.998   0.920   2.661 -0.3265  0.7169  0.0439
 7785TIP3    H144846   5.972   0.876   2.742  0.5280  0.7276  0.3342
 7785TIP3    H244847   5.991   1.013   2.681 -0.5701  0.7228 -0.0554
 7786TIP3   OH244848   4.506   1.970  16.212  0.0144  0.0728 -0.4819
 7786TIP3    H144849   4.431   2.002  16.161  1.9595  1.0455 -2.9430
 7786TIP3    H244850   4.502   1.875  16.203 -1.4947  0.0204  0.3801
 7787TIP3   OH244851   6.710   5.095   0.250  0.5210 -0.5754  0.1384
 7787TIP3    H144852   6.619   5.123   0.262  0.2248 -0.6080 -1.6896
 7787TIP3    H244853   6.719   5.017   0.305 -0.5629 -0.5772  0.3308
 7788TIP3   OH244854   6.022   4.568   3.158 -0.0165 -0.1151 -0.3556
 7788TIP3    H144855   6.020   4.477   3.128 -2.4331 -0.7708  1.4963
 7788TIP3    H244856   5.999   4.564   3.250  0.0303  2.3916 -0.1559
 7789TIP3   OH244857   2.603   4.049  11.998 -0.1913 -0.1292 -0.3641
 7789TIP3    H144858   2.660   4.092  11.934  2.3106 -1.2920  0.9763
 7789TIP3    H244859   2.632   4.082  12.083 -1.0771 -1.2694  0.4170
 7790TIP3   OH244860   2.502   2.586   1.991  0.0037  0.0415 -0.2228
 7790TIP3    H144861   2.423   2.639   1.997  0.1431  0.0532  2.2092
 7790TIP3    H244862   2.470   2.497   1.982 -0.2271  0.2525 -1.9245
 7791TIP3   OH244863   3.971   6.786  12.655  0.0429 -0.4475  0.2388
 7791TIP3    H144864   4.024   6.721  12.608  1.7805  1.1550 -0.1542
 7791TIP3    H244865   3.956   6.856  12.592 -2.5686 -0.7879  0.3784
 7792TIP3   OH244866   4.791   6.663  14.497 -0.0620  0.0770 -0.5070
 7792TIP3    H144867   4.831   6.577  14.511 -0.9599 -0.0553  1.6386
 7792TIP3    H244868   4.711   6.644  14.448  1.0489  0.0267 -2.3624
 7793TIP3   OH244869   4.173   1.788  12.169  0.5672 -0.3985 -0.1518
 7793TIP3    H144870   4.252   1.757  12.124  0.2771 -2.0928  0.4324
 7793TIP3    H244871   4.138   1.856  12.111  2.3992  0.3500 -0.4503
 7794TIP3   OH244872   5.083   5.695  12.028  0.3097 -0.1413 -0.0879
 7794TIP3    H144873   5.168   5.717  11.990  0.4692 -1.8415 -0.7819
 7794TIP3    H244874   5.098   5.612  12.073 -0.8190 -0.0915  0.4091
 7795TIP3   OH244875   0.758   2.365  13.964 -0.1971  0.0131 -0.3744
 7795TIP3    H144876   0.806   2.328  14.038 -0.3706  0.5407  0.0106
 7795TIP3    H244877   0.793   2.320  13.887  0.7267  0.1926 -0.0716
 7796TIP3   OH244878   0.559   4.359  10.318  0.0761  0.4386  0.1379
 7796TIP3    H144879   0.625   4.291  10.306 -1.5098 -1.2476  0.5316
 7796TIP3    H244880   0.475   4.313  10.313 -1.0364  2.0208  2.3425
 7797TIP3   OH244881   1.739   1.647   0.158  0.3415  0.1110  0.0189
 7797TIP3    H144882   1.759   1.579   0.094 -4.6009 -0.6856 -1.0809
 7797TIP3    H244883   1.710   1.722   0.106 -1.2791  0.3639  1.2081
 7798TIP3   OH244884   0.884   1.936   1.919 -0.1841  0.2709  0.1900
 7798TIP3    H144885   0.952   2.003   1.927  0.3353 -0.3197  0.9583
 7798TIP3    H244886   0.838   1.957   1.838  0.5708  1.0004 -0.0594
 7799TIP3   OH244887   5.607   3.107  11.987  0.2509 -0.0419  0.8686
 7799TIP3    H144888   5.656   3.103  11.905 -1.7169  0.4450 -0.3882
 7799TIP3    H244889   5.600   3.016  12.015 -1.2135 -0.5213 -0.8894
 7800TIP3   OH244890   2.270   1.215   4.803 -0.5352 -0.3847  0.2015
 7800TIP3    H144891   2.233   1.298   4.832 -1.5400  0.9868 -4.2578
 7800TIP3    H244892   2.199   1.171   4.757  1.6199 -0.3375 -3.6103
 7801TIP3   OH244893   1.798   6.431   2.258  0.5693  0.7009  0.7611
 7801TIP3    H144894   1.818   6.355   2.203  1.4707  1.1772  0.4021
 7801TIP3    H244895   1.720   6.406   2.306 -0.2798  0.2708 -0.7751
 7802TIP3   OH244896   4.463   5.420  16.326 -0.4304 -0.0923  0.1049
 7802TIP3    H144897   4.384   5.439  16.275 -1.1624 -1.6144  0.6258
 7802TIP3    H244898   4.440   5.442  16.416  0.2447  0.8345  0.0670
 7803TIP3   OH244899   3.987   3.736  11.045  0.3695  0.2209  0.3157
 7803TIP3    H144900   4.017   3.827  11.047  1.0901  0.0331 -0.8627
 7803TIP3    H244901   4.007   3.706  10.957  0.5016 -1.2089  0.8043
 7804TIP3   OH244902   5.720   0.582  12.149 -0.5172 -0.1436  0.0181
 7804TIP3    H144903   5.808   0.551  12.173  0.1731  1.4645 -0.3127
 7804TIP3    H244904   5.713   0.562  12.055 -0.6130 -0.4823  0.0938
 7805TIP3   OH244905   3.973   3.378   1.372  0.1124 -0.0448 -0.3719
 7805TIP3    H144906   3.921   3.395   1.450  1.8446 -0.7234  0.9894
 7805TIP3    H244907   3.908   3.366   1.302 -1.4374  2.4810  0.5046
 7806TIP3   OH244908   5.090   1.132   6.103 -0.3899  0.3065  0.6382
 7806TIP3    H144909   5.000   1.132   6.069 -0.6037  1.0781  1.1833
 7806TIP3    H244910   5.109   1.040   6.119 -0.2971 -0.0957 -1.4878
 7807TIP3   OH244911   5.242   4.301   5.389 -0.2392 -0.4152  0.3595
 7807TIP3    H144912   5.182   4.273   5.458 -2.1913 -0.3040 -1.1856
 7807TIP3    H244913   5.224   4.394   5.379  0.2965 -0.3519 -0.0477
 7808TIP3   OH244914   4.546   2.919  14.731  0.3694 -0.2413 -0.3012
 7808TIP3    H144915   4.564   2.873  14.813  1.3994 -0.0946 -0.4278
 7808TIP3    H244916   4.615   2.889  14.671  0.1635  0.3266 -0.8358
 7809TIP3   OH244917   0.023   2.891  10.240  0.8313  0.6305 -0.1887
 7809TIP3    H144918  -0.067   2.924  10.234  0.4655 -0.0872  0.8697
 7809TIP3    H244919   0.078   2.967  10.222  0.0117  1.3809  0.3590
 7810TIP3   OH244920   3.559   3.372   4.684 -0.1968  0.7114 -0.5844
 7810TIP3    H144921   3.489   3.438   4.679  0.9066  1.9107 -0.7044
 7810TIP3    H244922   3.598   3.373   4.596  0.7165  0.9245 -0.1900
 7811TIP3   OH244923   5.547   4.585  15.940 -0.2948 -0.0554  0.5653
 7811TIP3    H144924   5.586   4.647  16.001  1.7465  1.6191 -2.2260
 7811TIP3    H244925   5.620   4.554  15.887 -1.8757 -1.8921 -0.6943
 7812TIP3   OH244926   1.448   4.361   3.666 -0.4244  0.2521 -0.2717
 7812TIP3    H144927   1.467   4.367   3.759 -0.3858  0.1258 -0.2718
 7812TIP3    H244928   1.360   4.324   3.661  0.0830 -0.9895 -0.3096
 7813TIP3   OH244929   2.398   5.150  16.745 -0.1087 -0.8395  0.1662
 7813TIP3    H144930   2.359   5.223  16.794 -2.9305 -1.9288 -0.2594
 7813TIP3    H244931   2.486   5.141  16.782 -0.4974  1.2865  1.8231
 7814TIP3   OH244932   0.127   3.217   3.212 -0.0954  0.0792  0.6475
 7814TIP3    H144933   0.188   3.184   3.146  0.8316  1.4858  0.7530
 7814TIP3    H244934   0.041   3.201   3.174  0.3265 -1.4866  0.2649
 7815TIP3   OH244935   4.483   1.559   4.587 -0.5008 -0.1129  0.2409
 7815TIP3    H144936   4.426   1.626   4.624  1.2586  1.6695 -0.0711
 7815TIP3    H244937   4.471   1.567   4.492 -0.5903 -0.5353  0.2144
 7816TIP3   OH244938   1.861   6.537  10.625 -0.2561 -0.6860  0.5565
 7816TIP3    H144939   1.864   6.550  10.531 -1.2308 -1.2243  0.4357
 7816TIP3    H244940   1.775   6.497  10.641  0.9551 -3.1851  1.3501
 7817TIP3   OH244941   3.413   4.192  12.309  0.3268 -0.0076 -0.3874
 7817TIP3    H144942   3.493   4.182  12.257  0.8204  3.2910 -0.4853
 7817TIP3    H244943   3.443   4.182  12.400  0.6890  0.2768 -0.4688
 7818TIP3   OH244944   5.287   0.358  13.170 -0.0557  0.7372  0.7055
 7818TIP3    H144945   5.329   0.313  13.243  0.9475 -0.3157 -0.4823
 7818TIP3    H244946   5.359   0.381  13.112 -0.5159  3.8906  1.1937
 7819TIP3   OH244947   3.208   0.926  12.341 -0.3879 -0.3285 -0.1340
 7819TIP3    H144948   3.250   0.886  12.418  0.1166 -0.6701 -0.5803
 7819TIP3    H244949   3.148   0.991  12.378  2.9646  2.7498  0.5945
 7820TIP3   OH244950   2.313   6.672  14.213 -0.1407 -0.2254  0.3304
 7820TIP3    H144951   2.364   6.611  14.159  0.5817 -1.1633  1.9821
 7820TIP3    H244952   2.249   6.616  14.257  1.3585 -0.0938  2.8633
 7821TIP3   OH244953   4.540   1.578  12.982 -0.0020  0.0810  0.2278
 7821TIP3    H144954   4.557   1.579  12.888 -1.6560 -1.1124 -0.1205
 7821TIP3    H244955   4.617   1.533  13.019  0.9713  1.1356 -0.4447
 7822TIP3   OH244956   0.350   1.446  16.245 -0.0685 -0.1744 -0.5640
 7822TIP3    H144957   0.298   1.472  16.170  1.0088  0.0080 -1.2702
 7822TIP3    H244958   0.436   1.425  16.209  0.7922  0.9411  0.7306
 7823TIP3   OH244959   2.492   6.659  15.034  0.0554  0.1117  0.3596
 7823TIP3    H144960   2.584   6.678  15.054 -0.5182  1.9531  1.4523
 7823TIP3    H244961   2.456   6.743  15.006 -1.7471 -0.1489  1.7356
 7824TIP3   OH244962   5.406   0.162  12.624 -0.5441  0.2334 -0.6601
 7824TIP3    H144963   5.495   0.127  12.626 -0.2069  1.0227 -1.1892
 7824TIP3    H244964   5.376   0.157  12.714 -0.4602 -1.2627 -0.6942
 7825TIP3   OH244965   6.190   1.226  14.396 -0.3261  0.4575  0.0511
 7825TIP3    H144966   6.109   1.276  14.406 -0.9162 -0.4306 -0.1727
 7825TIP3    H244967   6.238   1.272  14.327 -1.1994  0.3020 -0.6851
 7826TIP3   OH244968   2.291   5.301  16.099  0.6517  0.0495 -0.2049
 7826TIP3    H144969   2.270   5.222  16.049 -0.0809 -0.0101  0.1918
 7826TIP3    H244970   2.273   5.278  16.190 -1.2276  1.1901 -0.2300
 7827TIP3   OH244971   0.980   2.674  12.626  0.1707  0.3405  0.1758
 7827TIP3    H144972   1.025   2.663  12.709 -0.1972  0.3841  0.3814
 7827TIP3    H244973   0.892   2.704  12.649  1.1277  4.0769 -0.3106
 7828TIP3   OH244974   4.562   2.807  15.002 -0.3068  0.4130 -0.2568
 7828TIP3    H144975   4.597   2.778  15.086  2.0913 -0.3834 -1.4141
 7828TIP3    H244976   4.490   2.865  15.024 -0.7934 -1.0235  2.2908
 7829TIP3   OH244977   1.186   4.284   5.592  1.0724 -0.0793  0.2786
 7829TIP3    H144978   1.228   4.223   5.653 -0.1895  0.3546  1.6587
 7829TIP3    H244979   1.109   4.315   5.639 -0.3673 -0.2377 -1.8287
 7830TIP3   OH244980   3.265   1.283   0.160  0.0282 -0.4482 -0.2502
 7830TIP3    H144981   3.341   1.261   0.215  1.1989 -0.8494 -1.9387
 7830TIP3    H244982   3.299   1.348   0.098 -1.3224  0.1943 -0.3584
 7831TIP3   OH244983   2.715   4.012   0.763  0.4105 -0.0778  0.3497
 7831TIP3    H144984   2.744   4.081   0.704 -0.3511 -0.6977 -0.7801
 7831TIP3    H244985   2.785   3.946   0.759  0.4243 -0.0576  0.2682
 7832TIP3   OH244986   5.529   5.791  12.637  0.6907 -0.3735 -0.2831
 7832TIP3    H144987   5.475   5.809  12.560  0.7338 -0.4282 -0.3259
 7832TIP3    H244988   5.484   5.719  12.681  0.7147 -0.4020 -0.3055
 7833TIP3   OH244989   5.641   0.885  16.778  0.0031 -0.3206 -0.2613
 7833TIP3    H144990   5.655   0.791  16.776 -0.7407 -0.4238 -0.8527
 7833TIP3    H244991   5.590   0.900  16.858  0.2160 -0.4009 -0.1101
 7834TIP3   OH244992   3.723   5.476   4.576  0.0821 -0.4122 -0.0131
 7834TIP3    H144993   3.629   5.458   4.572  0.2093 -1.2501  0.6914
 7834TIP3    H244994   3.764   5.391   4.590  0.9463 -0.0461 -0.2534
 7835TIP3   OH244995   6.194   1.633   0.546 -0.4310 -0.4643  0.4054
 7835TIP3    H144996   6.241   1.602   0.624 -0.5353 -2.6405 -0.3552
 7835TIP3    H244997   6.107   1.594   0.553 -0.7697  0.1377 -0.3103
 7836TIP3   OH244998   4.738   0.239  11.940  0.0041 -0.1192  0.2443
 7836TIP3    H144999   4.711   0.322  11.900  0.4535  0.0656  0.3194
 7836TIP3    H245000   4.741   0.258  12.034  2.0059  0.3538  0.1274
 7837TIP3   OH245001   3.722   4.724  13.271  0.0451 -0.8678  0.0879
 7837TIP3    H145002   3.815   4.745  13.272 -0.3206  0.9475  0.8837
 7837TIP3    H245003   3.701   4.704  13.362 -0.7755  1.1167  0.3858
 7838TIP3   OH245004   5.673   4.092  14.074 -0.1747  0.1516 -0.1876
 7838TIP3    H145005   5.604   4.129  14.018  0.3754  1.9210  0.2326
 7838TIP3    H245006   5.744   4.072  14.014 -0.0093  0.9923 -0.2880
 7839TIP3   OH245007   1.832   1.965  16.642  0.3707  0.4381 -0.1093
 7839TIP3    H145008   1.847   1.979  16.549  0.9348  1.7656  0.1642
 7839TIP3    H245009   1.836   1.870  16.653 -0.7314  0.1736 -1.5971
 7840TIP3   OH245010   1.090   4.565   0.319  0.2187  0.7850  0.4213
 7840TIP3    H145011   1.122   4.566   0.229  1.4325 -0.8208  0.7770
 7840TIP3    H245012   1.162   4.602   0.370  0.6936 -0.8419  0.9934
 7841TIP3   OH245013   2.347   5.791  15.407  0.1694  0.4187 -0.2330
 7841TIP3    H145014   2.332   5.697  15.394  0.5324  0.4919 -1.3158
 7841TIP3    H245015   2.381   5.798  15.496 -1.9928 -0.2145  0.6942
 7842TIP3   OH245016   3.047   0.082   5.375 -0.5614 -0.0922 -0.2907
 7842TIP3    H145017   3.059   0.038   5.291 -0.4829  0.8190 -0.7705
 7842TIP3    H245018   2.956   0.111   5.374 -0.4492  0.2673 -0.2337
 7843TIP3   OH245019   3.748   3.581  14.684 -0.0243  0.1958  0.0495
 7843TIP3    H145020   3.838   3.611  14.696  0.6770 -0.8708 -2.1090
 7843TIP3    H245021   3.706   3.598  14.769  1.6915  2.3505  0.5719
 7844TIP3   OH245022   2.346   1.150  17.057 -1.0517 -0.4434 -1.0393
 7844TIP3    H145023   2.365   1.121  17.147 -0.0615  1.1544 -0.6893
 7844TIP3    H245024   2.269   1.207  17.066  0.9763  2.4015 -0.6126
 7845TIP3   OH245025   0.375   4.390  16.058 -0.5173  0.4174 -0.3316
 7845TIP3    H145026   0.389   4.484  16.072  0.4119  0.0598  1.3070
 7845TIP3    H245027   0.304   4.367  16.119  0.9815 -0.4123  1.1685
 7846TIP3   OH245028   2.577   4.088   3.832  0.5391 -0.7758 -0.1120
 7846TIP3    H145029   2.500   4.113   3.884  0.1401 -1.1737 -0.5022
 7846TIP3    H245030   2.603   4.003   3.867  1.8334  0.0950  1.1471
 7847TIP3   OH245031   0.336   0.830  15.196  0.1336 -0.0810 -0.4233
 7847TIP3    H145032   0.343   0.734  15.195  0.4838 -0.0851  1.1946
 7847TIP3    H245033   0.397   0.859  15.129  0.9008 -0.9496 -0.1208
 7848TIP3   OH245034   0.605   3.149   1.907  0.2200 -0.4950 -0.0163
 7848TIP3    H145035   0.588   3.211   1.837 -1.1770  0.3396  0.9975
 7848TIP3    H245036   0.596   3.201   1.988  0.1792 -1.7569  0.8190
 7849TIP3   OH245037   4.244   2.200   1.289 -0.4876  0.0483  0.0876
 7849TIP3    H145038   4.203   2.243   1.364  0.5485 -1.0352  1.3180
 7849TIP3    H245039   4.170   2.172   1.234 -1.5068 -1.9800  2.3109
 7850TIP3   OH245040   2.447   0.148   2.141 -0.0645  0.1898 -0.3779
 7850TIP3    H145041   2.409   0.152   2.053 -0.4873  3.0012 -0.1741
 7850TIP3    H245042   2.377   0.114   2.196 -0.0101 -0.9737 -0.9880
 7851TIP3   OH245043   6.356   2.651  17.085 -0.1659 -0.1486  0.2420
 7851TIP3    H145044   6.451   2.640  17.091 -0.1456 -1.2987 -1.5263
 7851TIP3    H245045   6.323   2.563  17.068 -1.3657  0.4942 -0.9017
 7852TIP3   OH245046   3.203   6.801  16.718  0.1869 -0.0856  0.1011
 7852TIP3    H145047   3.298   6.790  16.713  0.3499  1.5528 -1.5488
 7852TIP3    H245048   3.169   6.765  16.636 -0.7810 -1.7205  1.1731
 7853TIP3   OH245049   0.299   6.661   5.147 -0.6323 -0.2550 -0.0706
 7853TIP3    H145050   0.339   6.646   5.061  1.5575  0.1024  0.8193
 7853TIP3    H245051   0.338   6.593   5.203 -0.4818  0.7390  1.0609
 7854TIP3   OH245052   5.570   5.647  16.088  0.8016 -0.0298 -0.0097
 7854TIP3    H145053   5.659   5.625  16.116  0.1609 -0.5581  1.7294
 7854TIP3    H245054   5.527   5.677  16.167 -1.1739 -1.7301 -0.3541
 7855TIP3   OH245055   6.209   3.607   5.805 -0.0204 -0.4112 -0.2085
 7855TIP3    H145056   6.180   3.526   5.763 -2.4523 -0.0340  0.6008
 7855TIP3    H245057   6.191   3.593   5.898 -0.8214  1.1671 -0.0978
 7856TIP3   OH245058   5.924   1.365  14.301  0.2115 -0.0805  0.5542
 7856TIP3    H145059   5.849   1.342  14.357  1.1684 -1.3085  1.3835
 7856TIP3    H245060   5.907   1.320  14.219 -0.6845  0.8831  0.1840
 7857TIP3   OH245061   3.893   1.661   1.077 -0.4443  0.3295  0.3140
 7857TIP3    H145062   3.906   1.744   1.123  0.1687 -0.4231  1.5341
 7857TIP3    H245063   3.816   1.622   1.120 -1.0051  0.4514 -0.5533
 7858TIP3   OH245064   3.236   2.095   2.316 -0.6187 -0.8462 -0.4891
 7858TIP3    H145065   3.276   2.140   2.390  1.5428 -1.0075 -1.4884
 7858TIP3    H245066   3.178   2.160   2.276  0.4554  0.1956 -0.3884
 7859TIP3   OH245067   6.216   0.726   6.380  1.0898  0.3225  0.5692
 7859TIP3    H145068   6.155   0.786   6.338 -0.0308 -1.9042 -1.1726
 7859TIP3    H245069   6.300   0.771   6.377  0.3611  1.6805 -0.9485
 7860TIP3   OH245070   6.689   1.490   5.469 -0.4629 -0.1909  0.3705
 7860TIP3    H145071   6.723   1.409   5.508  1.9667 -0.8826 -2.7434
 7860TIP3    H245072   6.744   1.559   5.506  0.1333 -0.5127  0.1076
 7861TIP3   OH245073   5.646   5.345   3.871  0.1685  0.6173 -0.0779
 7861TIP3    H145074   5.580   5.337   3.802 -0.8962 -1.2788  1.0964
 7861TIP3    H245075   5.721   5.294   3.838  0.4179  1.3233 -0.6406
 7862TIP3   OH245076   4.303   5.904  13.643 -0.4110  0.7497 -1.0047
 7862TIP3    H145077   4.394   5.873  13.638 -0.0828  1.8157 -2.2802
 7862TIP3    H245078   4.307   5.980  13.702 -0.4903  0.7477 -0.9969
 7863TIP3   OH245079   1.153   3.388  12.928  0.2899 -0.0938  0.3088
 7863TIP3    H145080   1.156   3.412  12.836 -0.8765 -1.6192 -0.1719
 7863TIP3    H245081   1.072   3.338  12.937 -0.5656  1.5346  2.5729
 7864TIP3   OH245082   2.954   2.622   4.947 -1.2331  0.0169  0.3409
 7864TIP3    H145083   2.960   2.528   4.959  0.2445  0.0576  0.1083
 7864TIP3    H245084   2.908   2.633   4.864 -0.7062 -0.5181 -0.0250
 7865TIP3   OH245085   0.290   4.019  15.217  0.0895  0.2643 -0.3424
 7865TIP3    H145086   0.208   3.985  15.180 -0.9611  0.2067  1.9042
 7865TIP3    H245087   0.281   4.114  15.210 -0.9276  0.3204  1.3414
 7866TIP3   OH245088   2.286   1.658  12.378 -0.4090  0.3027 -0.7906
 7866TIP3    H145089   2.220   1.721  12.405 -1.5807 -0.5095 -1.6738
 7866TIP3    H245090   2.275   1.584  12.437  1.6835  1.2758  0.9564
 7867TIP3   OH245091   5.118   0.117  14.331 -0.5530 -0.5624 -0.1319
 7867TIP3    H145092   5.043   0.172  14.353  0.3788  0.0167  1.7853
 7867TIP3    H245093   5.168   0.169  14.269 -0.6761 -0.0656  0.1775
 7868TIP3   OH245094   1.296   0.788  12.933  0.2795 -0.0223  0.4493
 7868TIP3    H145095   1.323   0.862  12.988  2.1049 -0.2822 -0.0158
 7868TIP3    H245096   1.255   0.828  12.857  1.0160  0.5327  0.3252
 7869TIP3   OH245097   2.057   3.583   1.615 -0.3477  0.1338 -0.1287
 7869TIP3    H145098   1.984   3.565   1.674 -0.3889  0.5141 -0.0574
 7869TIP3    H245099   2.018   3.630   1.542 -0.0313  1.2710  0.4037
 7870TIP3   OH245100   2.641   5.877  11.793 -0.1451  0.2549  0.0339
 7870TIP3    H145101   2.598   5.819  11.856 -0.6655 -0.5188 -1.0085
 7870TIP3    H245102   2.714   5.826  11.759  0.2410  0.7346  0.1298
 7871TIP3   OH245103   1.024   2.822   0.249 -0.3931  0.2353  0.1439
 7871TIP3    H145104   1.016   2.875   0.329 -2.8604  1.6684 -0.9289
 7871TIP3    H245105   1.045   2.885   0.180 -1.8045 -0.3819 -0.9043
 7872TIP3   OH245106   5.571   5.530   2.128  0.2514  0.4365 -0.0341
 7872TIP3    H145107   5.486   5.538   2.172  0.8109 -0.8678  1.3949
 7872TIP3    H245108   5.555   5.468   2.057  0.1224 -0.3099  0.6268
 7873TIP3   OH245109   3.251   0.540  15.984 -0.0537 -0.0665 -0.3154
 7873TIP3    H145110   3.285   0.620  16.025 -0.1479  0.4460 -1.2221
 7873TIP3    H245111   3.165   0.565  15.951 -0.0946 -0.5535 -0.5730
 7874TIP3   OH245112   5.146   1.553  12.449  0.1240  0.1048  0.1126
 7874TIP3    H145113   5.061   1.516  12.424  0.4647 -1.0750  0.6840
 7874TIP3    H245114   5.125   1.643  12.476 -0.4786  0.9948 -2.9012
 7875TIP3   OH245115   4.310   3.721   1.083 -0.2465 -0.2072 -0.4941
 7875TIP3    H145116   4.277   3.670   1.157  0.5481 -2.2152 -1.4328
 7875TIP3    H245117   4.242   3.787   1.067  0.2355  1.3231  2.9082
 7876TIP3   OH245118   5.648   0.427   4.414  0.6443 -0.3238 -0.0888
 7876TIP3    H145119   5.713   0.494   4.436  2.5700 -1.5114 -1.8617
 7876TIP3    H245120   5.691   0.371   4.350 -1.4382 -2.3946  0.1780
 7877TIP3   OH245121   0.920   6.110   0.224  0.3430  0.3280 -0.0719
 7877TIP3    H145122   0.830   6.096   0.255  0.0565  2.2922  0.1408
 7877TIP3    H245123   0.951   6.184   0.277  1.6190  0.5078 -1.0523
 7878TIP3   OH245124   1.800   0.126   3.471  0.7076  0.3881 -0.7056
 7878TIP3    H145125   1.867   0.074   3.427 -0.2537 -0.2185 -1.4834
 7878TIP3    H245126   1.824   0.217   3.450  0.9608  0.1572 -1.4611
 7879TIP3   OH245127   0.719   0.870   5.406 -0.2663 -0.5777  0.5823
 7879TIP3    H145128   0.801   0.914   5.383  0.6717 -1.9127  1.2052
 7879TIP3    H245129   0.705   0.807   5.336 -0.5804 -0.5764  0.6414
 7880TIP3   OH245130   4.912   0.523  15.999 -0.2497 -0.0910  0.3991
 7880TIP3    H145131   4.972   0.492  16.066 -0.9628  0.9742  1.5814
 7880TIP3    H245132   4.965   0.531  15.920  0.7338 -0.8294  0.9734
 7881TIP3   OH245133   2.406   4.211  15.379  1.1117  0.0860  0.1275
 7881TIP3    H145134   2.501   4.198  15.382  0.9906 -1.5427 -1.2130
 7881TIP3    H245135   2.386   4.214  15.285 -0.1730  0.3665  0.3955
 7882TIP3   OH245136   3.088   2.886  12.007 -0.3971  0.3764  0.6675
 7882TIP3    H145137   3.163   2.893  12.067 -0.8279  1.7179  1.0941
 7882TIP3    H245138   3.117   2.824  11.940  1.2556  1.1442  0.6123
 7883TIP3   OH245139   0.784   5.412   1.574 -0.5872 -0.4780 -0.0688
 7883TIP3    H145140   0.710   5.472   1.572 -1.6965 -1.7946 -2.1816
 7883TIP3    H245141   0.749   5.330   1.607  0.3846 -0.6344  0.6352
 7884TIP3   OH245142   0.701   6.024   4.399 -0.1857  0.5865  0.7104
 7884TIP3    H145143   0.770   5.972   4.358 -1.7589  0.0677 -1.4369
 7884TIP3    H245144   0.704   6.108   4.353 -1.7194  0.1424 -0.2613
 7885TIP3   OH245145   5.139   6.122   5.363  0.2288 -0.0608 -0.3733
 7885TIP3    H145146   5.104   6.041   5.400  0.7165  0.1348  0.5758
 7885TIP3    H245147   5.136   6.184   5.436 -0.7636  0.9860 -1.2605
 7886TIP3   OH245148   4.671   0.080   2.058  0.1072  0.5193  0.2247
 7886TIP3    H145149   4.665   0.123   1.973  1.6880  0.6004  0.1206
 7886TIP3    H245150   4.630   0.141   2.119 -1.4396  0.2695 -0.5079
 7887TIP3   OH245151   3.193   6.805   1.002 -0.3649 -0.2263 -0.0606
 7887TIP3    H145152   3.209   6.822   1.095  0.2623  0.0059 -0.2010
 7887TIP3    H245153   3.172   6.891   0.966 -0.4078 -0.2830 -0.1690
 7888TIP3   OH245154   2.711   4.678   3.170 -0.1370 -0.5200  0.0879
 7888TIP3    H145155   2.797   4.673   3.128 -0.4518  2.3657 -1.1258
 7888TIP3    H245156   2.656   4.726   3.108 -1.7189  0.6198  2.2269
 7889TIP3   OH245157   0.308   2.373  12.686 -0.3006 -0.0110  0.0941
 7889TIP3    H145158   0.354   2.417  12.615  1.4858 -1.3745  0.3223
 7889TIP3    H245159   0.232   2.332  12.644  0.4219 -0.3214 -0.9478
 7890TIP3   OH245160   0.595   0.188  11.904  0.3095  0.2033 -0.2372
 7890TIP3    H145161   0.513   0.141  11.917  0.2318  0.7994  1.6659
 7890TIP3    H245162   0.645   0.133  11.844 -0.8181 -0.9797 -0.1224
 7891TIP3   OH245163   5.371   3.964  13.837  0.5596  0.1587  0.7341
 7891TIP3    H145164   5.364   3.936  13.745 -1.1099  0.1444  0.8423
 7891TIP3    H245165   5.405   4.054  13.832  2.8793 -0.6838  0.2456
 7892TIP3   OH245166   0.421   5.002  12.492  0.1333  0.0178 -0.5094
 7892TIP3    H145167   0.465   4.930  12.537  0.7401  1.0709  0.6235
 7892TIP3    H245168   0.491   5.051  12.450 -0.3013 -0.1540 -1.4709
 7893TIP3   OH245169   3.646   1.175   3.130 -0.2227 -0.2530 -0.2195
 7893TIP3    H145170   3.717   1.222   3.087  0.4492 -1.3963 -0.3920
 7893TIP3    H245171   3.606   1.124   3.060 -1.1107  0.2260 -0.0835
 7894TIP3   OH245172   2.679   2.572  11.016 -0.0407 -0.5413 -0.0207
 7894TIP3    H145173   2.703   2.620  10.937  1.7662 -1.0847  0.1440
 7894TIP3    H245174   2.749   2.507  11.027 -0.2810 -0.5448  1.9676
 7895TIP3   OH245175   5.328   0.288   3.380  0.6398 -0.0879 -0.2185
 7895TIP3    H145176   5.388   0.234   3.330  0.9113 -0.1190  0.1342
 7895TIP3    H245177   5.242   0.248   3.366  0.5639  0.4527 -1.4069
 7896TIP3   OH245178   6.430   3.673  11.912  0.3830  0.7426  0.2592
 7896TIP3    H145179   6.342   3.653  11.943 -0.2381 -0.0311 -1.8217
 7896TIP3    H245180   6.442   3.616  11.836  2.0058  2.0922 -0.5590
 7897TIP3   OH245181   1.184   3.269  12.095  0.1700 -0.0779  0.1420
 7897TIP3    H145182   1.225   3.208  12.156 -0.6936 -0.9156 -0.0898
 7897TIP3    H245183   1.254   3.330  12.070  0.6631 -0.0517  1.5395
 7898TIP3   OH245184   2.535   4.058   3.288 -0.3708  0.3452 -0.0092
 7898TIP3    H145185   2.606   4.007   3.249  1.1957 -0.2082  3.1882
 7898TIP3    H245186   2.466   3.994   3.305 -0.2526  0.1980 -0.0834
 7899TIP3   OH245187   0.431   0.434  13.803  0.3699  0.8930  0.0480
 7899TIP3    H145188   0.480   0.497  13.750  0.3624 -0.5436 -1.7548
 7899TIP3    H245189   0.388   0.377  13.740 -1.1985  0.2385  1.6086
 7900TIP3   OH245190   5.661   3.925   1.380  0.3540  0.2762  0.6205
 7900TIP3    H145191   5.655   4.020   1.366  0.2530  0.2601  0.5477
 7900TIP3    H245192   5.585   3.904   1.434  0.3190  0.2211  0.5499
 7901TIP3   OH245193   0.262   5.234   3.846 -0.0436 -0.6160  0.6864
 7901TIP3    H145194   0.204   5.243   3.771 -0.3207 -0.5803  0.9074
 7901TIP3    H245195   0.210   5.260   3.921  0.1546 -0.8938  0.9252
 7902TIP3   OH245196   3.315   0.429   1.831 -0.4214  0.0267 -0.3936
 7902TIP3    H145197   3.291   0.493   1.764  0.8381 -0.6040 -1.5029
 7902TIP3    H245198   3.270   0.349   1.804  1.3542 -0.6706 -1.4699
 7903TIP3   OH245199   5.675   1.572   3.530 -0.0384  0.7225  0.5563
 7903TIP3    H145200   5.639   1.581   3.441 -1.6890 -0.3793  1.0728
 7903TIP3    H245201   5.660   1.481   3.553  0.0926  1.0704  2.0968
 7904TIP3   OH245202   1.795   3.061  11.711 -0.0904  0.1781  0.4116
 7904TIP3    H145203   1.849   3.039  11.787  0.4402 -0.5303 -0.1486
 7904TIP3    H245204   1.858   3.083  11.642 -0.5531  0.4483  0.0626
 7905TIP3   OH245205   6.717   0.955   2.822 -0.2887 -0.0120 -0.0255
 7905TIP3    H145206   6.745   0.882   2.767 -0.2425 -0.2540  0.3144
 7905TIP3    H245207   6.678   0.913   2.899  0.2249  0.3108  0.4221
 7906TIP3   OH245208   2.447   0.183  10.994  0.3505  0.2924  0.3953
 7906TIP3    H145209   2.479   0.095  11.013  1.2460  0.2869 -0.9907
 7906TIP3    H245210   2.357   0.170  10.962 -0.1042  0.0544  1.7078
 7907TIP3   OH245211   6.201   3.465  14.544  0.1892  0.2417 -0.2847
 7907TIP3    H145212   6.117   3.512  14.539  0.9174  1.7988  1.0345
 7907TIP3    H245213   6.250   3.496  14.467  0.4105  1.1570  0.2136
 7908TIP3   OH245214   1.397   1.749  14.260 -0.0541  0.1060 -0.1374
 7908TIP3    H145215   1.451   1.793  14.325 -1.0278  1.5023 -0.2350
 7908TIP3    H245216   1.346   1.819  14.219 -1.9881 -1.1496  0.0003
 7909TIP3   OH245217   0.971   3.966   2.454  0.3215 -0.2491  0.6725
 7909TIP3    H145218   0.963   4.011   2.369  1.6019  0.4730  0.9121
 7909TIP3    H245219   0.917   4.017   2.513  1.4534  0.8091  0.8516
 7910TIP3   OH245220   4.571   3.645  15.074  0.2462  0.3411 -0.4014
 7910TIP3    H145221   4.648   3.700  15.092  1.0674 -0.7826 -0.3834
 7910TIP3    H245222   4.607   3.557  15.061 -1.0645 -0.2476 -0.1932
 7911TIP3   OH245223   0.680   0.993  11.021  0.0502  0.0500  0.2021
 7911TIP3    H145224   0.631   1.025  11.097  0.7278  0.5828  0.4203
 7911TIP3    H245225   0.731   0.919  11.056  0.7686  0.6294  0.3995
 7912TIP3   OH245226   3.629   1.630   2.635 -0.3272  0.1131 -0.2186
 7912TIP3    H145227   3.647   1.540   2.610  0.5601  0.0651  0.5371
 7912TIP3    H245228   3.691   1.682   2.586 -1.0688  0.3576 -0.9174
 7913TIP3   OH245229   5.229   5.738   1.917 -0.4835  0.7653  0.2385
 7913TIP3    H145230   5.135   5.735   1.899 -0.3579  1.6390 -0.6631
 7913TIP3    H245231   5.266   5.791   1.845  0.9914 -1.3473 -0.6658
 7914TIP3   OH245232   2.936   1.350   5.381 -0.6571 -0.1698  0.9939
 7914TIP3    H145233   3.022   1.391   5.372  0.1781 -1.6372  1.8905
 7914TIP3    H245234   2.888   1.407   5.441 -0.9733  1.5948 -0.8420
 7915TIP3   OH245235   3.867   1.690  11.454  0.4794 -0.2421  0.0089
 7915TIP3    H145236   3.865   1.633  11.532 -2.8228 -0.5404 -0.1485
 7915TIP3    H245237   3.853   1.778  11.488 -0.5609 -0.3236 -0.1760
 7916TIP3   OH245238   2.060   0.041  16.494  0.4326  0.4150 -0.0435
 7916TIP3    H145239   2.015   0.107  16.441 -0.8842 -1.1491 -0.9596
 7916TIP3    H245240   2.003   0.029  16.571  0.1874 -0.2777 -0.3246
 7917TIP3   OH245241   4.508   5.543  11.054  0.1950 -0.4255  0.7480
 7917TIP3    H145242   4.416   5.552  11.028 -0.0811  0.3321  1.8498
 7917TIP3    H245243   4.557   5.587  10.985 -0.4198  0.6423  0.9612
 7918TIP3   OH245244   4.742   4.445  15.490  0.3326 -0.0578  0.1676
 7918TIP3    H145245   4.769   4.475  15.404  1.9276  0.2511  0.7448
 7918TIP3    H245246   4.820   4.405  15.527 -0.4524 -0.5972  1.3056
 7919TIP3   OH245247   1.076   2.750  14.946  0.1350  0.7755 -0.0374
 7919TIP3    H145248   1.151   2.808  14.960 -0.4725  1.5289  0.1435
 7919TIP3    H245249   1.000   2.802  14.972 -0.2858 -0.8119  2.2439
 7920TIP3   OH245250   1.331   2.434   1.691  0.0303 -0.5848  0.0921
 7920TIP3    H145251   1.342   2.343   1.720 -0.9905 -0.6319  0.4037
 7920TIP3    H245252   1.362   2.486   1.765  1.5342 -0.6560 -0.4657
 7921TIP3   OH245253   3.097   6.428   2.115 -0.2771  0.1775  0.4553
 7921TIP3    H145254   3.060   6.377   2.043  1.3601 -1.5647  0.7817
 7921TIP3    H245255   3.184   6.453   2.085 -0.2199  0.9107  1.1850
 7922TIP3   OH245256   0.254   6.584   2.202 -0.7499 -0.5404 -0.0331
 7922TIP3    H145257   0.306   6.503   2.202  1.6492  0.8853  1.1754
 7922TIP3    H245258   0.225   6.594   2.111 -1.3661 -2.8735 -0.1519
 7923TIP3   OH245259   2.906   4.417  12.137 -0.1146  0.7046  0.1270
 7923TIP3    H145260   2.995   4.443  12.112  0.4684 -0.6202  0.7238
 7923TIP3    H245261   2.905   4.322  12.127 -1.5049  0.6991  0.0470
 7924TIP3   OH245262   1.580   6.377   1.604  0.0782 -0.6127 -0.1245
 7924TIP3    H145263   1.643   6.348   1.670  1.1623  0.6815 -0.5322
 7924TIP3    H245264   1.548   6.461   1.636 -0.7961 -0.8537 -0.3490
 7925TIP3   OH245265   0.260   6.003   3.415  0.4314 -0.6179  0.2092
 7925TIP3    H145266   0.332   6.021   3.354  0.5584 -0.8816  0.2787
 7925TIP3    H245267   0.192   5.962   3.361  0.7813 -1.4058  0.3525
 7926TIP3   OH245268   3.252   5.851  12.726 -0.1366 -0.7232 -0.0927
 7926TIP3    H145269   3.314   5.778  12.730  0.4273 -0.2775 -0.4914
 7926TIP3    H245270   3.166   5.811  12.743  0.3540 -1.2028  1.3401
 7927TIP3   OH245271   1.756   6.588   3.929 -0.0731  0.5869  0.4460
 7927TIP3    H145272   1.733   6.495   3.930 -2.2875  1.0767  0.7666
 7927TIP3    H245273   1.850   6.590   3.945  0.2226 -1.6380 -0.6354
 7928TIP3   OH245274   3.890   5.422   1.528 -0.4739  0.4430 -0.2747
 7928TIP3    H145275   3.906   5.515   1.542  1.4404  0.0210  0.5223
 7928TIP3    H245276   3.952   5.396   1.460 -0.2058 -0.4852  0.3039
 7929TIP3   OH245277   0.819   4.916  12.696  0.4603 -0.4577 -0.1905
 7929TIP3    H145278   0.857   4.964  12.769 -1.1013 -0.2621  0.5190
 7929TIP3    H245279   0.888   4.855  12.669  1.2397 -0.1732  1.0919
 7930TIP3   OH245280   0.555   1.595   3.474 -0.5185 -0.1196  0.1935
 7930TIP3    H145281   0.548   1.536   3.549 -0.7765  0.9365  1.0206
 7930TIP3    H245282   0.499   1.670   3.496 -1.0532 -0.0359 -1.3007
 7931TIP3   OH245283   4.943   4.475   5.559  0.2510  0.5951 -0.1845
 7931TIP3    H145284   4.974   4.497   5.647  0.3041  1.9964 -0.5387
 7931TIP3    H245285   4.900   4.390   5.570  1.4755  0.0858  0.9189
 7932TIP3   OH245286   2.232   2.362   4.625  0.5743  0.1440  0.6572
 7932TIP3    H145287   2.157   2.415   4.597  1.0119 -0.1379 -1.2070
 7932TIP3    H245288   2.301   2.384   4.564  2.0994  0.4974  2.4301
 7933TIP3   OH245289   1.159   3.951  12.057 -0.7857  0.1013  0.6499
 7933TIP3    H145290   1.116   3.991  12.133  0.1230 -0.1758  1.3300
 7933TIP3    H245291   1.106   3.977  11.982 -1.9306  0.0515  1.4254
 7934TIP3   OH245292   3.063   0.216   2.760 -0.1643 -0.2747 -0.3855
 7934TIP3    H145293   2.997   0.164   2.805 -0.7546 -0.7916 -1.7832
 7934TIP3    H245294   3.043   0.307   2.784  0.5888 -0.6143  1.6975
 7935TIP3   OH245295   6.401   4.278  17.195 -0.3969  0.4625  0.4324
 7935TIP3    H145296   6.482   4.240  17.229 -0.9822 -1.2831 -0.0297
 7935TIP3    H245297   6.331   4.225  17.234 -1.3522  2.0693  0.9910
 7936TIP3   OH245298   3.919   4.918   3.536 -0.0074  0.0116 -0.2945
 7936TIP3    H145299   4.001   4.964   3.519  0.6160 -1.1069 -0.4294
 7936TIP3    H245300   3.932   4.874   3.619  0.2803 -1.7293 -1.2080
 7937TIP3   OH245301   2.247   6.205  16.848  0.3109  0.5215 -0.4592
 7937TIP3    H145302   2.225   6.120  16.887  1.6661 -0.6398 -2.0861
 7937TIP3    H245303   2.310   6.244  16.910  1.6892 -0.8577 -0.9398
 7938TIP3   OH245304   4.105   2.029   0.729  0.5085 -0.2284 -0.1282
 7938TIP3    H145305   4.158   2.047   0.651 -0.0739 -0.5404 -0.5962
 7938TIP3    H245306   4.155   1.962   0.776  0.8099 -0.1162 -0.2828
 7939TIP3   OH245307   4.609   1.684   5.225  0.3971  0.5684 -0.7485
 7939TIP3    H145308   4.561   1.630   5.162 -0.8356 -0.7557  1.2119
 7939TIP3    H245309   4.625   1.626   5.299  0.4554  2.4596  0.7885
 7940TIP3   OH245310   5.873   1.510   6.438  0.4586 -0.0193 -0.0231
 7940TIP3    H145311   5.932   1.571   6.482  2.6074 -2.2071  0.3011
 7940TIP3    H245312   5.905   1.506   6.348  2.0828 -2.5712  0.5796
 7941TIP3   OH245313   1.365   2.820  10.947  0.3373  0.6033  0.5627
 7941TIP3    H145314   1.402   2.739  10.913  0.2120  0.6060  0.4193
 7941TIP3    H245315   1.403   2.828  11.035 -1.7757 -1.0768  1.7329
 7942TIP3   OH245316   1.658   3.953  14.831 -0.6797 -0.1891 -0.3226
 7942TIP3    H145317   1.695   3.939  14.918 -2.3580  0.5687  0.5715
 7942TIP3    H245318   1.625   3.867  14.805  0.5057 -0.5857 -0.5751
 7943TIP3   OH245319   0.536   2.321  14.465 -0.5514 -0.6692 -0.1793
 7943TIP3    H145320   0.566   2.274  14.542  0.8685 -0.8569 -0.8261
 7943TIP3    H245321   0.595   2.395  14.457 -1.5561  0.1506 -0.3054
 7944TIP3   OH245322   0.147   6.616  16.714 -0.1193  0.0510 -0.7153
 7944TIP3    H145323   0.199   6.563  16.775 -0.3012  1.8228  1.0705
 7944TIP3    H245324   0.211   6.648  16.650  0.7167  0.8181  0.4711
 7945TIP3   OH245325   1.363   0.510  11.968  0.8483 -0.4645  0.5689
 7945TIP3    H145326   1.342   0.428  11.923  0.4264 -1.4668  2.4876
 7945TIP3    H245327   1.384   0.571  11.897 -1.0875 -1.5534 -1.0508
 7946TIP3   OH245328   0.823   2.167   2.374  0.1088 -0.1670  0.0830
 7946TIP3    H145329   0.918   2.165   2.385  0.0470 -1.0027  0.5835
 7946TIP3    H245330   0.791   2.095   2.429 -0.9006  0.7208  0.7030
 7947TIP3   OH245331   5.498   2.725  13.024 -0.3173 -0.3821 -0.2750
 7947TIP3    H145332   5.466   2.689  13.106 -1.9135  1.4757 -0.0236
 7947TIP3    H245333   5.591   2.701  13.022 -0.5330 -1.5274  1.4456
 7948TIP3   OH245334   4.656   0.345  16.124 -0.0565  0.7825  0.2927
 7948TIP3    H145335   4.736   0.349  16.071 -1.1282  0.1771 -1.4692
 7948TIP3    H245336   4.649   0.252  16.147  0.8075  1.1485  2.2560
 7949TIP3   OH245337   5.071   1.854  12.268  0.4284  0.1418 -0.1500
 7949TIP3    H145338   5.049   1.884  12.180 -0.3329  2.7083  0.8286
 7949TIP3    H245339   5.166   1.862  12.273  0.5525 -0.6366 -0.9015
 7950TIP3   OH245340   2.753   4.209  12.496 -0.8811  0.3064 -0.3921
 7950TIP3    H145341   2.773   4.116  12.493 -1.1095  0.1656  1.2830
 7950TIP3    H245342   2.694   4.219  12.571 -0.6878  1.8157 -0.3982
 7951TIP3   OH245343   6.791   3.546   6.124  0.1799  0.0736 -0.1656
 7951TIP3    H145344   6.751   3.613   6.179  0.1434  0.6462 -0.8836
 7951TIP3    H245345   6.871   3.521   6.170  1.2358  2.0229 -0.8385
 7952TIP3   OH245346   4.124   2.183  17.260 -0.2485 -0.3420  0.1299
 7952TIP3    H145347   4.128   2.250  17.192  0.5817 -0.5440 -0.0301
 7952TIP3    H245348   4.212   2.145  17.262 -0.7902 -1.6588 -0.0097
 7953TIP3   OH245349   1.966   5.577   1.992  0.1042  0.2232  0.3520
 7953TIP3    H145350   1.897   5.525   1.950  0.8297 -0.9030  0.4889
 7953TIP3    H245351   1.933   5.592   2.081 -0.3542  0.4758  0.1435
 7954TIP3   OH245352   0.485   0.830  17.131 -0.3062 -0.0531  0.3836
 7954TIP3    H145353   0.432   0.903  17.165 -2.2108  0.4865 -3.1993
 7954TIP3    H245354   0.567   0.872  17.104 -0.3905  0.2895  0.6452
 7955TIP3   OH245355   5.139   0.898   4.409 -0.0895 -0.3355 -0.0583
 7955TIP3    H145356   5.116   0.807   4.389 -1.0371  0.2586 -1.9171
 7955TIP3    H245357   5.172   0.933   4.325  1.7218  0.6291  0.9899
 7956TIP3   OH245358   2.001   2.832   4.437 -0.1955  0.5207 -0.1279
 7956TIP3    H145359   2.016   2.873   4.351 -2.5654  0.4784 -0.6290
 7956TIP3    H245360   1.907   2.813   4.438 -0.0010 -0.5751  2.0242
 7957TIP3   OH245361   0.073   1.296   6.318  0.1481 -0.4957  0.2221
 7957TIP3    H145362   0.115   1.341   6.392 -0.5941 -0.1352  0.4291
 7957TIP3    H245363   0.097   1.349   6.242 -0.6353  0.2179  0.4517
 7958TIP3   OH245364   6.271   5.784  17.032  0.5048 -0.1391 -0.1475
 7958TIP3    H145365   6.312   5.714  16.981 -1.2852  0.2160 -2.1985
 7958TIP3    H245366   6.340   5.849  17.042  1.1804 -0.6431 -1.3208
 7959TIP3   OH245367   4.457   3.388  12.793 -0.9654 -0.4031  0.1194
 7959TIP3    H145368   4.538   3.379  12.843  0.8365  0.4539 -2.4484
 7959TIP3    H245369   4.412   3.305  12.804  0.6782 -1.2191  0.9481
 7960TIP3   OH245370   2.094   6.228   4.990 -0.3792 -0.2236 -0.1889
 7960TIP3    H145371   2.124   6.151   5.039  1.3725  1.2105  1.1420
 7960TIP3    H245372   2.030   6.270   5.048 -0.8168 -0.2831 -0.6163
 7961TIP3   OH245373   5.952   2.140  16.831 -0.1299 -0.3921 -0.1664
 7961TIP3    H145374   5.987   2.218  16.873  1.0726 -1.1209  0.2336
 7961TIP3    H245375   5.860   2.136  16.860 -0.1391  0.7256 -0.0125
 7962TIP3   OH245376   0.562   2.243   1.095  0.5441  0.5379 -1.3640
 7962TIP3    H145377   0.620   2.231   1.170  0.4645 -0.5538 -1.4569
 7962TIP3    H245378   0.478   2.206   1.123 -0.3029  2.5733 -1.0425
 7963TIP3   OH245379   5.877   3.662  12.772  0.0920  1.0580  0.1812
 7963TIP3    H145380   5.826   3.739  12.797  1.5840  1.7839  1.1153
 7963TIP3    H245381   5.879   3.608  12.851  0.2219  0.7312 -0.0452
 7964TIP3   OH245382   3.776   0.963  14.867  0.3626 -0.4913  0.4523
 7964TIP3    H145383   3.774   1.040  14.810  2.0065 -0.6621  0.1021
 7964TIP3    H245384   3.705   0.977  14.929 -0.5078  0.4412 -0.6966
 7965TIP3   OH245385   3.278   4.923  14.690  0.1553  0.0300  0.7024
 7965TIP3    H145386   3.235   5.001  14.655 -0.0098 -0.4835 -0.2815
 7965TIP3    H245387   3.372   4.941  14.680  0.1162  0.0798  0.4123
 7966TIP3   OH245388   0.343   4.025  15.909 -0.5885 -0.1183  0.4605
 7966TIP3    H145389   0.400   4.092  15.872 -1.7615  0.4227 -0.4567
 7966TIP3    H245390   0.294   4.069  15.978 -1.4204  0.0257 -0.1970
 7967TIP3   OH245391   5.218   6.325   3.063  0.4288 -0.3935 -0.4573
 7967TIP3    H145392   5.244   6.252   3.118  0.3751  0.3685  0.6138
 7967TIP3    H245393   5.127   6.343   3.089  0.5751  0.3080 -0.4207
 7968TIP3   OH245394   6.038   0.812  11.453  0.3077  0.0977  0.5123
 7968TIP3    H145395   5.944   0.802  11.466  0.4800  0.9185  2.9621
 7968TIP3    H245396   6.073   0.722  11.456 -0.3620 -0.1813 -0.0560
 7969TIP3   OH245397   3.497   5.422  16.951 -0.1799  0.2115 -0.4393
 7969TIP3    H145398   3.528   5.449  17.038  0.1231 -1.6112  0.0706
 7969TIP3    H245399   3.575   5.424  16.896 -0.0595 -0.0970 -0.2801
 7970TIP3   OH245400   3.073   1.531   3.093  0.2639 -0.1644  0.2439
 7970TIP3    H145401   3.116   1.578   3.164 -0.2548  1.1653 -0.2899
 7970TIP3    H245402   3.094   1.581   3.014 -0.8485 -0.4329 -0.2479
 7971TIP3   OH245403   6.035   5.823   1.319 -0.3241 -0.5170  0.2063
 7971TIP3    H145404   6.074   5.807   1.405  2.6488  2.6286 -0.3558
 7971TIP3    H245405   5.957   5.875   1.338 -0.6546 -1.2739  1.0214
 7972TIP3   OH245406   0.968   4.887  12.364 -0.8225 -0.3083 -0.0518
 7972TIP3    H145407   1.044   4.936  12.332 -1.5010  2.9620  2.7258
 7972TIP3    H245408   1.001   4.799  12.379  1.9161  0.5013 -0.6909
 7973TIP3   OH245409   1.634   1.488  13.064  0.0810 -0.2076 -0.2113
 7973TIP3    H145410   1.606   1.462  13.152 -0.0736  1.5278  0.2984
 7973TIP3    H245411   1.712   1.541  13.079 -0.2719  0.5681 -1.0724
 7974TIP3   OH245412   0.745   0.936   1.859 -0.2418 -0.0704  0.0080
 7974TIP3    H145413   0.764   1.030   1.858 -1.1572  0.2025  2.3452
 7974TIP3    H245414   0.668   0.927   1.803 -0.4351  0.6635  0.1391
 7975TIP3   OH245415   4.236   1.800  16.161 -0.1583 -0.0167 -0.0335
 7975TIP3    H145416   4.167   1.831  16.221  1.0669  0.8869  0.9683
 7975TIP3    H245417   4.228   1.857  16.084 -0.6365 -0.0282  0.0020
 7976TIP3   OH245418   5.134   0.545   0.849 -0.4667  0.0176  0.1382
 7976TIP3    H145419   5.210   0.594   0.882  1.2665 -1.3947 -1.5079
 7976TIP3    H245420   5.108   0.592   0.770  0.6931 -1.1949 -1.0001
 7977TIP3   OH245421   4.492   1.303  12.455  0.0804  0.2443 -0.0728
 7977TIP3    H145422   4.559   1.271  12.393  0.2949  0.1003  0.2311
 7977TIP3    H245423   4.492   1.238  12.525 -0.6284  0.0596 -0.2379
 7978TIP3   OH245424   5.280   3.932   2.569 -0.4815  0.5968 -0.2547
 7978TIP3    H145425   5.368   3.968   2.555 -0.0952 -0.5661 -0.9325
 7978TIP3    H245426   5.295   3.846   2.608 -1.2575 -0.1899 -1.6318
 7979TIP3   OH245427   3.344   0.591   6.134 -0.3386 -0.0773 -0.1996
 7979TIP3    H145428   3.353   0.525   6.202  1.3449  1.4773  1.1971
 7979TIP3    H245429   3.276   0.650   6.167 -0.7053 -0.2282 -0.6783
 7980TIP3   OH245430   2.162   1.871  14.210 -0.1320 -0.1622  0.4548
 7980TIP3    H145431   2.139   1.810  14.140  1.0641 -0.8837  0.6583
 7980TIP3    H245432   2.250   1.901  14.188  0.3412 -0.5446  1.7141
 7981TIP3   OH245433   6.238   2.796  11.613 -0.2921 -0.1761  0.2154
 7981TIP3    H145434   6.208   2.716  11.571  0.2769 -0.6029  0.6181
 7981TIP3    H245435   6.268   2.852  11.540 -1.7188  0.1316 -0.1690
 7982TIP3   OH245436   1.533   6.075  11.006 -0.2184  0.1203  0.5850
 7982TIP3    H145437   1.546   6.001  10.947  1.7623  0.8214  0.0457
 7982TIP3    H245438   1.541   6.152  10.949  2.2481  0.8261  1.7668
 7983TIP3   OH245439   4.223   1.912  12.695 -0.1558  0.5512 -0.5636
 7983TIP3    H145440   4.223   1.878  12.605 -1.6893 -1.3506  0.0630
 7983TIP3    H245441   4.156   1.980  12.694 -1.4565 -0.6620 -0.5371
 7984TIP3   OH245442   1.749   3.183   2.214  0.5493  0.1954  0.4298
 7984TIP3    H145443   1.830   3.209   2.171 -0.4166  0.2829 -1.4010
 7984TIP3    H245444   1.691   3.257   2.203 -0.2173 -0.3681  0.5980
 7985TIP3   OH245445   4.267   5.080   0.031  0.1797  0.0374 -0.0021
 7985TIP3    H145446   4.341   5.023   0.054  0.9266  1.0373  0.1777
 7985TIP3    H245447   4.303   5.140  -0.035 -1.3863 -1.5084 -2.3829
 7986TIP3   OH245448   3.928   1.186   0.556  0.3116  0.6431  0.4059
 7986TIP3    H145449   3.839   1.153   0.566 -0.1211  0.1568 -3.3899
 7986TIP3    H245450   3.982   1.127   0.607 -1.2929 -0.7572  0.5594
 7987TIP3   OH245451   3.014   2.832   1.180  0.1151  0.4604 -0.1337
 7987TIP3    H145452   3.011   2.738   1.164  0.7456  0.6304 -1.3221
 7987TIP3    H245453   3.018   2.839   1.276 -0.7612 -0.6798  0.0184
 7988TIP3   OH245454   5.190   0.224   1.439 -0.3692 -0.3163 -0.5516
 7988TIP3    H145455   5.189   0.317   1.416 -1.3594 -0.5914 -1.6882
 7988TIP3    H245456   5.151   0.220   1.526  1.6988  0.5440  0.4884
 7989TIP3   OH245457   6.146   4.353   4.650  0.1238  0.2563  0.3610
 7989TIP3    H145458   6.113   4.304   4.725 -2.4413  1.8576  0.4066
 7989TIP3    H245459   6.184   4.287   4.592 -1.4502 -1.5193  1.2688
 7990TIP3   OH245460   4.960   2.759  12.610 -0.3455 -0.0496  0.7026
 7990TIP3    H145461   4.929   2.723  12.693 -0.0780  0.0706  0.8510
 7990TIP3    H245462   5.000   2.685  12.565 -1.1938 -0.3088  0.3343
 7991TIP3   OH245463   3.119   1.725   5.643  0.1029 -0.3220 -0.5135
 7991TIP3    H145464   3.043   1.746   5.697  1.0590  1.2669  0.2779
 7991TIP3    H245465   3.114   1.630   5.631 -0.6055 -0.6150  1.6745
 7992TIP3   OH245466   0.398   2.040  12.189 -0.1092  0.3226 -0.4040
 7992TIP3    H145467   0.313   2.078  12.171 -0.6051 -0.3821  0.3373
 7992TIP3    H245468   0.432   2.090  12.263  0.3120  0.8790 -0.9732
 7993TIP3   OH245469   0.033   0.112  16.405 -0.1148 -0.5341 -0.8644
 7993TIP3    H145470   0.045   0.142  16.495 -2.1329  1.1540 -1.0896
 7993TIP3    H245471   0.112   0.139  16.359  0.4053 -0.3181  0.1371
 7994TIP3   OH245472   1.166   1.646   1.621  0.4203 -1.0331 -0.2512
 7994TIP3    H145473   1.112   1.585   1.672  0.5746 -1.0888 -0.1516
 7994TIP3    H245474   1.252   1.604   1.617  0.7720 -0.4371  0.5531
 7995TIP3   OH245475   0.758   1.119  10.774  0.0001  0.2306  0.2848
 7995TIP3    H145476   0.732   1.096  10.863 -1.8119 -1.1603 -0.5374
 7995TIP3    H245477   0.692   1.181  10.745  1.3598  1.7654  0.3200
 7996TIP3   OH245478   4.652   0.608  13.979 -0.6178  0.4565 -0.0350
 7996TIP3    H145479   4.573   0.648  14.018 -0.6570 -0.0874  0.4596
 7996TIP3    H245480   4.711   0.595  14.053  0.0096  1.0178 -0.4333
 7997TIP3   OH245481   3.556   1.844   0.527  0.3140 -0.2614 -0.2032
 7997TIP3    H145482   3.576   1.891   0.608  0.3449  0.0648 -0.3976
 7997TIP3    H245483   3.610   1.886   0.461 -0.4699  0.1478 -0.5978
 7998TIP3   OH245484   4.054   5.076  12.894  0.2162 -0.6997 -0.3828
 7998TIP3    H145485   3.991   5.025  12.945 -0.9891  1.2295  0.1423
 7998TIP3    H245486   4.132   5.082  12.950  0.2152 -1.5468 -0.2740
 7999TIP3   OH245487   1.793   3.175  15.658 -0.3931 -0.0148  0.1058
 7999TIP3    H145488   1.734   3.214  15.723  1.4318  2.4019  0.4700
 7999TIP3    H245489   1.836   3.104  15.705  0.4253  1.2814  1.4290
 8000TIP3   OH245490   6.258   3.200  15.209 -0.3791 -0.0753  0.2000
 8000TIP3    H145491   6.275   3.107  15.195 -2.0431 -0.1698 -1.6632
 8000TIP3    H245492   6.212   3.228  15.130 -0.1179  2.3008  0.8089
 8001TIP3   OH245493   0.397   5.762   0.463  0.8287  0.6916 -0.2916
 8001TIP3    H145494   0.334   5.790   0.397  2.1203  0.4764 -1.6629
 8001TIP3    H245495   0.475   5.816   0.447  1.6705 -0.3661  0.0988
 8002TIP3   OH245496   1.217   5.652   2.784 -0.2031 -0.1362  0.3066
 8002TIP3    H145497   1.199   5.618   2.697  2.1246 -2.5847  0.6271
 8002TIP3    H245498   1.160   5.601   2.842  0.3696 -0.6747  0.4194
 8003TIP3   OH245499   2.496   3.912  14.995 -0.1343 -0.6047 -0.0218
 8003TIP3    H145500   2.408   3.880  14.977 -0.0591 -0.2501 -1.1248
 8003TIP3    H245501   2.543   3.899  14.912  0.2795  1.0375 -0.0746
 8004TIP3   OH245502   3.165   4.222   4.309 -0.1769  0.0347  0.1564
 8004TIP3    H145503   3.089   4.281   4.307 -0.6209 -0.5456 -1.1734
 8004TIP3    H245504   3.215   4.246   4.231 -0.2988 -1.2451 -0.3368
 8005TIP3   OH245505   2.234   3.018   2.891 -0.3091  0.3405 -0.2228
 8005TIP3    H145506   2.264   3.051   2.806 -3.1998  1.7581 -0.7956
 8005TIP3    H245507   2.192   2.935   2.871 -0.9116  0.6309 -0.1676
 8006TIP3   OH245508   0.177   2.816  15.055 -0.0026  0.3500  0.1816
 8006TIP3    H145509   0.254   2.808  14.999  1.1439  1.3382  1.5444
 8006TIP3    H245510   0.208   2.863  15.132 -1.5502 -0.8540  1.6126
 8007TIP3   OH245511   1.294   1.536   5.268 -0.4256 -0.1608  0.3303
 8007TIP3    H145512   1.361   1.468   5.269 -1.0830 -0.9254 -1.9175
 8007TIP3    H245513   1.212   1.490   5.283 -0.7461  0.3461  0.1617
 8008TIP3   OH245514   4.242   5.720   2.500  0.1449 -0.0906  0.1723
 8008TIP3    H145515   4.318   5.776   2.483  0.7271 -0.6153  0.9739
 8008TIP3    H245516   4.204   5.703   2.414  3.1200 -2.9030 -0.7702
 8009TIP3   OH245517   0.538   1.064   4.608  0.2333 -0.0007  0.1023
 8009TIP3    H145518   0.498   1.042   4.692 -0.2986 -0.3950 -0.2436
 8009TIP3    H245519   0.592   0.988   4.586 -2.0603 -1.3220 -1.3714
 8010TIP3   OH245520   4.347   1.093  14.920  0.0032  0.3493  0.4713
 8010TIP3    H145521   4.287   1.031  14.879 -0.3589  1.3039 -0.4628
 8010TIP3    H245522   4.357   1.060  15.010 -1.3275 -0.2411  0.4270
 8011TIP3   OH245523   1.801   5.294  10.688 -0.2547  0.1964  0.4015
 8011TIP3    H145524   1.799   5.298  10.592 -1.9369  0.9438  0.4312
 8011TIP3    H245525   1.802   5.201  10.709  0.3935  0.0291 -0.3318
 8012TIP3   OH245526   5.665   6.275  14.999  0.4038  0.0133  0.3211
 8012TIP3    H145527   5.684   6.205  15.062 -0.6227 -0.1173  0.5020
 8012TIP3    H245528   5.732   6.265  14.931  0.1006 -1.3292  0.1896
 8013TIP3   OH245529   4.386   0.443  14.008  0.2137 -1.0212 -0.1841
 8013TIP3    H145530   4.344   0.497  13.940 -0.7749 -0.6202  0.7186
 8013TIP3    H245531   4.362   0.485  14.090  2.6133 -0.6202  0.4032
 8014TIP3   OH245532   4.123   6.301  10.959  0.0968  0.2564 -0.3606
 8014TIP3    H145533   4.153   6.358  10.888  0.5186  0.3507 -0.1128
 8014TIP3    H245534   4.202   6.285  11.011 -0.3613  0.8599  0.5449
 8015TIP3   OH245535   5.906   5.424   2.305 -0.2882  0.1567 -0.1485
 8015TIP3    H145536   5.904   5.490   2.236  0.9131  1.2011  0.7616
 8015TIP3    H245537   5.815   5.416   2.332 -0.8436 -0.5845 -2.1060
 8016TIP3   OH245538   1.261   2.350   4.781 -0.4084 -0.2240  0.3008
 8016TIP3    H145539   1.321   2.307   4.842  0.1914  0.7580  0.4187
 8016TIP3    H245540   1.317   2.399   4.722 -1.0421 -0.2993 -0.3856
 8017TIP3   OH245541   4.155   1.180  16.697 -0.0835  0.1257 -0.2694
 8017TIP3    H145542   4.153   1.093  16.655 -0.6568 -0.9733  1.9059
 8017TIP3    H245543   4.246   1.209  16.687  0.0077 -0.4791 -1.4425
 8018TIP3   OH245544   6.778   6.619  17.130  0.1095  0.1160 -0.0950
 8018TIP3    H145545   6.778   6.663  17.045  1.7968  1.7687  0.6914
 8018TIP3    H245546   6.709   6.552  17.122 -0.0172  0.4366 -2.6123
 8019TIP3   OH245547   0.160   5.201   4.521  0.0396 -0.4440 -0.1674
 8019TIP3    H145548   0.216   5.127   4.541 -0.2386 -0.6030  0.0304
 8019TIP3    H245549   0.177   5.263   4.592  1.7951  0.5738 -1.3807
 8020TIP3   OH245550   1.520   2.625   5.511 -0.2538 -0.2993 -0.0183
 8020TIP3    H145551   1.462   2.666   5.447  0.4089  1.4414  0.4301
 8020TIP3    H245552   1.523   2.686   5.584  2.2171 -0.2173 -0.0815
 8021TIP3   OH245553   1.492   5.620  10.873 -0.0975  0.1251  0.7945
 8021TIP3    H145554   1.537   5.704  10.861 -2.2713  1.1485 -0.7654
 8021TIP3    H245555   1.406   5.644  10.907 -0.9223 -1.4291 -0.1045
 8022TIP3   OH245556   3.017   6.085   5.359 -0.1473  0.3513  0.2170
 8022TIP3    H145557   2.992   6.160   5.412 -0.3198  2.4890 -2.6181
 8022TIP3    H245558   2.934   6.044   5.334 -0.2308  0.8264 -0.3168
 8023TIP3   OH245559   6.826   0.321  15.619 -0.6226  0.4352  0.4925
 8023TIP3    H145560   6.851   0.341  15.529  0.2872 -0.8659  0.4312
 8023TIP3    H245561   6.732   0.339  15.622 -0.4378  1.6617 -0.3672
 8024TIP3   OH245562   6.731   4.789   4.959 -0.3822 -0.1997  0.2656
 8024TIP3    H145563   6.807   4.731   4.975 -0.0902 -0.0021 -0.3901
 8024TIP3    H245564   6.658   4.729   4.944 -0.3156 -0.3919  0.6860
 8025TIP3   OH245565   0.889   5.532  16.783 -0.4343  0.0211  0.5982
 8025TIP3    H145566   0.850   5.480  16.712  1.0947  0.3955 -0.5823
 8025TIP3    H245567   0.858   5.621  16.766  0.5519  0.2459 -0.0924
 8026TIP3   OH245568   6.657   0.883   1.024  0.3697 -0.3227  0.0371
 8026TIP3    H145569   6.699   0.889   0.939  2.6593 -1.5548  0.9792
 8026TIP3    H245570   6.697   0.952   1.077 -0.3180 -0.1941  0.4159
 8027TIP3   OH245571   2.656   6.138  15.843  0.3243 -0.4075 -0.2516
 8027TIP3    H145572   2.698   6.053  15.835  0.3071 -0.5177  0.6666
 8027TIP3    H245573   2.644   6.169  15.753  0.5073 -1.2842 -0.5785
 8028TIP3   OH245574   1.365   1.935   1.944 -0.6288 -0.1161  0.1546
 8028TIP3    H145575   1.376   1.912   2.036  2.2681  1.4393  0.3146
 8028TIP3    H245576   1.278   1.902   1.921 -1.4051 -0.6486  3.3897
 8029TIP3   OH245577   6.458   3.582  10.734  0.2950  0.1553  0.1256
 8029TIP3    H145578   6.538   3.535  10.708  0.2868 -0.1273  0.5980
 8029TIP3    H245579   6.397   3.512  10.758  0.2900  0.4067  0.8653
 8030TIP3   OH245580   3.122   1.688   6.482  0.1141  0.6463  0.0656
 8030TIP3    H145581   3.045   1.632   6.486  0.7801 -0.3348 -0.4704
 8030TIP3    H245582   3.181   1.655   6.550  0.6778  0.4252 -0.5175
 8031TIP3   OH245583   6.132   1.619  16.822 -0.1928  0.0279 -0.2461
 8031TIP3    H145584   6.209   1.648  16.871  0.2010 -1.0554 -0.2090
 8031TIP3    H245585   6.069   1.691  16.832 -0.6160 -0.6387  2.9397
 8032TIP3   OH245586   0.946   4.772  16.896 -0.1910  0.0223 -0.3194
 8032TIP3    H145587   0.867   4.746  16.848  0.3440  0.5748 -1.5332
 8032TIP3    H245588   1.005   4.697  16.888  0.1796  0.3950 -1.1834
 8033TIP3   OH245589   4.411   2.151   4.100  0.2374 -0.3136 -0.6674
 8033TIP3    H145590   4.471   2.221   4.073  1.1812  0.0003  2.0122
 8033TIP3    H245591   4.463   2.071   4.095  0.5741 -0.1861  0.6353
 8034TIP3   OH245592   4.839   0.270  15.011  0.2692 -0.3818  0.2548
 8034TIP3    H145593   4.797   0.319  14.940  0.5460 -1.9246 -1.0285
 8034TIP3    H245594   4.865   0.187  14.971 -0.0875 -1.5528  2.3286
 8035TIP3   OH245595   1.558   1.703   2.550 -0.2060  0.0616 -0.4925
 8035TIP3    H145596   1.591   1.620   2.583  1.5651  0.5702 -0.8996
 8035TIP3    H245597   1.528   1.683   2.462 -2.3916 -0.7007  0.3531
 8036TIP3   OH245598   0.251   4.542  12.880  0.3232 -0.1541 -0.4230
 8036TIP3    H145599   0.314   4.483  12.921 -0.5590 -0.2039  0.9437
 8036TIP3    H245600   0.291   4.629  12.887 -0.2585 -0.0102  1.5621
 8037TIP3   OH245601   5.926   5.347  11.298 -0.0701  0.0445  0.1217
 8037TIP3    H145602   5.901   5.439  11.309  0.3856  0.2123 -0.2278
 8037TIP3    H245603   6.021   5.347  11.304 -0.0847 -0.4457  0.3972
 8038TIP3   OH245604   5.931   3.473  11.104 -0.0447  0.4747 -0.4088
 8038TIP3    H145605   5.978   3.553  11.128  1.0711 -0.4036  0.4496
 8038TIP3    H245606   5.946   3.464  11.010  2.9739 -0.6136  0.0615
 8039TIP3   OH245607   4.005   3.606   0.588 -0.3787 -0.0256 -0.4194
 8039TIP3    H145608   4.098   3.585   0.594 -0.7130 -2.1911 -1.5750
 8039TIP3    H245609   3.984   3.599   0.495 -1.7322  0.1874 -0.1577
 8040TIP3   OH245610   0.491   6.637  15.059 -0.0541 -0.0830  0.3263
 8040TIP3    H145611   0.573   6.677  15.090 -0.6997  1.6927 -0.1610
 8040TIP3    H245612   0.427   6.656  15.128 -0.5194  0.2405 -0.1930
 8041TIP3   OH245613   4.437   1.729  15.375  0.0650  0.0146 -0.2526
 8041TIP3    H145614   4.466   1.785  15.303  0.8827 -0.5984 -0.4150
 8041TIP3    H245615   4.518   1.692  15.411 -0.4956 -1.8020 -0.7641
 8042TIP3   OH245616   2.010   3.118   1.830  0.3027  0.9190  0.4765
 8042TIP3    H145617   2.040   3.193   1.779 -1.6313  0.7702 -1.0308
 8042TIP3    H245618   1.914   3.128   1.832  0.1852 -0.1899  2.3881
 8043TIP3   OH245619   3.494   2.910  14.001  0.5706  0.6546  0.4279
 8043TIP3    H145620   3.491   2.815  14.015 -1.1415  0.8665  1.7552
 8043TIP3    H245621   3.484   2.921  13.906  0.0721 -0.4701  0.3366
 8044TIP3   OH245622   1.011   5.672   3.745  0.0464  0.3699  0.3156
 8044TIP3    H145623   1.034   5.629   3.663  0.6932 -0.5283  0.9464
 8044TIP3    H245624   0.929   5.630   3.771 -0.9761  1.7243 -0.6135
 8045TIP3   OH245625   2.613   2.406   2.785  0.1576 -0.6967  0.4822
 8045TIP3    H145626   2.570   2.417   2.869  1.9106 -0.8380  1.4514
 8045TIP3    H245627   2.657   2.490   2.769  0.6330 -0.9892  0.2100
 8046TIP3   OH245628   0.676   1.996   1.028 -0.4163  0.1003 -0.3781
 8046TIP3    H145629   0.646   2.086   1.039 -1.5069 -0.1704 -0.9991
 8046TIP3    H245630   0.597   1.943   1.040  0.3247 -0.8254  0.6079
 8047TIP3   OH245631   3.444   0.673  16.817 -0.3427 -0.7773 -0.0607
 8047TIP3    H145632   3.474   0.728  16.745 -2.3427  0.4898 -0.0029
 8047TIP3    H245633   3.393   0.731  16.872 -0.8354 -2.2587  1.1252
 8048TIP3   OH245634   1.749   0.395   5.333  0.1162  0.3107 -0.6442
 8048TIP3    H145635   1.734   0.489   5.339 -1.6868  0.0423 -0.2828
 8048TIP3    H245636   1.830   0.380   5.382 -1.1640  1.3363  1.9867
 8049TIP3   OH245637   5.823   5.025  13.833  0.5008  0.4886 -0.6459
 8049TIP3    H145638   5.865   5.087  13.892  0.7847 -0.6571  0.4161
 8049TIP3    H245639   5.848   5.054  13.745  3.6164 -0.1048 -0.1018
 8050TIP3   OH245640   1.125   6.703  11.062  0.3252 -0.3964 -0.4780
 8050TIP3    H145641   1.092   6.616  11.036  2.5128 -1.4213 -0.0349
 8050TIP3    H245642   1.054   6.740  11.114  0.3119 -3.0951  1.6586
 8051TIP3   OH245643   3.826   6.267   6.173  0.1117  0.4396 -0.1716
 8051TIP3    H145644   3.747   6.243   6.125  1.8007 -0.6295 -2.5864
 8051TIP3    H245645   3.852   6.187   6.219 -0.2843  0.8453  0.7844
 8052TIP3   OH245646   3.896   5.838   4.664 -0.3811  0.7087  0.0506
 8052TIP3    H145647   3.848   5.792   4.734  1.4966 -0.7456  0.4444
 8052TIP3    H245648   3.858   5.804   4.583 -0.4552  0.0378  0.3581
 8053TIP3   OH245649   5.446   4.898   0.086  0.0145 -0.3887 -0.3459
 8053TIP3    H145650   5.473   4.828   0.145 -0.7638  1.5640  2.5749
 8053TIP3    H245651   5.528   4.929   0.047  0.5778 -1.6916 -0.2456
 8054TIP3   OH245652   1.980   2.734  16.857 -0.3526 -0.2969 -0.0398
 8054TIP3    H145653   1.907   2.688  16.815  0.0195 -0.4842 -0.4947
 8054TIP3    H245654   1.947   2.821  16.875 -0.0897  0.2764 -2.0412
 8055TIP3   OH245655   5.832   4.022  10.527 -0.1768 -0.0950 -0.1979
 8055TIP3    H145656   5.763   4.005  10.463  0.4452  1.9052 -1.4880
 8055TIP3    H245657   5.865   4.109  10.504  1.3348 -0.1065  1.7136
 8056TIP3   OH245658   2.228   0.336   2.716  0.6788  0.9181 -0.8127
 8056TIP3    H145659   2.219   0.314   2.809 -0.7104  0.6171 -0.9982
 8056TIP3    H245660   2.245   0.252   2.674  1.3823  1.0651 -0.8279
 8057TIP3   OH245661   0.260   0.860  13.911 -0.2776  0.7501  0.9919
 8057TIP3    H145662   0.298   0.808  13.982  1.4409  0.5011 -0.0697
 8057TIP3    H245663   0.169   0.828  13.905 -0.0845 -0.1143  2.2257
 8058TIP3   OH245664   6.687   3.430   3.845  0.5242 -0.0955  0.1498
 8058TIP3    H145665   6.653   3.366   3.783  1.0409 -1.1550  0.9227
 8058TIP3    H245666   6.674   3.389   3.931  1.2339  0.6589  0.6375
 8059TIP3   OH245667   6.822   2.211   2.735 -0.1898  0.5857  0.4921
 8059TIP3    H145668   6.791   2.244   2.819 -0.2983  0.0474  0.6656
 8059TIP3    H245669   6.749   2.160   2.701  0.8432 -1.6366  1.4248
 8060TIP3   OH245670   5.405   3.193  14.059  0.7932 -0.1128 -0.0644
 8060TIP3    H145671   5.321   3.204  14.103  0.5625  1.3301 -0.8136
 8060TIP3    H245672   5.466   3.170  14.130  0.0706  0.3273  0.7194
 8061TIP3   OH245673   3.918   5.061  14.489 -0.1038  0.0302 -0.2197
 8061TIP3    H145674   3.912   5.077  14.395 -0.1518  0.4854 -0.1433
 8061TIP3    H245675   4.012   5.064  14.509 -0.0376 -0.8643 -0.3834
 8062TIP3   OH245676   2.405   1.661  15.876  0.6598  0.1808 -0.0177
 8062TIP3    H145677   2.426   1.611  15.955 -0.1166 -0.7884 -0.4004
 8062TIP3    H245678   2.406   1.596  15.806 -1.4051  0.4847 -0.3818
 8063TIP3   OH245679   1.080   2.465  14.236  0.3299  0.1551 -0.6623
 8063TIP3    H145680   1.115   2.552  14.215  0.0760  0.0987 -1.3277
 8063TIP3    H245681   1.062   2.425  14.151  0.3635 -0.5195 -0.3580
 8064TIP3   OH245682   3.645   4.851  15.784  0.5019  0.1087 -0.5270
 8064TIP3    H145683   3.709   4.846  15.855  0.7597  2.2546 -0.5366
 8064TIP3    H245684   3.601   4.766  15.785  2.8928 -1.2394 -0.1142
 8065TIP3   OH245685   4.654   4.183  13.531  0.3092  0.3039 -0.4247
 8065TIP3    H145686   4.598   4.221  13.598  0.7519  0.8013 -0.3300
 8065TIP3    H245687   4.739   4.225  13.544  0.5863 -0.1158 -0.8464
 8066TIP3   OH245688   5.125   4.743  16.828  1.0333 -0.0650 -0.2143
 8066TIP3    H145689   5.188   4.675  16.804  2.9348  0.9621  1.5280
 8066TIP3    H245690   5.103   4.724  16.919 -2.2793 -1.1133 -1.0944
 8067TIP3   OH245691   5.788   5.706  15.096  0.4983  0.1583  0.0172
 8067TIP3    H145692   5.773   5.776  15.160 -1.1799  0.5048 -0.6830
 8067TIP3    H245693   5.700   5.675  15.074  1.0423 -0.0876 -1.9744
 8068TIP3   OH245694   2.028   1.287  15.684 -0.1611 -0.2968  0.2444
 8068TIP3    H145695   2.109   1.241  15.663 -1.3322 -2.3657 -0.0269
 8068TIP3    H245696   2.042   1.376  15.653  2.6958 -0.0344  1.9396
 8069TIP3   OH245697   2.550   5.362  15.499  0.1951  0.1438  0.0324
 8069TIP3    H145698   2.569   5.277  15.458 -1.1549  0.5495 -1.5220
 8069TIP3    H245699   2.471   5.393  15.455 -1.7825  0.3693  3.3642
 8070TIP3   OH245700   6.361   0.954   0.525 -0.2736 -0.8870  0.4313
 8070TIP3    H145701   6.399   0.866   0.525  0.5195 -0.5520  0.0712
 8070TIP3    H245702   6.329   0.967   0.436  3.5587  0.8134 -0.9126
 8071TIP3   OH245703   1.563   4.564  13.405  0.3116  0.0300 -0.7077
 8071TIP3    H145704   1.506   4.639  13.422 -0.4059 -0.6809  0.0996
 8071TIP3    H245705   1.642   4.602  13.366  0.1815  1.2518  0.1751
 8072TIP3   OH245706   6.579   2.074  16.958  0.0128  0.1532  0.2493
 8072TIP3    H145707   6.513   2.014  16.993 -0.0719 -0.4735 -0.9432
 8072TIP3    H245708   6.543   2.161  16.975 -1.0807 -0.1767 -0.2534
 8073TIP3   OH245709   5.209   4.887   5.480  0.0483 -0.0153 -0.4754
 8073TIP3    H145710   5.116   4.885   5.504 -0.1008 -1.3399 -1.0827
 8073TIP3    H245711   5.244   4.962   5.528 -0.1329 -2.5785  4.3981
 8074TIP3   OH245712   4.281   0.944   4.553  0.7361  0.1027 -0.0719
 8074TIP3    H145713   4.256   0.930   4.644  0.0861 -1.3246 -0.4476
 8074TIP3    H245714   4.225   1.016   4.524  0.5911  0.2296  0.5072
 8075TIP3   OH245715   0.806   2.061   0.150  0.2296 -0.3442  0.5802
 8075TIP3    H145716   0.751   2.115   0.093 -0.2507  0.5892  1.9027
 8075TIP3    H245717   0.752   2.042   0.226  2.2190  2.0563  2.7514
 8076TIP3   OH245718   3.391   4.169   1.199 -0.5997 -0.0892 -0.4135
 8076TIP3    H145719   3.449   4.093   1.190  1.9630  1.5074  1.4760
 8076TIP3    H245720   3.315   4.134   1.247  0.8817 -1.3542  1.1527
 8077TIP3   OH245721   4.092   1.976  15.792 -0.2752 -0.1269 -0.3605
 8077TIP3    H145722   4.146   1.923  15.733 -0.6156 -1.3440  0.3839
 8077TIP3    H245723   4.146   1.986  15.871 -0.9042 -0.9030  0.1834
 8078TIP3   OH245724   2.448   2.983   3.136  0.4561  0.2076 -0.1056
 8078TIP3    H145725   2.428   3.045   3.065 -1.1879 -0.9937 -0.7583
 8078TIP3    H245726   2.435   2.897   3.097 -1.1050 -0.4886  1.7942
 8079TIP3   OH245727   2.636   1.348  11.560 -0.4029 -0.2183 -0.3626
 8079TIP3    H145728   2.676   1.376  11.477  0.2513  0.2577  0.1051
 8079TIP3    H245729   2.597   1.263  11.541 -0.5961  0.0606 -1.2624
 8080TIP3   OH245730   5.224   2.874  14.377 -0.1630 -0.3280  0.0422
 8080TIP3    H145731   5.231   2.937  14.304 -1.5202 -0.5119 -0.2787
 8080TIP3    H245732   5.274   2.798  14.347  1.3955  0.5134  0.3804
 8081TIP3   OH245733   2.617   1.487   3.821  0.2760  0.2987  0.3025
 8081TIP3    H145734   2.699   1.450   3.853  0.5071 -0.7438 -1.3592
 8081TIP3    H245735   2.550   1.452   3.880  0.5661 -2.3654 -0.8175
 8082TIP3   OH245736   5.262   2.846  16.682 -0.0726 -0.4620  0.3353
 8082TIP3    H145737   5.209   2.828  16.760  0.0164  1.5366  0.9310
 8082TIP3    H245738   5.263   2.942  16.676  1.9946 -0.4930 -0.7003
 8083TIP3   OH245739   3.752   0.230   2.294  0.2136 -0.1401  0.1006
 8083TIP3    H145740   3.735   0.182   2.375 -2.4629  0.3529 -0.0664
 8083TIP3    H245741   3.667   0.232   2.250  1.1331  1.4209 -1.7152
 8084TIP3   OH245742   4.573   1.925  11.298  0.3387  0.5110  0.1264
 8084TIP3    H145743   4.537   1.986  11.233 -0.2585  0.2878  0.2434
 8084TIP3    H245744   4.498   1.898  11.351  0.7482  0.3660  0.6510
 8085TIP3   OH245745   3.811   5.380  17.043  0.5572  0.1942  0.2275
 8085TIP3    H145746   3.879   5.353  17.105  0.5893  0.5765  0.3599
 8085TIP3    H245747   3.855   5.378  16.958  0.9864  1.2947  0.4162
 8086TIP3   OH245748   0.325   4.464   1.628  0.6086  0.4593  0.3799
 8086TIP3    H145749   0.261   4.404   1.589  1.8125 -0.2224 -0.6209
 8086TIP3    H245750   0.302   4.550   1.593  0.7079  0.0961 -0.6113
 8087TIP3   OH245751   6.194   3.304   0.827  0.4943  0.1270  0.3388
 8087TIP3    H145752   6.098   3.302   0.825  0.4703 -1.3837  1.2513
 8087TIP3    H245753   6.216   3.271   0.914  1.8553  0.4620  0.1397
 8088TIP3   OH245754   4.135   1.611   3.014  0.0049  0.1374  0.1343
 8088TIP3    H145755   4.104   1.521   3.001 -0.4415  0.3092 -0.0283
 8088TIP3    H245756   4.211   1.602   3.072 -1.2746 -0.1909  1.8521
 8089TIP3   OH245757   3.535   2.825  15.854  0.1696 -1.2886 -0.2807
 8089TIP3    H145758   3.533   2.759  15.785  2.2084 -0.5591 -1.1087
 8089TIP3    H245759   3.618   2.871  15.842  0.7879 -1.3330  2.8655
 8090TIP3   OH245760   4.696   2.896   6.045  0.5194 -0.0283  0.2912
 8090TIP3    H145761   4.765   2.958   6.067 -0.0178  0.6250  0.1781
 8090TIP3    H245762   4.615   2.945   6.057  0.0676 -0.7860  0.4398
 8091TIP3   OH245763   2.186   6.310  11.240 -0.3936  0.4295  0.6501
 8091TIP3    H145764   2.237   6.234  11.211  1.4674  2.4126 -1.6300
 8091TIP3    H245765   2.099   6.296  11.203 -0.4346 -1.1089  1.2571
 8092TIP3   OH245766   0.821   6.530  13.074  0.3429  0.2819  0.3476
 8092TIP3    H145767   0.834   6.625  13.075 -3.3994  0.9630  1.4680
 8092TIP3    H245768   0.779   6.513  12.990  1.2726 -0.4736  0.0248
 8093TIP3   OH245769   2.321   6.302  15.169 -0.9024  0.4787  0.2370
 8093TIP3    H145770   2.312   6.212  15.200  0.7113  1.0539  2.7103
 8093TIP3    H245771   2.246   6.349  15.206 -1.2698  0.3390 -0.3207
 8094TIP3   OH245772   0.564   6.131   3.384  0.1199 -0.1727  0.0801
 8094TIP3    H145773   0.617   6.053   3.366  2.3697  0.9420  1.4717
 8094TIP3    H245774   0.560   6.177   3.300 -0.9750 -1.5683 -0.6815
 8095TIP3   OH245775   1.710   1.612   6.659 -0.3028 -0.4490 -0.1650
 8095TIP3    H145776   1.773   1.554   6.616  0.3323  0.4112 -0.4037
 8095TIP3    H245777   1.739   1.700   6.638 -0.9248 -0.0243  0.6847
 8096TIP3   OH245778   4.565   6.127  10.898 -0.2781  0.2054 -0.0577
 8096TIP3    H145779   4.527   6.159  10.816 -0.0591  0.6119 -0.0061
 8096TIP3    H245780   4.657   6.152  10.893  0.1015 -1.1991 -0.3924
 8097TIP3   OH245781   2.856   6.589   3.888 -0.1850 -0.2841 -0.2847
 8097TIP3    H145782   2.908   6.612   3.811 -0.7310  0.8816 -0.3297
 8097TIP3    H245783   2.834   6.497   3.876  0.8440 -0.4657 -0.8575
 8098TIP3   OH245784   6.249   2.566  16.725 -0.1261  0.0921 -0.1520
 8098TIP3    H145785   6.239   2.633  16.793 -0.3398 -2.0243  2.0065
 8098TIP3    H245786   6.165   2.565  16.680  0.0870  1.6650 -0.6519
 8099TIP3   OH245787   5.215   0.469  11.229  0.2934  0.2735  0.1641
 8099TIP3    H145788   5.303   0.504  11.243  0.4577 -0.5080  1.2673
 8099TIP3    H245789   5.225   0.374  11.239 -0.8855  0.2619  1.7144
 8100TIP3   OH245790   2.323   5.610  13.308 -0.6749 -0.0232  0.1139
 8100TIP3    H145791   2.263   5.646  13.373 -0.2396  2.2285 -0.6564
 8100TIP3    H245792   2.322   5.515  13.324 -1.3360  0.3556  2.7121
 8101TIP3   OH245793   3.187   1.898   3.871 -0.1809  0.1933  0.0459
 8101TIP3    H145794   3.167   1.814   3.830 -1.9393 -0.2524  1.6981
 8101TIP3    H245795   3.107   1.950   3.860  0.8128  1.6200 -0.7823
 8102TIP3   OH245796   0.916   1.118  12.454  0.0352  0.2599 -0.1518
 8102TIP3    H145797   0.821   1.104  12.460  0.1471 -0.0544  1.2266
 8102TIP3    H245798   0.954   1.037  12.489  0.8345  0.2008 -1.1022
 8103TIP3   OH245799   0.731   4.606  16.792 -0.4290 -0.2749 -0.3353
 8103TIP3    H145800   0.641   4.595  16.822 -0.0527 -2.9044  0.0089
 8103TIP3    H245801   0.779   4.533  16.831  1.3276 -0.4059 -2.5240
 8104TIP3   OH245802   0.860   2.831  15.928 -0.3003 -0.0649 -1.0093
 8104TIP3    H145803   0.931   2.841  15.991 -0.8483  0.6640 -0.5007
 8104TIP3    H245804   0.884   2.752  15.878  0.0988 -0.7002  0.1425
 8105TIP3   OH245805   4.594   5.693  12.588  0.3222 -0.1370  0.2955
 8105TIP3    H145806   4.573   5.741  12.508 -0.5102 -1.2131 -0.1465
 8105TIP3    H245807   4.688   5.709  12.601  1.3392 -2.5765 -2.7496
 8106TIP3   OH245808   4.968   4.898  11.337  0.6999  0.4689  0.2377
 8106TIP3    H145809   4.938   4.868  11.423  1.4075 -0.7786  0.0759
 8106TIP3    H245810   5.064   4.891  11.342  0.8602  2.0040 -0.0903
 8107TIP3   OH245811   1.069   2.185  14.718  0.4856  0.8185 -0.4274
 8107TIP3    H145812   1.083   2.258  14.659 -0.9880  0.4147 -1.3200
 8107TIP3    H245813   1.140   2.192  14.782  1.8040  1.5837 -1.9009
 8108TIP3   OH245814   6.815   0.182  13.298  0.1618  0.3483 -0.0850
 8108TIP3    H145815   6.751   0.115  13.278  0.2289  0.0424  0.6935
 8108TIP3    H245816   6.840   0.166  13.389  0.4622  1.1885 -0.0026
 8109TIP3   OH245817   3.670   1.075   0.612 -0.1281  0.2931 -0.1416
 8109TIP3    H145818   3.593   1.131   0.622 -1.0893 -0.6187 -1.8751
 8109TIP3    H245819   3.636   0.986   0.625  0.3428 -0.2061 -1.9840
 8110TIP3   OH245820   0.684   2.402   3.220  0.0087  0.3268  0.5564
 8110TIP3    H145821   0.598   2.380   3.183  0.1703  0.7980 -0.1111
 8110TIP3    H245822   0.673   2.492   3.252  0.0937  0.1925  0.9658
 8111TIP3   OH245823   1.938   4.061   1.934 -0.0011  0.1803  0.6395
 8111TIP3    H145824   1.991   4.129   1.894 -0.3575  0.2041  0.1855
 8111TIP3    H245825   1.853   4.103   1.951 -0.4154 -0.2883 -0.1812
 8112TIP3   OH245826   1.421   3.044  14.783  0.1935  0.3856 -0.2243
 8112TIP3    H145827   1.361   3.003  14.845 -0.5060 -0.6844 -1.5492
 8112TIP3    H245828   1.507   3.035  14.823 -0.3900  1.0790  1.2620
 8113TIP3   OH245829   1.858   4.403  15.707 -0.2118 -0.1245  0.7344
 8113TIP3    H145830   1.788   4.467  15.697 -0.3364 -0.4886 -1.0066
 8113TIP3    H245831   1.905   4.405  15.624  0.3070 -1.6747  0.9523
 8114TIP3   OH245832   4.468   0.599   5.825  0.3079  0.5623  0.0400
 8114TIP3    H145833   4.515   0.663   5.771  0.1788 -0.0917 -0.8671
 8114TIP3    H245834   4.413   0.551   5.763 -2.0495  1.6826  1.1206
 8115TIP3   OH245835   6.361   0.356  14.064  0.6113 -1.1150  0.5091
 8115TIP3    H145836   6.338   0.266  14.088  0.9038 -1.0432  1.0608
 8115TIP3    H245837   6.389   0.397  14.145 -1.7841  0.2026  0.7802
 8116TIP3   OH245838   5.883   5.071  13.239 -0.6444  0.4804  0.6600
 8116TIP3    H145839   5.962   5.095  13.190 -0.9259 -0.0220 -0.0688
 8116TIP3    H245840   5.811   5.114  13.192 -0.9338 -0.1258  0.5273
 8117TIP3   OH245841   0.716   1.274   0.342 -0.2714 -0.4177 -0.0240
 8117TIP3    H145842   0.734   1.231   0.425  0.7969 -0.0295 -0.0352
 8117TIP3    H245843   0.713   1.367   0.364  2.4356 -0.0795 -0.7497
 8118TIP3   OH245844   6.523   1.674  12.794  0.4798 -0.3737 -0.8764
 8118TIP3    H145845   6.544   1.679  12.887  1.5945 -0.3154 -1.1233
 8118TIP3    H245846   6.608   1.674  12.750  0.0624 -2.5165 -1.7980
 8119TIP3   OH245847   6.506   1.869   3.498 -0.0873  0.1814  0.2108
 8119TIP3    H145848   6.437   1.900   3.439  0.3374 -0.3164 -0.5625
 8119TIP3    H245849   6.465   1.871   3.585 -0.8879  0.4373 -0.1590
 8120TIP3   OH245850   2.999   1.794  13.062 -0.7561  0.3887  0.3641
 8120TIP3    H145851   2.920   1.802  13.008 -0.2681  1.7229 -0.2111
 8120TIP3    H245852   2.989   1.861  13.130 -0.1897  0.5046  0.3463
 8121TIP3   OH245853   3.116   6.007  15.061  0.3192  0.3349 -0.2000
 8121TIP3    H145854   3.136   6.101  15.063  0.4236  0.3209 -0.5142
 8121TIP3    H245855   3.024   6.001  15.087  0.7271  0.3969  1.3612
 8122TIP3   OH245856   0.305   4.189   0.244  0.4213 -0.2377 -0.5023
 8122TIP3    H145857   0.368   4.221   0.308  0.5289 -1.0329 -0.2012
 8122TIP3    H245858   0.330   4.098   0.229  0.0641 -0.2173 -1.2718
 8123TIP3   OH245859   2.891   0.350  11.875 -0.2640  0.0976  0.4451
 8123TIP3    H145860   2.863   0.434  11.911  0.8927  1.0833 -0.8239
 8123TIP3    H245861   2.901   0.293  11.951 -2.0617  0.7607  1.2502
 8124TIP3   OH245862   4.078   0.026  17.286  0.5321 -0.1868 -0.0065
 8124TIP3    H145863   4.154  -0.010  17.241  1.3395  0.7612  0.5561
 8124TIP3    H245864   4.011   0.034  17.218  1.4996  0.5531 -0.9054
 8125TIP3   OH245865   5.507   3.030  15.544  0.0768  0.1315  0.0923
 8125TIP3    H145866   5.515   3.117  15.584  2.5066 -0.1081  0.2882
 8125TIP3    H245867   5.567   2.975  15.594 -0.2589 -1.3008 -1.0132
 8126TIP3   OH245868   2.190   4.350   2.152 -0.1104 -0.0237  0.4519
 8126TIP3    H145869   2.256   4.416   2.172 -1.5583  1.4577  0.6013
 8126TIP3    H245870   2.199   4.335   2.058 -0.8328  1.6961  0.0617
 8127TIP3   OH245871   4.764   6.739   4.291 -0.0585 -0.1657  1.3666
 8127TIP3    H145872   4.772   6.648   4.319  1.5966 -0.5740 -0.2293
 8127TIP3    H245873   4.847   6.780   4.317  1.1993 -0.3440 -1.8481
 8128TIP3   OH245874   0.738   0.472   1.230 -0.1992  0.0630 -0.1165
 8128TIP3    H145875   0.674   0.402   1.216  0.4056 -0.6751  0.7312
 8128TIP3    H245876   0.809   0.453   1.169 -0.3437  0.3511 -0.3825
 8129TIP3   OH245877   4.073   4.646   1.603 -0.0489  0.8050  0.0006
 8129TIP3    H145878   4.085   4.551   1.607  1.2078  0.9435 -0.0348
 8129TIP3    H245879   4.149   4.682   1.648 -0.7340  1.7997  0.4034
 8130TIP3   OH245880   0.527   3.010   0.552  0.1734  0.1735  0.7998
 8130TIP3    H145881   0.574   3.025   0.633  1.7041  1.0074 -0.1998
 8130TIP3    H245882   0.593   2.976   0.491 -0.8884 -0.2468 -0.1586
 8131TIP3   OH245883   5.246   2.996  11.585  0.2934 -0.5080 -0.3349
 8131TIP3    H145884   5.258   3.041  11.669 -1.5478  2.5660 -1.5055
 8131TIP3    H245885   5.324   3.018  11.534  0.7018 -1.0786  0.0336
 8132TIP3   OH245886   3.243   1.339   3.198 -0.2307 -0.1841  0.0812
 8132TIP3    H145887   3.174   1.334   3.264  0.9581  0.8251  1.4543
 8132TIP3    H245888   3.225   1.418   3.148  0.4980  0.6931  1.1567
 8133TIP3   OH245889   1.638   4.220  15.559 -0.0918 -0.4460 -0.2250
 8133TIP3    H145890   1.644   4.180  15.646  0.0185 -0.4156 -0.2183
 8133TIP3    H245891   1.565   4.281  15.566 -0.5634 -0.9845 -0.3745
 8134TIP3   OH245892   0.938   0.947  13.588  0.2500  0.7887 -0.0247
 8134TIP3    H145893   0.973   0.858  13.592 -0.7128  0.4495  1.7104
 8134TIP3    H245894   0.962   0.978  13.501  3.4818  0.0611  0.4880
 8135TIP3   OH245895   4.200   1.127  12.674 -0.5942  0.1305  0.1217
 8135TIP3    H145896   4.176   1.123  12.767 -0.5960 -1.4395  0.0661
 8135TIP3    H245897   4.295   1.122  12.674 -0.6622 -1.4180 -0.0199
 8136TIP3   OH245898   6.494   3.143   5.395  0.2370  0.1432 -0.1353
 8136TIP3    H145899   6.571   3.127   5.340 -1.7868 -0.5161 -2.9611
 8136TIP3    H245900   6.461   3.228   5.365 -2.7812 -1.6881 -2.5276
 8137TIP3   OH245901   2.248   1.021  15.054 -0.0975 -0.0363 -0.7760
 8137TIP3    H145902   2.181   1.077  15.093  0.4287 -1.4447  2.4324
 8137TIP3    H245903   2.321   1.079  15.035 -0.9302  0.9439 -1.0541
 8138TIP3   OH245904   4.895   0.867   2.183  0.3501  0.1793 -0.2307
 8138TIP3    H145905   4.886   0.923   2.106 -0.4769  0.6834  0.2171
 8138TIP3    H245906   4.805   0.841   2.205  0.7888 -2.8700 -1.5216
 8139TIP3   OH245907   0.613   4.832   3.898  0.3513 -0.3042  0.3318
 8139TIP3    H145908   0.644   4.812   3.810  0.2686 -1.0504  0.4658
 8139TIP3    H245909   0.545   4.898   3.886 -0.3320 -1.0984 -0.2530
 8140TIP3   OH245910   1.713   3.472  11.893  0.0656 -0.2157 -0.0140
 8140TIP3    H145911   1.648   3.487  11.825 -0.1092  1.0581  0.3906
 8140TIP3    H245912   1.687   3.390  11.935  0.4108 -1.2294 -1.7107
 8141TIP3   OH245913   0.767   0.323   6.419 -0.2838  0.1850  0.2887
 8141TIP3    H145914   0.823   0.401   6.422  1.4209 -0.9222 -0.7916
 8141TIP3    H245915   0.790   0.274   6.498 -0.1917  0.0583  0.1858
 8142TIP3   OH245916   4.430   2.337   2.617 -0.2146 -0.1648  0.1146
 8142TIP3    H145917   4.456   2.260   2.566 -1.1525 -0.9598  0.7839
 8142TIP3    H245918   4.337   2.322   2.635 -0.3765  1.0706  0.3829
 8143TIP3   OH245919   2.882   2.847   1.865  0.2084 -0.6355  0.3536
 8143TIP3    H145920   2.790   2.821   1.871  0.0029  0.3158  2.3701
 8143TIP3    H245921   2.921   2.815   1.946  0.8068  1.8441  1.1416
 8144TIP3   OH245922   5.125   3.674   5.815  0.0942  0.1741  0.7986
 8144TIP3    H145923   5.153   3.749   5.762 -0.0377 -0.8070 -0.7195
 8144TIP3    H245924   5.208   3.636   5.847  0.2040  0.3791  0.7635
 8145TIP3   OH245925   0.558   6.022  12.326 -0.2778  0.4474 -0.3365
 8145TIP3    H145926   0.604   6.053  12.248 -0.3674 -0.2772 -0.6876
 8145TIP3    H245927   0.592   6.076  12.397  2.5533 -1.2930 -0.2295
 8146TIP3   OH245928   4.271   5.990  12.398  0.3131  0.4262  0.0420
 8146TIP3    H145929   4.292   6.082  12.382  0.2966  0.4442  0.1274
 8146TIP3    H245930   4.181   5.980  12.365 -0.8404  1.1645  2.7194
 8147TIP3   OH245931   6.360   0.173  12.712 -0.1088  0.0853 -0.6131
 8147TIP3    H145932   6.429   0.185  12.777 -0.7374 -0.4145  0.1593
 8147TIP3    H245933   6.402   0.122  12.642 -0.1096 -1.5876  0.5698
 8148TIP3   OH245934   2.984   6.084   3.176 -0.0336  0.3679 -0.7613
 8148TIP3    H145935   2.959   6.056   3.088 -0.5426  0.7815 -0.7538
 8148TIP3    H245936   3.047   6.155   3.162  1.1391 -0.6416 -0.7800
 8149TIP3   OH245937   0.451   2.148   4.452  0.5717  0.0951  0.2353
 8149TIP3    H145938   0.454   2.103   4.536  1.5984  0.5446  0.4639
 8149TIP3    H245939   0.509   2.097   4.395  1.1061  0.6520  0.2624
 8150TIP3   OH245940   1.759   6.789  15.103 -0.5661  0.0655 -0.1024
 8150TIP3    H145941   1.829   6.742  15.059  0.0564  2.4303 -1.8611
 8150TIP3    H245942   1.681   6.771  15.050 -0.3216  0.9576 -0.7938
 8151TIP3   OH245943   5.578   3.180   4.244 -0.1922  0.6804 -0.1561
 8151TIP3    H145944   5.499   3.146   4.287  0.6835 -0.5789  0.5308
 8151TIP3    H245945   5.648   3.163   4.307  0.8468  0.4126 -1.3580
 8152TIP3   OH245946   0.248   1.793   1.400 -0.4983  0.0648  0.1673
 8152TIP3    H145947   0.332   1.779   1.357 -0.5875  0.0685 -0.0131
 8152TIP3    H245948   0.266   1.786   1.493 -0.2744  0.1906  0.1328
 8153TIP3   OH245949   5.987   3.767   5.559 -0.5282  0.3510 -0.6071
 8153TIP3    H145950   5.926   3.775   5.633 -1.0669 -1.1010 -0.8600
 8153TIP3    H245951   5.961   3.686   5.516  1.5029 -0.2447 -0.8178
 8154TIP3   OH245952   6.500   1.239  13.562  0.5467  0.3578 -0.1460
 8154TIP3    H145953   6.420   1.292  13.558 -0.8220 -1.4391  1.4301
 8154TIP3    H245954   6.505   1.197  13.476 -0.2690  0.4270 -0.2375
 8155TIP3   OH245955   3.727   2.103  12.009  0.3764 -0.1009  0.2315
 8155TIP3    H145956   3.745   2.065  11.923  1.9109  2.2337 -0.5717
 8155TIP3    H245957   3.751   2.034  12.071  0.5364 -1.3507 -1.1535
 8156TIP3   OH245958   3.802   1.404  13.284  0.1040  0.1113 -0.4587
 8156TIP3    H145959   3.714   1.433  13.307 -1.2084 -1.6864 -2.7906
 8156TIP3    H245960   3.810   1.317  13.324  1.5244  0.8849  1.0904
 8157TIP3   OH245961   0.543   5.649  15.629  0.9426  0.0074  0.4020
 8157TIP3    H145962   0.564   5.562  15.664  0.1560 -0.9148 -1.2787
 8157TIP3    H245963   0.622   5.676  15.583  0.6641 -0.5392 -0.4093
 8158TIP3   OH245964   3.367   1.068  12.157 -0.0513 -0.3219  0.4912
 8158TIP3    H145965   3.429   1.092  12.226 -1.9825  0.0306  2.2236
 8158TIP3    H245966   3.318   0.995  12.194 -1.7164  0.4382 -0.1177
 8159TIP3   OH245967   1.275   4.708   4.571 -0.4241  0.1266 -0.0131
 8159TIP3    H145968   1.358   4.725   4.526 -0.5259 -2.3405 -1.2850
 8159TIP3    H245969   1.266   4.781   4.633  0.7413  2.5668 -2.5255
 8160TIP3   OH245970   1.671   3.825  14.053  0.4378 -0.3435 -0.9065
 8160TIP3    H145971   1.596   3.875  14.085 -0.6096 -0.9244 -2.3567
 8160TIP3    H245972   1.746   3.860  14.102 -0.4936  1.5462 -0.7461
 8161TIP3   OH245973   2.121   2.033  15.494  0.1284 -0.1871 -0.1579
 8161TIP3    H145974   2.064   2.034  15.571 -1.4708  0.3800 -1.2837
 8161TIP3    H245975   2.116   1.944  15.460 -0.2133 -0.0972 -0.3431
 8162TIP3   OH245976   6.411   4.332   0.715  0.2358  0.6275  0.0674
 8162TIP3    H145977   6.357   4.253   0.716  0.9143  0.1489  1.0956
 8162TIP3    H245978   6.450   4.334   0.628 -0.5625  0.3762 -0.3045
 8163TIP3   OH245979   6.804   6.496   2.702 -0.1864 -0.2781  0.0791
 8163TIP3    H145980   6.710   6.491   2.687 -0.2604  1.3688 -0.2011
 8163TIP3    H245981   6.840   6.530   2.620  0.2723  1.7786  1.0583
 8164TIP3   OH245982   2.474   0.488  12.922  0.0342 -0.1020 -0.1669
 8164TIP3    H145983   2.540   0.420  12.936 -0.3633 -0.5032 -0.2115
 8164TIP3    H245984   2.391   0.442  12.933 -0.2591  0.8185  1.9854
 8165TIP3   OH245985   5.995   5.838   5.693 -0.6440  0.2551  0.0428
 8165TIP3    H145986   6.060   5.767   5.696 -0.5912  0.2037 -1.3319
 8165TIP3    H245987   6.010   5.888   5.773  2.2094  1.1884 -0.9281
 8166TIP3   OH245988   1.276   3.130  11.512  0.1289  0.3761  0.6101
 8166TIP3    H145989   1.282   3.225  11.504  1.2087  0.2525 -0.1757
 8166TIP3    H245990   1.268   3.098  11.422 -2.9994 -0.1534  0.9633
 8167TIP3   OH245991   4.806   6.457  12.914 -0.4407  0.0928 -0.5611
 8167TIP3    H145992   4.832   6.399  12.987  2.5233 -1.7931 -2.8683
 8167TIP3    H245993   4.728   6.501  12.946 -0.1901 -1.7228  3.1792
 8168TIP3   OH245994   3.582   2.636  15.669 -0.6236 -0.2863 -0.0084
 8168TIP3    H145995   3.654   2.608  15.612 -0.6541 -0.0889 -0.1448
 8168TIP3    H245996   3.509   2.653  15.610 -1.4854 -2.5998  0.3082
 8169TIP3   OH245997   5.692   3.926  11.577  0.0878 -0.2660 -0.5212
 8169TIP3    H145998   5.635   3.922  11.654  0.2815 -1.0470 -0.4037
 8169TIP3    H245999   5.741   4.007  11.588 -0.6292  0.1537 -0.3599
 8170TIP3   OH246000   2.343   2.190   1.687 -0.3754  0.0498 -0.4301
 8170TIP3    H146001   2.341   2.284   1.704  0.0623 -0.2619  1.5552
 8170TIP3    H246002   2.310   2.150   1.767  1.0787 -1.5659 -0.5781
 8171TIP3   OH246003   5.993   0.620  11.883 -0.0135 -0.0088  0.2058
 8171TIP3    H146004   5.963   0.536  11.917 -0.1067  0.1925  0.6289
 8171TIP3    H246005   5.951   0.628  11.797  0.6579 -0.7696 -0.2091
 8172TIP3   OH246006   6.353   1.345   1.160  0.2530 -0.7201 -0.0123
 8172TIP3    H146007   6.387   1.360   1.248 -1.0714 -1.2763  0.6262
 8172TIP3    H246008   6.360   1.250   1.148 -0.0564 -0.7076 -0.2962
 8173TIP3   OH246009   0.418   4.766  13.840 -0.0107  0.0363  0.1376
 8173TIP3    H146010   0.412   4.851  13.883  0.7343  0.2633 -0.1985
 8173TIP3    H246011   0.339   4.761  13.786  0.7163  1.2409 -1.1118
 8174TIP3   OH246012   4.237   2.862   6.303  0.8532 -0.2497  0.1153
 8174TIP3    H146013   4.275   2.905   6.226  1.0237  0.8928  0.8083
 8174TIP3    H246014   4.184   2.791   6.267 -0.3436  1.2072 -1.1684
 8175TIP3   OH246015   2.502   3.325   1.307 -0.0183 -0.7117  0.0432
 8175TIP3    H146016   2.475   3.340   1.398 -0.5282 -0.6382 -0.1157
 8175TIP3    H246017   2.458   3.395   1.258 -0.2761 -1.1457 -0.3489
 8176TIP3   OH246018   4.205   6.383  12.443  0.4635  0.6172 -0.2832
 8176TIP3    H146019   4.129   6.351  12.394  0.1736  0.7814  0.0528
 8176TIP3    H246020   4.279   6.370  12.384  0.0327  1.3575 -1.0057
 8177TIP3   OH246021   5.611   1.870  10.856 -0.2494 -0.3518  0.1895
 8177TIP3    H146022   5.545   1.822  10.805 -0.0160 -1.6089  1.0293
 8177TIP3    H246023   5.685   1.810  10.861  0.2450  0.3030  0.8494
 8178TIP3   OH246024   3.943   0.773   4.882 -0.4425  0.2462  0.2103
 8178TIP3    H146025   3.968   0.695   4.832  0.1381  0.8660 -0.4843
 8178TIP3    H246026   3.850   0.762   4.898 -0.3209 -0.7017  0.3188
 8179TIP3   OH246027   1.881   1.354   0.048 -0.2696 -0.1038  0.0409
 8179TIP3    H146028   1.882   1.363   0.143 -0.3178 -0.0119  0.0325
 8179TIP3    H246029   1.849   1.265   0.033  1.4400 -0.7783  0.1478
 8180TIP3   OH246030   3.657   5.430  15.806  0.4324 -0.3653  0.0424
 8180TIP3    H146031   3.717   5.425  15.732  0.2424 -2.4839 -0.0244
 8180TIP3    H246032   3.590   5.364  15.787 -1.4957  1.3443  0.5101
 8181TIP3   OH246033   5.839   5.090   2.351 -0.4689  0.3287  0.0320
 8181TIP3    H146034   5.823   5.165   2.410  0.1817  0.9682 -0.5883
 8181TIP3    H246035   5.934   5.081   2.349 -0.5022  0.0779 -0.6270
 8182TIP3   OH246036   5.514   0.849  13.353 -0.0801  0.1620  0.0559
 8182TIP3    H146037   5.452   0.884  13.288 -0.9149 -0.4956  0.4739
 8182TIP3    H246038   5.460   0.835  13.431  0.1418 -2.2835 -0.1526
 8183TIP3   OH246039   5.191   0.568   3.608 -0.3302  0.1126  0.0898
 8183TIP3    H146040   5.173   0.476   3.626  0.8078 -0.1174  0.1676
 8183TIP3    H246041   5.201   0.573   3.513 -0.2379  0.1238  0.1000
 8184TIP3   OH246042   0.883   3.101  16.505 -0.1851  0.4641 -0.0281
 8184TIP3    H146043   0.909   3.170  16.444  0.5721 -0.8393 -1.2275
 8184TIP3    H246044   0.966   3.063  16.535 -0.6031 -0.7358 -0.3507
 8185TIP3   OH246045   4.500   4.500   3.288  0.1412  0.5863 -0.4273
 8185TIP3    H146046   4.421   4.449   3.308  1.5094 -1.1609  0.7528
 8185TIP3    H246047   4.530   4.532   3.372  2.2194 -1.1808 -0.4015
 8186TIP3   OH246048   6.586   1.130  15.443  0.0111  0.0405 -0.2272
 8186TIP3    H146049   6.530   1.086  15.379  1.0205 -1.6174 -0.0284
 8186TIP3    H246050   6.547   1.106  15.528  0.5335 -0.4571 -0.1209
 8187TIP3   OH246051   0.905   4.126   3.307 -0.0250 -0.1184  0.1071
 8187TIP3    H146052   0.830   4.140   3.366  0.5283  0.8248  0.6047
 8187TIP3    H246053   0.880   4.049   3.255 -0.3521 -1.2480  1.8524
 8188TIP3   OH246054   3.964   5.555   5.373 -0.2136  0.1102  0.2278
 8188TIP3    H146055   4.040   5.503   5.345  1.2999  2.7284 -0.9620
 8188TIP3    H246056   3.891   5.493   5.373  1.3799 -1.9364 -1.3784
 8189TIP3   OH246057   3.824   6.070  11.302  0.3129 -0.1119 -0.5309
 8189TIP3    H146058   3.831   5.976  11.322  0.1806  0.1912  1.0665
 8189TIP3    H246059   3.748   6.099  11.351 -0.4105  0.6159 -2.0130
 8190TIP3   OH246060   1.748   3.457   4.361  0.1448  0.2868 -0.3127
 8190TIP3    H146061   1.791   3.439   4.277  1.3596 -0.8354  0.5117
 8190TIP3    H246062   1.685   3.386   4.372  0.9894 -0.3761  0.3595
 8191TIP3   OH246063   1.586   1.092   1.993 -0.1133  0.3596  0.0288
 8191TIP3    H146064   1.653   1.045   2.042 -0.8786 -0.3460  0.4379
 8191TIP3    H246065   1.542   1.146   2.058 -0.4982  0.1631 -0.0652
 8192TIP3   OH246066   5.686   0.967  15.626  0.0830  0.5563  0.0943
 8192TIP3    H146067   5.747   1.027  15.581  2.6070 -1.8613 -0.0050
 8192TIP3    H246068   5.741   0.921  15.689 -1.7804 -1.4490  0.3560
 8193TIP3   OH246069   0.293   0.533   3.280  0.2798  0.1462 -0.0239
 8193TIP3    H146070   0.250   0.554   3.363  1.4866  2.0715  0.1521
 8193TIP3    H246071   0.232   0.564   3.213 -0.2886 -0.5990  0.1328
 8194TIP3   OH246072   0.066   1.546  14.954  0.3149 -0.3578  0.6652
 8194TIP3    H146073   0.097   1.474  14.898  0.1607  0.0681  0.0278
 8194TIP3    H246074   0.135   1.612  14.949 -0.3143  0.2599 -0.1300
 8195TIP3   OH246075   4.142   2.458  16.577  0.0634 -0.5634  0.6530
 8195TIP3    H146076   4.152   2.373  16.535 -0.6875 -0.6121  0.5490
 8195TIP3    H246077   4.051   2.483  16.558 -0.4854 -0.8294  2.7021
 8196TIP3   OH246078   4.144   5.590  12.683  0.2700 -0.1325  0.3611
 8196TIP3    H146079   4.218   5.648  12.665 -1.0651  1.2919 -0.9071
 8196TIP3    H246080   4.163   5.552  12.769  2.5000  0.0845  0.0091
 8197TIP3   OH246081   5.373   5.571  13.826  0.1078  0.0694 -0.1738
 8197TIP3    H146082   5.307   5.512  13.863  0.2449 -1.1880 -1.8121
 8197TIP3    H246083   5.432   5.513  13.777  1.5443  1.3442 -0.0198
 8198TIP3   OH246084   4.727   2.933  17.242 -0.5330 -0.2697 -0.0118
 8198TIP3    H146085   4.671   3.009  17.258 -2.4013 -1.0031 -2.4788
 8198TIP3    H246086   4.707   2.873  17.314  0.0293  1.0238  1.2668
 8199TIP3   OH246087   4.574   5.415  14.612  0.1015  0.2105  0.1542
 8199TIP3    H146088   4.660   5.453  14.592 -0.1409  1.5872  1.5912
 8199TIP3    H246089   4.592   5.321  14.621  1.4370  0.4549  0.3205
 8200TIP3   OH246090   3.292   3.378   4.523 -0.1421  0.1549  0.3485
 8200TIP3    H146091   3.211   3.410   4.563 -1.6074 -0.8482 -1.6726
 8200TIP3    H246092   3.311   3.296   4.570  0.0739  0.6756  1.2078
 8201TIP3   OH246093   4.791   2.121   4.070  0.2452  0.1328 -0.1552
 8201TIP3    H146094   4.860   2.060   4.046  0.9635  0.8726 -0.0382
 8201TIP3    H246095   4.711   2.083   4.034  0.9064 -0.1039 -1.4119
 8202TIP3   OH246096   0.771   0.420  13.630  0.2325 -0.7261 -0.5165
 8202TIP3    H146097   0.857   0.428  13.670  0.0103  0.4145 -0.2411
 8202TIP3    H246098   0.733   0.507  13.635 -0.0746 -0.6706 -2.6501
 8203TIP3   OH246099   3.187   5.462  16.450 -0.4587  0.3237 -0.3291
 8203TIP3    H146100   3.192   5.487  16.358  0.8232 -2.2048 -1.0582
 8203TIP3    H246101   3.093   5.463  16.469 -0.7023  1.5692 -1.4445
 8204TIP3   OH246102   0.334   0.421  14.860  0.3333 -0.0582  0.2201
 8204TIP3    H146103   0.373   0.491  14.807  2.2477 -1.0014  0.3020
 8204TIP3    H246104   0.263   0.387  14.805 -0.7872  2.0226  0.2684
 8205TIP3   OH246105   2.809   5.078  11.280  0.0040  0.0384  0.3487
 8205TIP3    H146106   2.794   5.147  11.215 -1.4224  0.0550  0.6601
 8205TIP3    H246107   2.900   5.051  11.265  0.2311  1.1818 -0.5421
 8206TIP3   OH246108   0.724   6.478   5.099 -0.5707 -0.3821  0.7632
 8206TIP3    H146109   0.774   6.468   5.180 -0.8377 -0.9049  0.8678
 8206TIP3    H246110   0.644   6.428   5.114 -1.1744  0.5345  0.6356
 8207TIP3   OH246111   0.966   3.082   2.419  0.0035 -0.8164 -0.2557
 8207TIP3    H146112   1.033   3.124   2.367 -0.8337 -0.1557 -0.8319
 8207TIP3    H246113   0.960   3.134   2.499 -0.8995  0.0718 -0.8854
 8208TIP3   OH246114   4.347   4.864  12.046  0.0951  0.4161  0.0643
 8208TIP3    H146115   4.258   4.875  12.078 -0.1323 -0.0922 -0.3685
 8208TIP3    H246116   4.398   4.837  12.123  0.1088  1.7741  0.5429
 8209TIP3   OH246117   1.580   2.770   5.959  0.0123  0.2403  0.1064
 8209TIP3    H146118   1.571   2.743   6.050  1.0555 -2.0376 -0.4086
 8209TIP3    H246119   1.645   2.841   5.962  1.3430 -0.9524  0.9882
 8210TIP3   OH246120   6.480   0.202   1.239 -0.1767 -0.4822  0.1959
 8210TIP3    H146121   6.498   0.296   1.238  2.1656 -0.8649 -0.6943
 8210TIP3    H246122   6.421   0.190   1.314  1.6131  1.3613  2.0455
 8211TIP3   OH246123   6.123   2.196   0.566 -0.4400  0.6436  0.3551
 8211TIP3    H146124   6.182   2.195   0.641 -1.6575  1.4332  1.3528
 8211TIP3    H246125   6.073   2.115   0.575 -0.8383  0.9157  0.6116
 8212TIP3   OH246126   5.417   2.244  13.199  0.1872 -0.0539 -0.2742
 8212TIP3    H146127   5.395   2.156  13.231  1.0851 -0.1930 -0.0223
 8212TIP3    H246128   5.493   2.231  13.143  0.0714  0.5165 -0.5742
 8213TIP3   OH246129   5.070   6.218   5.711 -0.7642  0.1288  0.2246
 8213TIP3    H146130   5.002   6.285   5.715 -0.6595  0.2542 -0.0551
 8213TIP3    H246131   5.025   6.137   5.731 -0.7242  0.3867  1.4616
 8214TIP3   OH246132   2.958   5.035   3.413  0.0705  0.0070 -0.2026
 8214TIP3    H146133   2.915   4.966   3.464 -0.8515 -0.9469 -2.1700
 8214TIP3    H246134   3.027   5.068   3.471 -2.2397  0.4851  2.4472
 8215TIP3   OH246135   0.102   6.717  16.044  0.2408  0.0238  0.4417
 8215TIP3    H146136   0.049   6.638  16.053 -0.1794  0.4348  2.0306
 8215TIP3    H246137   0.096   6.740  15.951 -1.0596 -0.8453  0.2802
 8216TIP3   OH246138   0.731   2.933   2.578  0.1968  0.2129 -0.0421
 8216TIP3    H146139   0.806   2.925   2.636  1.0496 -1.2588 -1.2600
 8216TIP3    H246140   0.657   2.950   2.636  1.2731  0.5271  1.2865
 8217TIP3   OH246141   0.175   1.770  13.863 -0.4194  0.0135  0.0390
 8217TIP3    H146142   0.158   1.863  13.877  1.0659  0.2808  0.2629
 8217TIP3    H246143   0.135   1.727  13.939 -1.7065  0.3711 -0.4005
 8218TIP3   OH246144   0.235   1.887  10.938 -0.0970 -0.5425 -0.4212
 8218TIP3    H146145   0.217   1.873  11.031  0.3950 -0.7091 -0.3512
 8218TIP3    H246146   0.150   1.875  10.896  0.0799 -2.8175 -0.2640
 8219TIP3   OH246147   4.640   6.255  13.433 -0.2697 -0.1891  0.3159
 8219TIP3    H146148   4.606   6.193  13.497  0.1233  1.6442  2.3899
 8219TIP3    H246149   4.619   6.341  13.469  1.2744  0.9265 -1.3067
 8220TIP3   OH246150   4.294   5.490  14.674  0.2686  0.2868  0.1142
 8220TIP3    H146151   4.376   5.452  14.644 -2.1863 -2.4355 -4.2380
 8220TIP3    H246152   4.268   5.435  14.748  1.4276 -0.0557  0.2843
 8221TIP3   OH246153   4.463   4.822  16.789  0.2023  0.2729 -0.1368
 8221TIP3    H146154   4.461   4.813  16.884 -1.6738  0.0334 -0.1541
 8221TIP3    H246155   4.452   4.916  16.773  2.2301  0.5443 -0.1308
 8222TIP3   OH246156   1.735   6.773  10.935  0.1316  0.8586  0.1211
 8222TIP3    H146157   1.796   6.840  10.905  1.8993 -1.1214 -0.9466
 8222TIP3    H246158   1.677   6.758  10.860  1.2343 -0.4104 -0.5106
 8223TIP3   OH246159   1.070   5.051  14.382 -0.6582 -0.2151 -0.5998
 8223TIP3    H146160   1.079   5.132  14.432  2.6786  0.1309 -1.5400
 8223TIP3    H246161   1.024   4.992  14.442  0.0817  1.2418  1.5535
 8224TIP3   OH246162   6.254   3.277   6.362  0.7479 -0.1189  0.6057
 8224TIP3    H146163   6.343   3.308   6.350  0.5787  0.6673  1.2833
 8224TIP3    H246164   6.208   3.350   6.404 -0.2668 -0.4348  0.0926
 8225TIP3   OH246165   4.071   3.303  12.750 -0.3515 -0.3469 -0.8458
 8225TIP3    H146166   4.055   3.361  12.824 -2.2982 -0.0040 -1.4940
 8225TIP3    H246167   4.146   3.250  12.778  0.6163  1.5056  0.3018
 8226TIP3   OH246168   1.284   1.872   4.881 -0.6969 -0.2788 -0.3585
 8226TIP3    H146169   1.202   1.879   4.930 -0.0856 -0.5911  0.7480
 8226TIP3    H246170   1.332   1.801   4.924 -0.4139 -1.0182 -1.8520
 8227TIP3   OH246171   3.212   0.682  17.179 -0.0160  0.4378 -0.2463
 8227TIP3    H146172   3.210   0.626  17.256 -1.2497  0.7730 -0.0057
 8227TIP3    H246173   3.297   0.666  17.139  0.9189  0.7609  1.5389
 8228TIP3   OH246174   3.587   0.268   4.027  0.0848  1.4090  0.2798
 8228TIP3    H146175   3.603   0.356   3.994  1.7091  0.8134 -0.6244
 8228TIP3    H246176   3.641   0.211   3.971 -0.9600 -0.1665  0.8048
 8229TIP3   OH246177   4.779   0.039  11.644  0.7496 -0.4299 -0.2131
 8229TIP3    H146178   4.697   0.014  11.687  0.5641 -0.0277 -0.3286
 8229TIP3    H246179   4.844   0.042  11.715  0.4684  0.1165  0.0306
 8230TIP3   OH246180   1.622   3.079   4.972  0.2674  0.3505  0.5027
 8230TIP3    H146181   1.635   2.994   5.013 -0.8528 -0.3746 -0.5745
 8230TIP3    H246182   1.650   3.067   4.881 -1.6827  0.5673 -0.1591
 8231TIP3   OH246183   3.044   0.664  12.785 -0.1528 -0.5438  0.5909
 8231TIP3    H146184   2.952   0.653  12.763 -0.5525 -1.3420  2.4558
 8231TIP3    H246185   3.048   0.748  12.830  0.7629  1.3872 -2.7627
 8232TIP3   OH246186   1.657   2.716   5.131 -0.0105  0.1569  0.0965
 8232TIP3    H146187   1.645   2.629   5.168  2.0089  0.8471  2.7060
 8232TIP3    H246188   1.671   2.702   5.038 -0.9759 -2.1439  0.2452
 8233TIP3   OH246189   5.309   5.992  16.087  0.1107 -0.2521 -0.4096
 8233TIP3    H146190   5.247   6.059  16.058 -0.5159 -0.9726 -0.7752
 8233TIP3    H246191   5.273   5.959  16.169 -0.0691 -0.7702 -0.6934
 8234TIP3   OH246192   1.621   0.762  17.283  0.0048  0.0271 -0.0830
 8234TIP3    H146193   1.569   0.838  17.256  0.7942  0.1800 -1.2560
 8234TIP3    H246194   1.685   0.750  17.213  0.4929 -1.1681  0.5260
 8235TIP3   OH246195   6.315   4.755  12.910  0.9352 -0.1900  0.0296
 8235TIP3    H146196   6.397   4.706  12.914  1.1368  0.1231 -0.3262
 8235TIP3    H246197   6.261   4.715  12.979  0.4465 -2.0742 -1.3545
 8236TIP3   OH246198   0.031   2.154  14.533 -0.2292  0.5418  0.4804
 8236TIP3    H146199   0.119   2.190  14.543  0.5460 -1.0362 -0.2155
 8236TIP3    H246200   0.031   2.115  14.445 -1.6536  0.5940  0.4406
 8237TIP3   OH246201   2.324   3.224  14.228 -0.9340  0.2510 -0.6509
 8237TIP3    H146202   2.258   3.289  14.252 -0.2508 -0.0204  2.2272
 8237TIP3    H246203   2.274   3.155  14.184 -2.1119  1.3156 -1.0463
 8238TIP3   OH246204   2.334   2.487   0.258  0.2050  0.1693  0.8864
 8238TIP3    H146205   2.263   2.429   0.233  1.3042 -1.4200  1.3129
 8238TIP3    H246206   2.321   2.565   0.204 -0.3326 -1.1430 -0.9950
 8239TIP3   OH246207   0.406   4.801  12.878 -0.0222  0.0543  0.4422
 8239TIP3    H146208   0.436   4.797  12.787 -2.1895 -1.0618 -0.2901
 8239TIP3    H246209   0.369   4.889  12.887  0.9014  0.4477  0.5149
 8240TIP3   OH246210   0.893   2.427   3.053  0.1836 -0.0900  0.1176
 8240TIP3    H146211   0.828   2.410   3.122 -0.3283 -0.2350 -0.3898
 8240TIP3    H246212   0.842   2.464   2.981  0.8882  1.1364  0.2279
 8241TIP3   OH246213   4.888   4.019  16.929 -0.1033 -0.0048 -0.2188
 8241TIP3    H146214   4.820   4.074  16.889 -0.1340 -0.8704 -1.4226
 8241TIP3    H246215   4.940   3.988  16.855 -1.1171 -2.9522  0.1848
 8242TIP3   OH246216   5.127   1.912  13.669 -0.8052 -0.4018  0.3012
 8242TIP3    H146217   5.186   1.879  13.737 -0.0697  1.2147  0.4881
 8242TIP3    H246218   5.042   1.873  13.690  0.1856 -3.0444 -0.1474
 8243TIP3   OH246219   3.639   3.215  14.824 -0.3115  0.2853  0.0847
 8243TIP3    H146220   3.734   3.223  14.815 -0.1617 -0.3212  0.9177
 8243TIP3    H246221   3.618   3.132  14.782 -0.6530  0.9818 -1.1515
 8244TIP3   OH246222   5.824   4.928  16.387  0.4566  0.4894 -0.1311
 8244TIP3    H146223   5.896   4.976  16.428 -1.1025  1.2672  1.8514
 8244TIP3    H246224   5.812   4.970  16.302  2.7348 -0.1143 -0.8399
 8245TIP3   OH246225   0.475   1.403   4.829  0.5014  0.0159  0.6607
 8245TIP3    H146226   0.510   1.491   4.812 -0.2758  0.6249  2.0259
 8245TIP3    H246227   0.421   1.385   4.752  2.1483 -0.1085 -0.5351
 8246TIP3   OH246228   1.912   2.009  17.028  0.3745  0.0948 -0.4198
 8246TIP3    H146229   1.920   2.008  17.124  0.6796 -0.7259 -0.4529
 8246TIP3    H246230   1.879   1.922  17.006  1.4723 -0.1436 -1.1617
 8247TIP3   OH246231   3.395   4.458  12.190 -0.3745  0.4841  0.1697
 8247TIP3    H146232   3.376   4.379  12.241  0.7980 -0.2261 -0.4392
 8247TIP3    H246233   3.319   4.468  12.133 -0.3935 -0.4298  0.0061
 8248TIP3   OH246234   0.932   6.430  13.683 -0.5839  0.1941  0.2029
 8248TIP3    H146235   0.881   6.374  13.741  0.1639  0.6746  1.3535
 8248TIP3    H246236   0.993   6.371  13.639  0.3427  0.1033  1.5626
 8249TIP3   OH246237   2.190   3.746   1.140 -0.0842 -0.4780  0.7087
 8249TIP3    H146238   2.119   3.746   1.077  0.3591 -2.8025  0.1337
 8249TIP3    H246239   2.149   3.770   1.223 -1.2190 -0.2798  0.1057
 8250TIP3   OH246240   4.011   5.304  17.206 -0.1400 -0.4625  0.1822
 8250TIP3    H146241   4.094   5.343  17.232 -0.6449  0.9941 -0.2466
 8250TIP3    H246242   4.025   5.210  17.210  0.3907 -0.3646  3.8387
 8251TIP3   OH246243   3.957   6.319  12.309 -0.0816  0.2661  0.1853
 8251TIP3    H146244   3.894   6.262  12.353 -0.3648  2.0723  2.3115
 8251TIP3    H246245   3.903   6.387  12.268  0.3251 -0.0849 -0.9658
 8252TIP3   OH246246   5.629   1.505  14.004  0.0292  0.0857  0.4300
 8252TIP3    H146247   5.572   1.481  13.931  0.0396  0.9666  0.1120
 8252TIP3    H246248   5.707   1.541  13.962 -0.0262  0.7371  0.8599
 8253TIP3   OH246249   4.020   1.246   3.337 -0.4609  0.0025 -0.2478
 8253TIP3    H146250   3.996   1.227   3.246 -2.6603  0.7567  0.1144
 8253TIP3    H246251   4.113   1.224   3.342  0.7408  3.3158 -3.6429
 8254TIP3   OH246252   5.619   5.252   0.375 -0.1294  0.1673 -0.4104
 8254TIP3    H146253   5.661   5.316   0.318 -0.7572  1.2759  0.3336
 8254TIP3    H246254   5.679   5.177   0.374  0.2486  0.4520 -1.8945
 8255TIP3   OH246255   1.524   5.016  12.768 -0.2453 -0.1979 -0.7796
 8255TIP3    H146256   1.589   4.975  12.824  1.2203 -0.3172 -2.4675
 8255TIP3    H246257   1.516   5.105  12.800 -0.0033 -0.4751  0.0635
 8256TIP3   OH246258   4.620   2.789   0.380  0.5498  0.3543 -0.1039
 8256TIP3    H146259   4.586   2.739   0.306 -0.5920  1.6106 -0.4575
 8256TIP3    H246260   4.581   2.876   0.371 -1.1768  0.0463  3.0290
 8257TIP3   OH246261   6.176   2.342   3.024 -0.3319 -0.0038  0.0128
 8257TIP3    H146262   6.224   2.405   2.970  0.0675  1.0921  1.5662
 8257TIP3    H246263   6.101   2.390   3.058  0.0839 -0.2536  1.3887
 8258TIP3   OH246264   2.807   2.879  14.891  0.3824 -0.0016 -0.5668
 8258TIP3    H146265   2.813   2.972  14.866  1.0928 -0.2510 -1.3318
 8258TIP3    H246266   2.851   2.874  14.976  0.9579  0.2360 -0.8496
 8259TIP3   OH246267   1.447   2.192  12.111 -0.0301 -0.7640 -0.4954
 8259TIP3    H146268   1.445   2.113  12.165  1.2714 -0.6946 -0.3305
 8259TIP3    H246269   1.505   2.252  12.157 -0.7793  0.2030 -0.7680
 8260TIP3   OH246270   3.240   6.048  11.967 -0.3982 -0.3993  0.7089
 8260TIP3    H146271   3.245   6.138  11.997  1.0637 -0.4414  0.6738
 8260TIP3    H246272   3.241   5.996  12.047 -0.0721 -0.4126  0.6975
 8261TIP3   OH246273   3.564   1.260  16.780 -0.0578 -0.1619  0.1134
 8261TIP3    H146274   3.478   1.294  16.753  0.5226  0.6198 -0.7988
 8261TIP3    H246275   3.562   1.264  16.876  0.4990  3.9678  0.1410
 8262TIP3   OH246276   3.597   6.433   3.797 -0.7582 -0.4402  0.1700
 8262TIP3    H146277   3.644   6.357   3.831 -1.0376 -1.1276 -0.9104
 8262TIP3    H246278   3.533   6.455   3.864 -1.1035 -1.5668  0.2140
 8263TIP3   OH246279   0.404   0.345  12.347 -0.2126 -0.2502  0.0824
 8263TIP3    H146280   0.397   0.368  12.440  1.7945 -1.4159  0.5763
 8263TIP3    H246281   0.364   0.258  12.341 -0.4816 -0.1096 -0.1904
 8264TIP3   OH246282   1.040   0.828   2.480  0.1171 -0.0426 -0.3059
 8264TIP3    H146283   1.071   0.807   2.392  0.2054 -1.4434  0.0425
 8264TIP3    H246284   0.988   0.908   2.469  0.4426  0.0136 -1.5560
 8265TIP3   OH246285   4.889   2.709  16.953 -0.1350  0.2116 -0.1851
 8265TIP3    H146286   4.848   2.653  17.019 -3.9627  1.1094 -1.4815
 8265TIP3    H246287   4.902   2.651  16.877  1.9235 -0.2475  0.4593
 8266TIP3   OH246288   6.309   3.634   1.055 -0.0662  0.3308 -0.0640
 8266TIP3    H146289   6.331   3.562   1.114  1.2233  0.4904 -0.3160
 8266TIP3    H246290   6.389   3.687   1.050 -1.2577  2.3867  0.9279
 8267TIP3   OH246291   1.903   1.595  14.510 -0.1707  0.1629 -0.2470
 8267TIP3    H146292   1.986   1.620  14.550  0.1433 -1.4912  0.2200
 8267TIP3    H246293   1.865   1.677  14.480  1.2403  1.0452  0.2846
 8268TIP3   OH246294   2.623   5.107   6.463  0.0712 -0.2695 -0.1116
 8268TIP3    H146295   2.530   5.130   6.469  0.6994  2.1516  1.7771
 8268TIP3    H246296   2.629   5.022   6.508 -1.2054 -0.4886 -0.3060
 8269TIP3   OH246297   5.449   2.856   2.546 -0.0989 -0.4996 -0.0030
 8269TIP3    H146298   5.457   2.874   2.640  0.4905  1.1506 -0.3285
 8269TIP3    H246299   5.358   2.832   2.534 -0.9252  1.9724  0.6475
 8270TIP3   OH246300   3.135   1.196  12.123  0.3363 -0.0206 -0.2238
 8270TIP3    H146301   3.225   1.166  12.120  0.6663  0.8400  0.3912
 8270TIP3    H246302   3.083   1.124  12.088  1.0932 -1.2450  1.0890
 8271TIP3   OH246303   5.796   3.497  16.816 -0.8591 -0.3120 -0.5204
 8271TIP3    H146304   5.807   3.410  16.854  1.0398 -0.0720 -0.4293
 8271TIP3    H246305   5.749   3.547  16.883 -0.5060 -0.8188  0.1105
 8272TIP3   OH246306   1.257   5.181  10.675 -0.2596  0.7563  0.3096
 8272TIP3    H146307   1.169   5.189  10.638 -0.0350  0.9179 -0.1978
 8272TIP3    H246308   1.293   5.269  10.669  0.9164  0.2035 -1.9797
 8273TIP3   OH246309   2.160   4.468   1.412  0.2795  0.8319  0.2323
 8273TIP3    H146310   2.168   4.538   1.476  0.2955  0.3629  0.7482
 8273TIP3    H246311   2.099   4.405   1.451  3.7107 -1.7666  1.9621
 8274TIP3   OH246312   0.081   3.462   2.199 -0.2650  0.1998 -0.4885
 8274TIP3    H146313   0.020   3.536   2.191 -0.7167 -0.1342 -0.2440
 8274TIP3    H246314   0.154   3.496   2.250 -0.5038  0.4599 -0.3194
 8275TIP3   OH246315   1.572   3.572   4.689  0.4791 -0.0393 -0.3170
 8275TIP3    H146316   1.616   3.505   4.637 -2.3293 -1.9388 -0.4567
 8275TIP3    H246317   1.507   3.524   4.740 -1.1093  2.4852  0.1989
 8276TIP3   OH246318   0.822   1.383   5.260  0.1100 -0.0291 -0.0951
 8276TIP3    H146319   0.804   1.461   5.314  1.4797 -0.1933  0.6356
 8276TIP3    H246320   0.836   1.418   5.173 -1.4811  0.3047 -0.2647
 8277TIP3   OH246321   4.997   0.758   3.268 -0.3250 -0.2865 -0.0674
 8277TIP3    H146322   5.051   0.703   3.326 -1.1877 -1.5475 -0.4287
 8277TIP3    H246323   4.946   0.811   3.328  0.3577 -0.0178  0.2951
 8278TIP3   OH246324   4.011   4.234   5.008 -0.6535 -0.2355  0.4797
 8278TIP3    H146325   4.065   4.264   4.935 -0.2453 -0.4537  0.6826
 8278TIP3    H246326   4.065   4.250   5.086 -1.0880  0.0066  0.7322
 8279TIP3   OH246327   2.156   4.135  16.406 -0.0714  0.0071 -0.1861
 8279TIP3    H146328   2.176   4.041  16.415  2.0375  0.1768 -2.1392
 8279TIP3    H246329   2.234   4.172  16.365 -0.7767  2.6955  0.7132
 8280TIP3   OH246330   1.819   5.203  14.575  0.7385 -0.2985 -0.6870
 8280TIP3    H146331   1.764   5.250  14.513  2.1777 -0.6837 -2.3466
 8280TIP3    H246332   1.793   5.111  14.564 -0.1175 -0.2292  0.5098
 8281TIP3   OH246333   5.064   4.932  12.698  0.4055 -0.2912  0.5237
 8281TIP3    H146334   5.081   4.913  12.606 -1.2032  0.6527 -0.0016
 8281TIP3    H246335   5.095   4.854  12.744 -0.9295 -1.8241 -1.0324
 8282TIP3   OH246336   4.638   4.058   0.755  0.1773  0.1414 -0.2870
 8282TIP3    H146337   4.707   4.124   0.756  3.6838 -3.1759 -0.9787
 8282TIP3    H246338   4.578   4.087   0.687  0.3642  3.5205  0.7787
 8283TIP3   OH246339   6.338   1.653   3.997  0.3583 -0.4065  0.0248
 8283TIP3    H146340   6.416   1.663   3.942  0.7433  0.9887  0.7844
 8283TIP3    H246341   6.267   1.691   3.945  0.9957  2.3813  1.0302
 8284TIP3   OH246342   4.517   6.396   5.181  0.6052 -0.2406 -0.4087
 8284TIP3    H146343   4.547   6.382   5.271  1.1561 -0.8463 -0.6786
 8284TIP3    H246344   4.487   6.310   5.151  1.3666 -0.2738 -1.1341
 8285TIP3   OH246345   0.243   5.050   1.968  0.1644 -0.4063 -0.7080
 8285TIP3    H146346   0.175   5.055   2.035  0.0673  1.6399 -0.8762
 8285TIP3    H246347   0.203   5.089   1.890  1.7400  1.7424 -0.5485
 8286TIP3   OH246348   1.253   4.605  16.173  0.5755  0.1316  0.1940
 8286TIP3    H146349   1.227   4.642  16.258  0.7676 -0.2112  0.4078
 8286TIP3    H246350   1.290   4.519  16.195 -0.0113 -0.2548 -0.3080
 8287TIP3   OH246351   1.562   6.461  16.829  0.0332 -0.3430 -0.4352
 8287TIP3    H146352   1.600   6.549  16.818  0.8013 -0.2034  2.3478
 8287TIP3    H246353   1.517   6.466  16.914  0.0216 -2.6069 -0.2533
 8288TIP3   OH246354   0.323   1.139   3.271  0.6385  1.1976 -0.2899
 8288TIP3    H146355   0.247   1.176   3.227 -0.3106  1.8355  1.7787
 8288TIP3    H246356   0.296   1.051   3.297  0.0164  1.9299  1.7177
 8289TIP3   OH246357   3.191   1.445  15.679  0.5122 -0.2433  0.2231
 8289TIP3    H146358   3.225   1.372  15.627 -1.7434 -0.6813 -0.7818
 8289TIP3    H246359   3.221   1.524  15.633 -2.0029 -0.6033 -2.3882
 8290TIP3   OH246360   2.054   5.023   0.995 -0.1416 -0.1775 -0.0844
 8290TIP3    H146361   2.015   4.935   0.989  1.1613 -0.8225  0.4589
 8290TIP3    H246362   2.057   5.054   0.905 -0.8133 -0.6005 -0.2604
 8291TIP3   OH246363   2.304   1.333  16.435 -0.6800  0.0802 -0.6699
 8291TIP3    H146364   2.359   1.379  16.372 -0.1249  1.7916  0.9560
 8291TIP3    H246365   2.298   1.393  16.510 -2.4602 -1.2564  0.3422
 8292TIP3   OH246366   1.149   5.793  10.732 -0.2468 -0.6096 -0.5961
 8292TIP3    H146367   1.196   5.773  10.651 -0.7178 -2.3816 -0.4786
 8292TIP3    H246368   1.082   5.857  10.706  1.2912  0.8890 -1.0311
 8293TIP3   OH246369   2.843   5.307   0.446  0.0957 -0.2666  0.3990
 8293TIP3    H146370   2.799   5.247   0.507  1.2714 -0.4813  1.0676
 8293TIP3    H246371   2.775   5.369   0.420 -1.0631 -1.6545 -0.0129
 8294TIP3   OH246372   1.164   0.316   0.023 -0.2793 -0.3409  0.2713
 8294TIP3    H146373   1.157   0.253  -0.049 -2.1888 -0.7752  0.7750
 8294TIP3    H246374   1.245   0.363   0.005  0.1058 -1.4834 -1.3018
 8295TIP3   OH246375   6.822   5.987  12.338 -0.5880  0.6478  0.1722
 8295TIP3    H146376   6.914   5.965  12.327 -1.3609 -2.2073 -1.5429
 8295TIP3    H246377   6.781   5.906  12.367 -2.7559  1.4989 -0.2995
 8296TIP3   OH246378   1.383   5.383   2.093 -0.1229 -0.3127 -0.2117
 8296TIP3    H146379   1.349   5.296   2.117  1.5702 -1.5157 -1.9187
 8296TIP3    H246380   1.323   5.415   2.026  1.2316 -1.8554 -2.2655
 8297TIP3   OH246381   3.187   2.114   2.796 -0.2272 -0.2409 -0.0817
 8297TIP3    H146382   3.246   2.179   2.757 -0.1014 -0.0022  0.4941
 8297TIP3    H246383   3.218   2.105   2.886  0.2340 -1.6780 -0.3600
 8298TIP3   OH246384   5.745   3.352   0.935 -0.0381  0.2644 -0.0836
 8298TIP3    H146385   5.826   3.401   0.919 -0.6696  0.9306 -1.4155
 8298TIP3    H246386   5.677   3.419   0.942 -0.4595 -0.2781  1.2056
 8299TIP3   OH246387   5.447   2.535  12.129  0.1341 -0.2089  0.2112
 8299TIP3    H146388   5.410   2.504  12.047 -0.5128 -1.6990  1.0186
 8299TIP3    H246389   5.538   2.557  12.108 -0.3732  0.6922 -1.1587
 8300TIP3   OH246390   4.619   6.766   5.903 -0.5283 -0.4763 -0.2746
 8300TIP3    H146391   4.590   6.680   5.873 -0.7439  0.0272 -1.5859
 8300TIP3    H246392   4.689   6.790   5.842  2.2773 -1.3326  2.3417
 8301TIP3   OH246393   1.362   4.103  12.287  0.1155 -0.0698 -0.0855
 8301TIP3    H146394   1.436   4.083  12.345 -1.0121  0.0760  1.4533
 8301TIP3    H246395   1.389   4.068  12.202  3.0664  2.3219 -0.2820
 8302TIP3   OH246396   1.345   1.377   3.018  0.9317  0.7480 -0.1397
 8302TIP3    H146397   1.329   1.466   3.048 -2.7973  0.3399 -0.5084
 8302TIP3    H246398   1.325   1.378   2.925 -1.1741 -0.7840  0.2157
 8303TIP3   OH246399   2.178   0.946   2.903 -0.1595  0.3461  0.3752
 8303TIP3    H146400   2.096   0.935   2.952 -0.2065  2.2625  0.8101
 8303TIP3    H246401   2.228   1.009   2.955  2.4003 -2.0314  1.0525
 8304TIP3   OH246402   5.453   2.573  13.570  0.8793 -0.5407  0.3565
 8304TIP3    H146403   5.487   2.487  13.593  0.4733 -0.3866  1.5694
 8304TIP3    H246404   5.358   2.563  13.571  0.8384 -0.4553 -1.0251
 8305TIP3   OH246405   1.766   1.080  13.373  0.1966  0.3823  0.1532
 8305TIP3    H146406   1.775   1.161  13.423  0.3797 -0.0161  0.7743
 8305TIP3    H246407   1.814   1.097  13.291  0.3298  0.8595  0.3295
 8306TIP3   OH246408   1.643   2.778  14.320  0.1595  0.0947  0.2254
 8306TIP3    H146409   1.553   2.750  14.334 -0.2533  1.7034  1.0053
 8306TIP3    H246410   1.645   2.808  14.229 -0.0360 -0.1508  0.1407
 8307TIP3   OH246411   1.476   5.039   0.492 -0.3863 -0.3118 -0.7850
 8307TIP3    H146412   1.488   5.089   0.411 -0.1586  0.6668 -0.1651
 8307TIP3    H246413   1.557   4.990   0.502  0.5438  1.3177  0.0184
 8308TIP3   OH246414   6.406   6.552  10.108 -0.4959  0.1360 -0.1042
 8308TIP3    H146415   6.440   6.596  10.185 -1.9045  0.1613  0.5319
 8308TIP3    H246416   6.480   6.549  10.047 -0.3345  3.5021 -0.2471
 8309TIP3   OH246417   5.614   2.516  12.731 -0.8209 -0.0340 -0.0907
 8309TIP3    H146418   5.668   2.455  12.781  0.1396  0.3357 -0.6536
 8309TIP3    H246419   5.524   2.500  12.761 -0.2585  0.3067  1.8780
 8310TIP3   OH246420   2.107   2.637   2.214  0.3302  0.7153  0.0523
 8310TIP3    H146421   2.164   2.595   2.279  1.3952  0.3225 -1.0889
 8310TIP3    H246422   2.030   2.580   2.211  1.1602 -0.4122 -0.4766
 8311TIP3   OH246423   1.763   0.208  10.511 -0.1825  0.1535  0.1962
 8311TIP3    H146424   1.761   0.133  10.452 -0.4697  0.6034 -0.3839
 8311TIP3    H246425   1.855   0.218  10.536  0.1280  0.6188 -1.0567
 8312TIP3   OH246426   5.430   4.714  13.608  0.1927 -0.1390 -0.2035
 8312TIP3    H146427   5.477   4.727  13.526 -0.8858 -0.0043 -0.8317
 8312TIP3    H246428   5.340   4.743  13.588  0.3151  1.6468  1.5244
 8313TIP3   OH246429   2.858   0.236  16.054 -0.8026 -0.4404  0.8669
 8313TIP3    H146430   2.829   0.172  15.989 -1.3299 -0.0125  0.6674
 8313TIP3    H246431   2.794   0.307  16.047  1.2834  1.4296 -0.9355
 8314TIP3   OH246432   6.309   2.394   2.152 -0.0420  0.2559 -0.3318
 8314TIP3    H146433   6.367   2.367   2.082  0.5188  1.4637 -0.3512
 8314TIP3    H246434   6.223   2.362   2.125  0.0814  1.0702 -1.7934
 8315TIP3   OH246435   5.098   3.932  12.354  0.8646 -0.2138 -0.0231
 8315TIP3    H146436   5.093   3.853  12.301 -0.7215  0.7455 -1.4116
 8315TIP3    H246437   5.178   3.975  12.324 -0.0529  0.3612 -1.8022
 8316TIP3   OH246438   4.106   5.595   1.713 -0.6014 -0.9646  0.0140
 8316TIP3    H146439   4.107   5.510   1.669 -1.0215 -0.4395 -1.0425
 8316TIP3    H246440   4.043   5.584   1.785 -2.8000 -0.7795 -1.7755
 8317TIP3   OH246441   2.840   2.824   0.646  0.0607  0.1209  0.4303
 8317TIP3    H146442   2.831   2.730   0.629 -1.4201  0.2814  0.1213
 8317TIP3    H246443   2.922   2.832   0.695  0.1058 -1.3547  0.6573
 8318TIP3   OH246444   4.945   1.776  11.742 -0.0880  0.3343 -0.6770
 8318TIP3    H146445   4.963   1.735  11.657 -0.6095 -3.4301  0.7987
 8318TIP3    H246446   5.016   1.746  11.798 -0.9720  0.8343  0.7562
 8319TIP3   OH246447   5.184   1.711  17.094  1.6043 -0.0888  0.0358
 8319TIP3    H146448   5.173   1.617  17.112  0.2717  0.3498  1.9172
 8319TIP3    H246449   5.123   1.729  17.023 -1.4009  0.0182  2.4165
 8320TIP3   OH246450   6.004   1.294  12.653  0.0861  0.0764  0.2786
 8320TIP3    H146451   6.054   1.240  12.592  0.7431 -0.9743  1.6922
 8320TIP3    H246452   6.031   1.384  12.633  0.5976 -0.2803 -0.6845
 8321TIP3   OH246453   4.199   5.878  16.991  0.3251 -0.0794 -0.7031
 8321TIP3    H146454   4.237   5.900  17.076 -1.9663  1.5206  0.0263
 8321TIP3    H246455   4.185   5.784  16.995  0.2927 -0.0447  0.7092
 8322TIP3   OH246456   5.953   3.458  14.918 -0.0982 -0.0574  0.3158
 8322TIP3    H146457   5.971   3.410  14.999  2.1431 -0.2767 -0.2627
 8322TIP3    H246458   5.993   3.544  14.931 -1.4061  0.6224  0.1313
 8323TIP3   OH246459   3.514   3.544   3.627  0.5103  0.7709 -0.0192
 8323TIP3    H146460   3.497   3.493   3.707  3.4709 -0.0017  0.2519
 8323TIP3    H246461   3.466   3.497   3.558 -0.8553  0.5600  1.0382
 8324TIP3   OH246462   4.506   3.397  11.712  0.0364 -0.3757 -0.4903
 8324TIP3    H146463   4.483   3.353  11.794 -0.0859  0.4731 -0.0574
 8324TIP3    H246464   4.503   3.328  11.646  0.4480 -1.1335  0.2707
 8325TIP3   OH246465   3.758   6.371  16.359  0.3150 -0.5384 -0.2646
 8325TIP3    H146466   3.724   6.347  16.273  0.1519 -2.4802  0.3096
 8325TIP3    H246467   3.680   6.384  16.413  0.4355 -0.9391  0.0063
 8326TIP3   OH246468   6.569   5.337   2.233 -0.6807 -0.3052  0.1342
 8326TIP3    H146469   6.592   5.317   2.143 -3.0162  0.3470 -0.6625
 8326TIP3    H246470   6.481   5.301   2.245 -0.2435 -0.8142  2.3217
 8327TIP3   OH246471   2.652   2.935  15.232 -0.0309 -0.0162  0.2027
 8327TIP3    H146472   2.606   2.983  15.163  0.6470  2.2891  1.2509
 8327TIP3    H246473   2.741   2.972  15.232  0.1800 -0.4482  1.8535
 8328TIP3   OH246474   3.870   2.163   5.262  0.4395  0.2049  0.3494
 8328TIP3    H146475   3.791   2.111   5.281 -0.2591  1.1541  0.1419
 8328TIP3    H246476   3.837   2.253   5.253  1.2177  0.3346 -1.7802
 8329TIP3   OH246477   1.790   6.465   4.980 -0.5976  0.2711  0.1811
 8329TIP3    H146478   1.836   6.418   5.049 -0.4215  0.8561  0.4660
 8329TIP3    H246479   1.855   6.525   4.944 -0.2651 -1.0213 -1.4710
 8330TIP3   OH246480   3.047   3.904  14.892  0.2999 -0.1331  0.0536
 8330TIP3    H146481   2.977   3.862  14.841  0.3610 -0.9065  0.5874
 8330TIP3    H246482   3.113   3.836  14.902  0.7646  0.3421  0.2573
 8331TIP3   OH246483   2.797   1.779   3.077 -0.6108 -0.6318  0.0495
 8331TIP3    H146484   2.723   1.799   3.020  0.0250 -2.9590 -1.7515
 8331TIP3    H246485   2.774   1.694   3.115  0.3702 -0.5495  0.8552
 8332TIP3   OH246486   6.104   3.559  10.548 -0.1125 -0.8304  0.2059
 8332TIP3    H146487   6.090   3.603  10.464  1.4664 -0.3758  0.1326
 8332TIP3    H246488   6.129   3.630  10.608 -0.6357 -1.2283  0.9037
 8333TIP3   OH246489   3.770   5.392  11.781  0.2918  0.2109  0.4734
 8333TIP3    H146490   3.745   5.483  11.798  1.8136  0.5124  1.3634
 8333TIP3    H246491   3.866   5.395  11.776  0.5407 -1.6168  2.5100
 8334TIP3   OH246492   1.322   5.272   5.266  0.1055 -0.2261 -0.2521
 8334TIP3    H146493   1.302   5.340   5.202 -0.5018  1.5282  1.7058
 8334TIP3    H246494   1.404   5.234   5.236  0.2880  1.1325 -1.5891
 8335TIP3   OH246495   6.180   2.708   2.358  0.1631 -0.0095 -0.4989
 8335TIP3    H146496   6.146   2.748   2.438 -2.5419 -0.5370 -1.2872
 8335TIP3    H246497   6.275   2.706   2.371 -0.2242 -1.7229  3.4886
 8336TIP3   OH246498   2.153   6.280   3.001 -0.2273  0.6972 -0.1724
 8336TIP3    H146499   2.235   6.268   3.049  0.5731 -0.1588 -1.6741
 8336TIP3    H246500   2.086   6.244   3.059  1.0416 -3.2072 -0.8137
 8337TIP3   OH246501   3.851   3.352   5.583  0.0169  0.1353 -0.3053
 8337TIP3    H146502   3.946   3.364   5.586 -0.0065  0.2779 -0.0324
 8337TIP3    H246503   3.827   3.368   5.492  0.1014  1.3018 -0.1335
 8338TIP3   OH246504   2.764   6.622   5.502 -0.0493  0.2954  0.3397
 8338TIP3    H146505   2.730   6.711   5.497  0.9754  0.7835  1.5905
 8338TIP3    H246506   2.829   6.625   5.572  2.1735 -0.7299 -1.5413
 8339TIP3   OH246507   2.924   0.495   0.659 -0.3050 -0.1216 -0.0264
 8339TIP3    H146508   2.950   0.519   0.748 -0.9835 -0.7866  0.3618
 8339TIP3    H246509   2.856   0.428   0.671  3.2602 -4.4335 -0.9680
 8340TIP3   OH246510   3.555   4.221  13.785 -0.1819  0.4007 -0.3283
 8340TIP3    H146511   3.587   4.257  13.867 -0.7823  0.7816 -0.2564
 8340TIP3    H246512   3.596   4.135  13.778  0.6602  0.7808 -0.1272
 8341TIP3   OH246513   6.410   2.259   3.397  0.4870  0.1640  0.4321
 8341TIP3    H146514   6.478   2.323   3.415  1.2782 -0.7000  0.6318
 8341TIP3    H246515   6.334   2.310   3.370  2.1155  1.0644 -2.9023
 8342TIP3   OH246516   0.088   5.342  11.771  0.7825 -0.0781 -0.2241
 8342TIP3    H146517   0.123   5.378  11.690  0.0556  1.5947  0.1743
 8342TIP3    H246518   0.120   5.400  11.840  0.4748 -0.8228  0.5671
 8343TIP3   OH246519   0.594   3.067   2.956  0.1016 -0.0425  0.3216
 8343TIP3    H146520   0.562   3.044   2.869 -0.7789  1.2581  0.2817
 8343TIP3    H246521   0.653   2.995   2.979  0.3868 -0.3970 -1.3555
 8344TIP3   OH246522   6.152   1.007   3.109  0.0228 -0.9639 -0.1087
 8344TIP3    H146523   6.097   0.938   3.145 -1.4617  0.5410  0.6383
 8344TIP3    H246524   6.096   1.085   3.110  2.1726  0.6737  0.7879
 8345TIP3   OH246525   3.680   0.151  16.115 -0.1441  0.5196  0.6276
 8345TIP3    H146526   3.615   0.209  16.076 -0.6020  0.0576  0.6944
 8345TIP3    H246527   3.715   0.101  16.042 -0.5562  0.0913  0.7212
 8346TIP3   OH246528   0.206   5.449  15.436  0.8217  1.1979  0.4634
 8346TIP3    H146529   0.188   5.478  15.525  0.4241  1.4569  0.3034
 8346TIP3    H246530   0.122   5.457  15.390  1.2186  1.9438 -0.1644
 8347TIP3   OH246531   5.933   2.328   3.398 -0.0862  0.9323  0.5574
 8347TIP3    H146532   5.878   2.404   3.380 -0.3872  0.5125 -0.3459
 8347TIP3    H246533   6.022   2.359   3.379 -0.1633  1.1805  0.5898
 8348TIP3   OH246534   4.051   4.761  11.570 -0.4961 -0.0482 -0.1960
 8348TIP3    H146535   4.131   4.727  11.531 -1.0336 -1.4680 -0.1085
 8348TIP3    H246536   4.026   4.835  11.514  0.0976 -0.4898 -1.0608
 8349TIP3   OH246537   2.158   0.191  10.213 -0.2516  0.0250 -0.3360
 8349TIP3    H146538   2.164   0.227  10.302  0.8364  3.3815 -1.6368
 8349TIP3    H246539   2.249   0.169  10.191 -0.2541  0.8632 -1.2112
 8350TIP3   OH246540   1.012   0.972  16.454 -0.2882  0.0293  0.4515
 8350TIP3    H146541   0.928   1.018  16.461  0.4446  1.4678  0.1692
 8350TIP3    H246542   0.998   0.905  16.387 -1.1321  0.4105  0.2364
 8351TIP3   OH246543   0.229   3.620  14.439 -0.0890  0.2629  0.5134
 8351TIP3    H146544   0.217   3.553  14.507  0.5571  1.4605  1.8746
 8351TIP3    H246545   0.296   3.678  14.475  0.8083  0.5476 -1.4985
 8352TIP3   OH246546   4.812   2.252  13.499  0.1692 -0.7810  0.4790
 8352TIP3    H146547   4.856   2.180  13.454 -0.5396 -1.2300  0.4943
 8352TIP3    H246548   4.876   2.283  13.563  1.2178 -0.1170 -0.8236
 8353TIP3   OH246549   0.014   6.730  15.413  0.0528  0.1514 -0.4427
 8353TIP3    H146550   0.084   6.776  15.458 -0.0569  0.3432 -0.4691
 8353TIP3    H246551   0.057   6.656  15.370  0.3668  0.7138 -1.1095
 8354TIP3   OH246552   0.573   1.734   4.164 -0.2475  0.1773  0.4960
 8354TIP3    H146553   0.667   1.745   4.151 -0.0526 -0.5674  1.1886
 8354TIP3    H246554   0.562   1.730   4.259 -0.9075 -0.2593  0.4115
 8355TIP3   OH246555   2.148   1.898   2.382  0.2772  0.3150  0.4037
 8355TIP3    H146556   2.184   1.968   2.436  2.5458  0.7077 -1.4637
 8355TIP3    H246557   2.130   1.940   2.297  0.3373 -1.0568 -0.3088
 8356TIP3   OH246558   6.539   2.779   2.684  0.2514  0.1612 -0.4584
 8356TIP3    H146559   6.558   2.736   2.768  0.5918  0.1984 -0.5180
 8356TIP3    H246560   6.464   2.836   2.704  0.1581 -0.0296 -0.2440
 8357TIP3   OH246561   4.287   4.400   2.886 -0.0855  0.1207  0.0566
 8357TIP3    H146562   4.370   4.449   2.886 -0.5590  0.9451  1.0804
 8357TIP3    H246563   4.291   4.347   2.806  0.7341  1.3354 -0.7448
 8358TIP3   OH246564   3.782   3.910  17.079  0.3941  0.0357 -0.0268
 8358TIP3    H146565   3.697   3.951  17.062  0.2438  0.1230  0.9021
 8358TIP3    H246566   3.843   3.960  17.025 -0.0301  0.4438 -0.1404
 8359TIP3   OH246567   3.356   6.621   1.617  0.1033 -0.2612 -0.5889
 8359TIP3    H146568   3.330   6.713   1.624  2.7880  0.6068 -0.6564
 8359TIP3    H246569   3.372   6.594   1.707  0.1725 -0.3913 -0.6404
 8360TIP3   OH246570   1.233   5.186  13.201 -0.5465 -0.3677  0.1567
 8360TIP3    H146571   1.269   5.123  13.138  0.0771  0.0311  0.1086
 8360TIP3    H246572   1.147   5.209  13.164  0.3067  0.7924 -1.2319
 8361TIP3   OH246573   6.732   0.491  15.025  0.1822 -0.2373  0.2813
 8361TIP3    H146574   6.765   0.466  14.939  1.4425 -0.4217  0.8067
 8361TIP3    H246575   6.705   0.582  15.015 -0.2401 -0.4284 -0.4501
 8362TIP3   OH246576   5.257   0.129   1.815 -0.1346  0.3247  0.2518
 8362TIP3    H146577   5.239   0.137   1.909  1.7893 -1.2968  0.8415
 8362TIP3    H246578   5.260   0.034   1.799  3.5899  0.4266 -0.4857
 8363TIP3   OH246579   1.099   1.779  12.910  0.2329 -0.2409 -0.5159
 8363TIP3    H146580   1.037   1.782  12.837  0.4861  0.4118 -0.7120
 8363TIP3    H246581   1.128   1.688  12.914 -1.4077 -0.7951  0.1471
 8364TIP3   OH246582   3.019   5.017  16.189 -0.0801  0.4411  0.7345
 8364TIP3    H146583   3.002   5.006  16.283  0.0755  1.5005  0.9059
 8364TIP3    H246584   3.034   5.111  16.179 -0.1267  0.3392 -0.3642
 8365TIP3   OH246585   2.166   1.120   6.206 -0.0045  0.1993  0.2851
 8365TIP3    H146586   2.181   1.210   6.177  0.5146  0.4925  1.4026
 8365TIP3    H246587   2.071   1.113   6.214 -0.0223  0.8091  0.6687
 8366TIP3   OH246588   2.239   2.884   1.493  0.2729  0.0232 -0.3632
 8366TIP3    H146589   2.248   2.799   1.535 -1.4361 -0.8826 -1.6922
 8366TIP3    H246590   2.209   2.865   1.405  0.4080  1.9933 -0.8989
 8367TIP3   OH246591   5.540   2.887  12.126 -0.0567 -0.0818 -0.6879
 8367TIP3    H146592   5.620   2.839  12.103 -0.8357 -1.6285 -0.2869
 8367TIP3    H246593   5.481   2.820  12.160 -0.2264  1.4898  2.5272
 8368TIP3   OH246594   4.975   1.564  15.208  0.3208  0.2446  0.0841
 8368TIP3    H146595   4.952   1.493  15.148  0.3770  1.2868 -1.2177
 8368TIP3    H246596   4.969   1.525  15.295  0.0945 -1.2753 -0.5834
 8369TIP3   OH246597   3.647   4.072  11.322 -0.2984 -0.1589 -0.0910
 8369TIP3    H146598   3.554   4.054  11.304 -0.6459  1.2903  0.1587
 8369TIP3    H246599   3.649   4.093  11.415 -0.0188  1.5049 -0.4452
 8370TIP3   OH246600   0.429   1.404   0.794  0.0829  0.3482  0.6171
 8370TIP3    H146601   0.522   1.380   0.796 -0.4282 -2.1227 -0.9197
 8370TIP3    H246602   0.417   1.458   0.872  2.8326  0.9687  0.7326
 8371TIP3   OH246603   6.076   2.673   5.174 -0.0562 -0.4886  0.2621
 8371TIP3    H146604   6.033   2.607   5.120  1.1043 -1.9241  1.0054
 8371TIP3    H246605   6.127   2.622   5.238 -0.3347  1.1375  1.8557
 8372TIP3   OH246606   0.017   0.261   5.821 -0.0276 -0.7717 -0.5284
 8372TIP3    H146607   0.047   0.306   5.899 -0.5617 -0.6045 -0.4154
 8372TIP3    H246608   0.094   0.216   5.787 -0.2663 -2.8521  1.4381
 8373TIP3   OH246609   5.989   4.674  12.829 -0.5313  0.3468  0.3833
 8373TIP3    H146610   6.057   4.669  12.896 -1.0552  0.7428  0.9580
 8373TIP3    H246611   6.025   4.732  12.762  0.2858 -0.6216 -0.0305
 8374TIP3   OH246612   2.756   6.103  10.426  0.1945  0.2599 -0.2191
 8374TIP3    H146613   2.741   6.051  10.347  0.6839  0.3352 -0.3659
 8374TIP3    H246614   2.839   6.148  10.409  0.1763  0.4667  0.2377
 8375TIP3   OH246615   4.898   4.279  10.516 -0.0857  0.4424 -1.0654
 8375TIP3    H146616   4.900   4.191  10.551 -1.2907  1.5324  2.0485
 8375TIP3    H246617   4.848   4.272  10.435  0.7778 -1.8492 -1.4590
 8376TIP3   OH246618   1.111   3.559   0.587  0.0493  0.5433  0.6851
 8376TIP3    H146619   1.181   3.611   0.548  0.4252  1.1854  2.1429
 8376TIP3    H246620   1.069   3.619   0.649 -0.9624 -0.2249  0.7594
 8377TIP3   OH246621   2.062   4.803   4.578  0.2267  0.3460 -0.2493
 8377TIP3    H146622   2.050   4.779   4.486  2.3521 -1.4602 -0.1323
 8377TIP3    H246623   2.114   4.732   4.615 -3.7847 -1.0951  3.4427
 8378TIP3   OH246624   0.449   0.951   6.514  0.5078 -0.1047  0.0169
 8378TIP3    H146625   0.535   0.961   6.553  2.6240  0.2420 -4.1775
 8378TIP3    H246626   0.458   0.877   6.453 -2.6002 -0.9116  0.3525
 8379TIP3   OH246627   1.333   4.998  16.559  0.1121  0.1077  0.1346
 8379TIP3    H146628   1.336   4.915  16.512 -1.5974  0.2098 -0.1867
 8379TIP3    H246629   1.240   5.017  16.570  0.4634  1.9309  0.3057
 8380TIP3   OH246630   3.453   0.327  14.487  0.6815  0.2234  0.1140
 8380TIP3    H146631   3.472   0.259  14.422 -0.9061 -1.0521  0.9163
 8380TIP3    H246632   3.485   0.407  14.446  0.1500 -0.5856 -2.0706
 8381TIP3   OH246633   4.779   6.380   3.437  0.7380 -0.0739  0.2755
 8381TIP3    H146634   4.796   6.397   3.344  0.8201 -0.5039  0.2068
 8381TIP3    H246635   4.686   6.400   3.449  0.7361  0.0198  0.1103
 8382TIP3   OH246636   5.089   0.210  12.988  0.5774  0.5263  0.7187
 8382TIP3    H146637   5.050   0.192  12.902  0.5041 -0.4865  0.9522
 8382TIP3    H246638   5.075   0.304  13.002  0.5538  0.6954 -0.3565
 8383TIP3   OH246639   6.363   3.246   4.049  0.1934  0.0211  0.1298
 8383TIP3    H146640   6.413   3.326   4.063 -0.5960  0.4651  0.4764
 8383TIP3    H246641   6.281   3.275   4.009  0.4860 -0.7679 -1.0872
 8384TIP3   OH246642   5.512   6.308  15.768  0.0283  0.2206 -0.4372
 8384TIP3    H146643   5.485   6.333  15.680  0.0051  0.8217 -0.2662
 8384TIP3    H246644   5.571   6.233  15.755 -0.0160  0.2730 -0.9574
 8385TIP3   OH246645   5.296   4.655   3.053 -0.0317 -0.4486 -0.6502
 8385TIP3    H146646   5.285   4.680   3.144 -0.8327  0.0997 -0.8909
 8385TIP3    H246647   5.301   4.738   3.005  1.0460 -0.7140 -1.0468
 8386TIP3   OH246648   5.317   6.596  16.445 -0.4530 -0.2327  0.1581
 8386TIP3    H146649   5.318   6.526  16.380  0.1116  0.1908 -0.2909
 8386TIP3    H246650   5.348   6.555  16.525 -0.6505 -0.6279  0.0336
 8387TIP3   OH246651   3.503   4.643  10.977 -0.6723 -0.2046 -0.0925
 8387TIP3    H146652   3.409   4.626  10.988 -0.7666  1.7144  3.8327
 8387TIP3    H246653   3.508   4.737  10.960  0.4621  0.4065  2.9034
 8388TIP3   OH246654   4.208   5.503  11.732  0.2655 -0.2448  0.1730
 8388TIP3    H146655   4.237   5.444  11.801  0.0267 -0.8617 -0.2512
 8388TIP3    H246656   4.289   5.531  11.690  0.3263 -1.0141 -0.2319
 8389TIP3   OH246657   5.139   4.311  14.635 -0.8864 -0.1753 -0.7958
 8389TIP3    H146658   5.179   4.241  14.582 -0.4499  0.2257 -1.0070
 8389TIP3    H246659   5.181   4.391  14.603 -1.6500  0.2226 -0.8037
 8390TIP3   OH246660   3.913   4.738   4.286 -0.3358  0.0417  0.1338
 8390TIP3    H146661   3.858   4.659   4.285  0.3881 -0.4651 -0.3787
 8390TIP3    H246662   3.851   4.810   4.275 -1.2949 -0.2516  2.9496
 8391TIP3   OH246663   4.385   0.380   5.656  0.4474 -0.1625  0.0903
 8391TIP3    H146664   4.305   0.335   5.630  0.0849 -0.3421  1.4324
 8391TIP3    H246665   4.449   0.309   5.668  0.3476 -0.1765  0.5697
 8392TIP3   OH246666   1.792   1.923  12.432 -0.8871 -0.1634 -0.0013
 8392TIP3    H146667   1.698   1.940  12.439 -0.8476  0.1184 -0.1114
 8392TIP3    H246668   1.812   1.936  12.339 -0.2931  2.3145  0.3904
 8393TIP3   OH246669   4.441   1.187   4.145  0.2844 -0.2789 -0.1012
 8393TIP3    H146670   4.443   1.112   4.204  0.7622  0.4632  0.8478
 8393TIP3    H246671   4.378   1.162   4.077 -0.8526 -0.8501  1.1264
 8394TIP3   OH246672   4.980   4.939  13.041  0.4582 -0.0580  0.0164
 8394TIP3    H146673   5.034   4.894  12.976  0.1105  1.2677 -1.2501
 8394TIP3    H246674   4.890   4.917  13.018  0.3424  0.1965  0.2198
 8395TIP3   OH246675   4.688   2.130   5.685  0.5593 -0.2995 -0.4565
 8395TIP3    H146676   4.677   2.059   5.621  1.9600 -0.3588 -0.6813
 8395TIP3    H246677   4.677   2.088   5.770 -0.5525 -0.3781 -0.6262
 8396TIP3   OH246678   6.345   1.995  16.233  0.0189  0.6342  0.1044
 8396TIP3    H146679   6.326   1.901  16.230 -0.6248  0.7726 -0.6258
 8396TIP3    H246680   6.396   2.007  16.313  1.4427 -0.5679 -0.5732
 8397TIP3   OH246681   0.896   1.820   1.058 -0.0839 -0.5282  0.6501
 8397TIP3    H146682   0.967   1.882   1.076  0.4061 -0.2902 -1.6929
 8397TIP3    H246683   0.819   1.875   1.045 -0.0679 -0.5536  0.4404
 8398TIP3   OH246684   2.291   0.839  16.254  0.0321  0.5321  0.2585
 8398TIP3    H146685   2.374   0.854  16.209  0.4597 -1.4961  0.2725
 8398TIP3    H246686   2.315   0.834  16.347  0.1382 -1.2165  0.1763
 8399TIP3   OH246687   6.393   0.259   3.544 -0.1094 -0.2056  0.1937
 8399TIP3    H146688   6.427   0.174   3.570 -1.7455 -1.0247 -0.1631
 8399TIP3    H246689   6.397   0.312   3.623  0.3204 -0.8346  0.6045
 8400TIP3   OH246690   1.741   3.303  13.552 -0.0128  0.3061 -0.6296
 8400TIP3    H146691   1.814   3.273  13.607  0.4858 -0.2868 -1.5881
 8400TIP3    H246692   1.715   3.387  13.591  0.2716 -0.1292  0.5473
 8401TIP3   OH246693   2.825   2.947  14.118 -0.4513 -0.5467 -0.2697
 8401TIP3    H146694   2.803   3.016  14.055  1.5379  1.1287  0.7531
 8401TIP3    H246695   2.899   2.901  14.079  1.1708  0.8679  0.9669
 8402TIP3   OH246696   4.571   3.520   5.009  0.7612 -0.5942 -0.3762
 8402TIP3    H146697   4.610   3.465   5.076 -0.4703  0.0384  0.9345
 8402TIP3    H246698   4.623   3.600   5.010  0.7961 -0.6188 -0.2275
 8403TIP3   OH246699   3.621   3.613  13.988 -0.0310 -0.3037  0.1003
 8403TIP3    H146700   3.686   3.589  14.054  1.3651  2.4831 -0.1315
 8403TIP3    H246701   3.654   3.574  13.907  0.5157 -0.1955  0.2677
 8404TIP3   OH246702   3.776   2.797  12.482 -0.3991 -0.1010 -0.0743
 8404TIP3    H146703   3.839   2.865  12.507  0.6838 -1.7360  1.9270
 8404TIP3    H246704   3.707   2.803  12.548 -0.3381 -0.8646  0.0703
 8405TIP3   OH246705   2.026   3.728  15.153  0.1028  0.2274  0.1315
 8405TIP3    H146706   2.053   3.671  15.226  0.6516  0.2197 -0.0693
 8405TIP3    H246707   2.064   3.813  15.174  2.3494 -0.3491 -1.3130
 8406TIP3   OH246708   6.486   2.286   3.023  0.0804 -0.0367 -0.2682
 8406TIP3    H146709   6.424   2.358   3.009 -0.5029 -0.4948 -0.1033
 8406TIP3    H246710   6.569   2.319   2.990 -0.1070  0.8337  0.0935
 8407TIP3   OH246711   4.362   0.534  11.218 -0.5356 -0.0762  0.5349
 8407TIP3    H146712   4.301   0.596  11.176 -1.1103 -0.3373  0.9789
 8407TIP3    H246713   4.443   0.545  11.169 -0.7373  0.7623  0.3581
 8408TIP3   OH246714   3.062   4.780  17.014 -0.4612 -0.0578 -0.4566
 8408TIP3    H146715   3.104   4.741  17.091  0.3152 -0.0210 -0.8478
 8408TIP3    H246716   3.027   4.706  16.965  1.3855 -0.3633 -1.4198
 8409TIP3   OH246717   2.537   6.263  13.685  0.4013  0.5527 -0.5042
 8409TIP3    H146718   2.619   6.312  13.692 -0.6956  2.3263  0.5930
 8409TIP3    H246719   2.554   6.181  13.731  1.3951  1.1349  0.1933
 8410TIP3   OH246720   5.889   5.190   0.957  0.7945  0.0579  0.1241
 8410TIP3    H146721   5.880   5.149   0.871  0.9445  0.4680 -0.0883
 8410TIP3    H246722   5.982   5.181   0.978  1.0356  1.1949 -0.3855
 8411TIP3   OH246723   4.743   3.461   1.178 -0.4958  0.5724 -0.0287
 8411TIP3    H146724   4.812   3.399   1.204 -0.4298  0.9628  0.7747
 8411TIP3    H246725   4.661   3.418   1.203 -0.4279  0.9943  1.0010
 8412TIP3   OH246726   0.302   0.382  16.106  0.3889 -0.2580  0.2723
 8412TIP3    H146727   0.291   0.393  16.012 -3.6714  1.2866  0.7368
 8412TIP3    H246728   0.331   0.467  16.137 -0.2457 -0.1665  0.6189
 8413TIP3   OH246729   3.877   2.352  14.143 -0.1762  0.0209 -0.3484
 8413TIP3    H146730   3.792   2.368  14.184 -0.9023 -2.4828 -0.6596
 8413TIP3    H246731   3.916   2.438  14.132 -1.7590  1.0739  1.7397
 8414TIP3   OH246732   0.742   5.098   0.675 -0.3759  0.9123  0.2146
 8414TIP3    H146733   0.798   5.085   0.599  0.6401  0.4091  1.0217
 8414TIP3    H246734   0.669   5.150   0.643 -0.3261  0.1034 -1.2573
 8415TIP3   OH246735   1.951   3.327  16.095 -0.2725 -0.0080 -0.6034
 8415TIP3    H146736   1.861   3.358  16.092 -0.5190 -0.6628 -0.1687
 8415TIP3    H246737   1.972   3.322  16.189  0.5062  0.9573 -0.7068
 8416TIP3   OH246738   5.792   2.234   1.984 -0.0623  0.1194  0.4700
 8416TIP3    H146739   5.732   2.161   1.967 -1.2431  1.2968 -0.6872
 8416TIP3    H246740   5.755   2.277   2.062  0.2076 -0.0837  0.7110
 8417TIP3   OH246741   4.323   2.683   3.589  1.0567  0.5813 -0.3885
 8417TIP3    H146742   4.259   2.754   3.592  1.1001  0.6818 -1.4975
 8417TIP3    H246743   4.350   2.671   3.680 -1.3143 -0.1918  0.2644
 8418TIP3   OH246744   6.152   0.002  13.624 -0.0547  0.4350  0.1514
 8418TIP3    H146745   6.058   0.015  13.639  0.2634  0.0854  3.1537
 8418TIP3    H246746   6.163   0.012  13.530 -3.1112  0.3701 -0.3184
 8419TIP3   OH246747   5.448   4.636   0.191  0.2699 -0.3069 -0.1430
 8419TIP3    H146748   5.446   4.614   0.284 -0.9612 -0.3168 -0.1600
 8419TIP3    H246749   5.528   4.595   0.159  1.5771  1.0255  1.2185
 8420TIP3   OH246750   6.642   4.336   2.782  0.0641  0.7346  0.1094
 8420TIP3    H146751   6.587   4.365   2.709 -0.2178  0.5036  0.2299
 8420TIP3    H246752   6.704   4.407   2.794  0.2765  0.6651 -0.5241
 8421TIP3   OH246753   0.940   4.319  12.946  0.3942  0.3468  0.4725
 8421TIP3    H146754   1.005   4.289  13.010 -0.1278 -2.7892 -0.3034
 8421TIP3    H246755   0.992   4.362  12.877  1.3890  0.0231  1.0036
 8422TIP3   OH246756   5.678   5.301  13.956  0.0985  0.1685  0.0131
 8422TIP3    H146757   5.750   5.244  13.983  0.0532  0.7765  1.5564
 8422TIP3    H246758   5.607   5.241  13.933  1.5960 -0.5272 -3.3795
 8423TIP3   OH246759   4.331   1.687   5.857  0.0489 -0.5441  0.4952
 8423TIP3    H146760   4.414   1.640   5.870 -0.6856 -1.6907  1.3316
 8423TIP3    H246761   4.275   1.654   5.928 -1.0915  0.2595 -0.0187
 8424TIP3   OH246762   0.358   2.032   5.478  0.2699  0.0174  0.5630
 8424TIP3    H146763   0.346   2.072   5.564  1.1714  1.6281 -0.0193
 8424TIP3    H246764   0.373   1.939   5.496  1.4500  0.4914  2.2357
 8425TIP3   OH246765   3.185   1.816   4.464 -0.1417  0.0944 -0.2777
 8425TIP3    H146766   3.151   1.816   4.375 -3.0840 -1.1435  0.7126
 8425TIP3    H246767   3.227   1.731   4.473 -1.1232 -0.3932 -0.1096
 8426TIP3   OH246768   2.855   0.958   4.310  0.1662 -0.2742  0.0821
 8426TIP3    H146769   2.765   0.945   4.341 -0.0754 -1.6337 -1.0724
 8426TIP3    H246770   2.909   0.946   4.388 -0.5961 -0.1989  0.6423
 8427TIP3   OH246771   1.290   3.706   2.666 -0.6375  0.1177 -0.3948
 8427TIP3    H146772   1.270   3.631   2.722 -0.8479  0.3749 -0.1153
 8427TIP3    H246773   1.213   3.715   2.610 -0.3414 -0.2615 -0.8663
 8428TIP3   OH246774   5.903   3.633  16.349 -0.2333 -0.4548  0.5571
 8428TIP3    H146775   5.811   3.624  16.373 -0.3593 -0.0479  0.2434
 8428TIP3    H246776   5.950   3.634  16.432 -0.6178  0.4757  0.7750
 8429TIP3   OH246777   1.200   6.248   2.813 -0.5386  0.2416  0.0221
 8429TIP3    H146778   1.278   6.273   2.864 -1.4831  2.1647  0.6211
 8429TIP3    H246779   1.235   6.194   2.742  1.2388  0.3238  0.7635
 8430TIP3   OH246780   3.037   0.661  14.207 -0.1573 -0.1520  0.4214
 8430TIP3    H146781   2.955   0.619  14.181  0.4141 -1.1519  0.2150
 8430TIP3    H246782   3.012   0.719  14.279 -1.3923  1.0854 -0.9517
 8431TIP3   OH246783   3.248   1.965  12.047 -0.4212  0.1340 -0.9186
 8431TIP3    H146784   3.238   1.881  12.003 -2.5703  1.7571 -3.8668
 8431TIP3    H246785   3.331   2.000  12.016 -0.0842 -0.3558 -0.5890
 8432TIP3   OH246786   5.256   3.283   5.229  0.5360  0.8341  0.1912
 8432TIP3    H146787   5.263   3.371   5.192 -0.0136  0.3832 -1.0460
 8432TIP3    H246788   5.246   3.297   5.323 -1.8877  2.2253 -0.1776
 8433TIP3   OH246789   4.439   0.381   3.529  0.4241  0.4330  0.0331
 8433TIP3    H146790   4.492   0.311   3.568  2.5910  1.9102 -0.0779
 8433TIP3    H246791   4.374   0.401   3.596  0.4252 -0.9690  0.4955
 8434TIP3   OH246792   6.484   5.322  14.852 -0.3405 -0.0507  0.1083
 8434TIP3    H146793   6.522   5.408  14.833 -0.6103  0.2930  1.0488
 8434TIP3    H246794   6.425   5.338  14.927 -0.9638 -0.9081 -0.1792
 8435TIP3   OH246795   2.954   5.592  12.206  0.3412  0.0291 -0.0736
 8435TIP3    H146796   3.003   5.628  12.132 -0.1796  0.0189 -0.4295
 8435TIP3    H246797   2.862   5.595  12.178  0.3029 -2.0900 -0.3553
 8436TIP3   OH246798   1.726   0.940  11.674 -0.0799  0.3597 -0.2661
 8436TIP3    H146799   1.633   0.938  11.651 -0.3497 -1.1542  0.8310
 8436TIP3    H246800   1.741   1.030  11.705 -1.4435  0.3329  0.5502
 8437TIP3   OH246801   5.446   1.564   6.635  0.3717 -0.5513 -0.2042
 8437TIP3    H146802   5.357   1.537   6.656  0.6552 -0.0366  1.9571
 8437TIP3    H246803   5.499   1.486   6.651  0.4462 -0.5299 -0.3449
 8438TIP3   OH246804   3.089   4.819   1.347  0.0967  0.5911  0.0491
 8438TIP3    H146805   3.127   4.906   1.337 -1.4005  1.2552 -0.2007
 8438TIP3    H246806   2.995   4.833   1.337 -0.2842 -0.8762  1.1899
 8439TIP3   OH246807   5.030   4.181   5.195 -0.3661  0.5882 -0.3601
 8439TIP3    H146808   5.119   4.163   5.166  0.0535  1.4794  0.3167
 8439TIP3    H246809   5.035   4.178   5.291 -1.5465 -1.5111 -0.3282
 8440TIP3   OH246810   3.993   1.981  17.145  0.0454 -0.3158 -0.7821
 8440TIP3    H146811   4.049   2.040  17.195 -0.8480  1.8682 -2.2454
 8440TIP3    H246812   3.951   1.926  17.212 -0.4898  1.9372  0.8330
 8441TIP3   OH246813   6.403   3.668  14.454 -0.6719  0.0708 -0.2324
 8441TIP3    H146814   6.491   3.656  14.490 -1.1586  0.3066  1.0611
 8441TIP3    H246815   6.418   3.719  14.374  0.3922 -0.1612 -0.2047
 8442TIP3   OH246816   0.646   0.412  12.117  0.0248  0.9098  0.9715
 8442TIP3    H146817   0.557   0.446  12.125 -0.6265 -0.8403  1.7559
 8442TIP3    H246818   0.635   0.317  12.111  1.7598  0.7613 -0.7141
 8443TIP3   OH246819   2.613   6.159   4.756 -0.0680 -0.0190  0.6011
 8443TIP3    H146820   2.605   6.064   4.759  0.7840 -0.1450 -0.3806
 8443TIP3    H246821   2.702   6.177   4.787  0.9236  0.1697 -2.0658
 8444TIP3   OH246822   0.161   0.158   4.081 -0.0523  0.1207  0.1392
 8444TIP3    H146823   0.197   0.069   4.076 -0.0276  0.0462  1.2791
 8444TIP3    H246824   0.220   0.211   4.029 -0.4130 -0.6251 -1.0791
 8445TIP3   OH246825   4.185   5.207  15.138 -0.0034  0.0063  0.4965
 8445TIP3    H146826   4.278   5.218  15.121 -0.1755  0.1295 -0.3873
 8445TIP3    H246827   4.163   5.122  15.100 -0.1455 -0.2600  1.1637
 8446TIP3   OH246828   6.160   0.482   2.740 -0.3522  0.1819  0.1496
 8446TIP3    H146829   6.097   0.418   2.774  0.0396  0.1242  0.7833
 8446TIP3    H246830   6.185   0.534   2.816  0.6583 -0.0490 -0.0119
 8447TIP3   OH246831   6.692   1.842  15.758  0.3583 -0.4168  0.0144
 8447TIP3    H146832   6.733   1.834  15.844  1.9561 -2.4731 -0.8605
 8447TIP3    H246833   6.759   1.812  15.697 -1.0083  0.2542 -1.9038
 8448TIP3   OH246834   0.084   3.177  14.392 -0.4710 -0.6016  0.9330
 8448TIP3    H146835  -0.001   3.170  14.348 -0.5840 -0.7773  1.1810
 8448TIP3    H246836   0.131   3.243  14.341 -1.5863  1.2180  2.1556
 8449TIP3   OH246837   1.304   0.375   1.005  0.6304  0.0069 -0.3468
 8449TIP3    H146838   1.258   0.434   1.064  0.4735  0.4337 -0.8903
 8449TIP3    H246839   1.370   0.332   1.060  2.7303  2.7832 -0.4875
 8450TIP3   OH246840   4.335   5.789  14.902  0.0584  1.1435  0.4097
 8450TIP3    H146841   4.303   5.880  14.900 -0.6167  0.9086 -0.8984
 8450TIP3    H246842   4.263   5.738  14.866  0.5306  0.1160  0.9107
 8451TIP3   OH246843   0.869   0.658  12.757  0.2864  0.3638  0.2153
 8451TIP3    H146844   0.774   0.666  12.758  0.3342  1.2221 -0.3643
 8451TIP3    H246845   0.897   0.693  12.841  0.0871 -0.0212  0.4444
 8452TIP3   OH246846   4.288   1.096  12.287 -0.2736  0.0863  0.0026
 8452TIP3    H146847   4.377   1.090  12.321 -1.0954 -1.7638  2.1207
 8452TIP3    H246848   4.277   1.017  12.233 -1.0305 -0.4679  0.9352
 8453TIP3   OH246849   4.310   0.378  17.184 -0.0554  0.5055 -0.4759
 8453TIP3    H146850   4.355   0.450  17.229  1.7583 -1.3368  0.8127
 8453TIP3    H246851   4.381   0.323  17.150 -1.3141 -1.6961  0.2855
 8454TIP3   OH246852   0.638   4.599  15.614 -0.3481  0.0457 -0.2973
 8454TIP3    H146853   0.658   4.548  15.693 -1.1600 -0.4423 -0.3944
 8454TIP3    H246854   0.646   4.535  15.542 -1.5577 -0.0070 -0.4007
 8455TIP3   OH246855   2.380   6.248   4.619  0.1920 -0.1958 -0.5146
 8455TIP3    H146856   2.437   6.303   4.564  1.2237  0.0700  0.7660
 8455TIP3    H246857   2.436   6.221   4.691 -1.6977  1.4656  1.7536
 8456TIP3   OH246858   2.569   5.307  16.095  0.0897  0.4993 -0.0263
 8456TIP3    H146859   2.546   5.275  16.182  0.9314 -0.2031 -0.0602
 8456TIP3    H246860   2.527   5.246  16.035  1.1061 -0.1389 -0.0953
 8457TIP3   OH246861   5.866   0.101  15.278  0.1752  0.1257  0.3769
 8457TIP3    H146862   5.882   0.181  15.229  0.5083 -0.3062 -0.2263
 8457TIP3    H246863   5.825   0.131  15.360 -0.4875  0.8449 -0.1982
 8458TIP3   OH246864   6.597   3.646   3.182 -0.1364 -0.0728  0.1300
 8458TIP3    H146865   6.691   3.649   3.201 -0.1826 -1.1256  0.5591
 8458TIP3    H246866   6.568   3.562   3.216 -0.5021 -1.5465 -3.3942
 8459TIP3   OH246867   5.006   6.024   1.979  0.0649 -0.1370  0.0075
 8459TIP3    H146868   4.913   6.043   1.967  0.2093  1.3336  1.0366
 8459TIP3    H246869   5.051   6.107   1.960  0.8623  0.2562  3.0636
 8460TIP3   OH246870   1.778   4.771  12.009 -0.2433  0.2836 -0.0192
 8460TIP3    H146871   1.796   4.865  12.023  0.0840  0.4172 -1.2115
 8460TIP3    H246872   1.864   4.729  12.021 -0.1374  0.2946 -0.7299
 8461TIP3   OH246873   1.187   5.316  16.583  0.0701  0.7477  0.0860
 8461TIP3    H146874   1.225   5.367  16.511 -0.9573 -0.9242 -1.7275
 8461TIP3    H246875   1.259   5.304  16.644  0.6731  3.2413 -0.0316
 8462TIP3   OH246876   4.424   0.807  14.013  0.5069 -0.1775 -0.1183
 8462TIP3    H146877   4.354   0.751  13.980 -0.2331  0.8565 -0.3537
 8462TIP3    H246878   4.454   0.856  13.936  1.7578 -0.8731 -0.0970
 8463TIP3   OH246879   4.139   3.148   2.262  0.7113 -0.3555 -0.4916
 8463TIP3    H146880   4.172   3.220   2.315  0.1630 -1.6991  1.7967
 8463TIP3    H246881   4.188   3.071   2.292  1.4862 -0.9610 -3.0461
 8464TIP3   OH246882   1.022   2.421  13.048  0.5031 -0.2462  0.3089
 8464TIP3    H146883   0.938   2.419  13.002 -1.4779  0.5301  3.5360
 8464TIP3    H246884   1.087   2.435  12.980 -1.8227 -1.9727 -2.4994
 8465TIP3   OH246885   3.898   3.287  14.790  0.1938  0.2311  0.4036
 8465TIP3    H146886   3.905   3.363  14.732 -1.3617  0.5289  0.5596
 8465TIP3    H246887   3.927   3.213  14.736  1.2843  0.8442  0.1073
 8466TIP3   OH246888   0.419   6.474   4.559 -0.2395 -0.1628  0.7534
 8466TIP3    H146889   0.483   6.508   4.622 -1.1781  1.0021  1.1037
 8466TIP3    H246890   0.448   6.508   4.474 -0.5938  0.6938  0.9650
 8467TIP3   OH246891   2.917   3.933  15.145 -0.0410  0.2425  0.2490
 8467TIP3    H146892   2.827   3.966  15.140  0.3193  1.0658 -1.3179
 8467TIP3    H246893   2.958   3.962  15.063  1.6619 -0.1099  0.9398
 8468TIP3   OH246894   5.387   6.481  10.463  0.1328  0.0922  0.6914
 8468TIP3    H146895   5.407   6.575  10.466 -0.5856  0.2562  0.4004
 8468TIP3    H246896   5.331   6.466  10.539 -2.1395  0.4807 -0.8209
 8469TIP3   OH246897   3.666   5.847  11.924  0.2608 -0.1314 -0.2095
 8469TIP3    H146898   3.701   5.914  11.983  1.1705 -0.2340 -0.6082
 8469TIP3    H246899   3.669   5.767  11.976  0.3461 -0.0854 -0.1413
 8470TIP3   OH246900   6.286   3.328  13.709 -0.1897 -0.2104  0.0240
 8470TIP3    H146901   6.284   3.315  13.804  0.0238 -0.1087  0.0438
 8470TIP3    H246902   6.219   3.395  13.692 -2.6780 -2.6352 -0.3080
 8471TIP3   OH246903   6.639   2.969  14.815  0.5967 -0.0812  0.0628
 8471TIP3    H146904   6.713   2.910  14.800 -1.2530 -1.9419 -2.5685
 8471TIP3    H246905   6.562   2.913  14.808 -1.2062  2.2778 -0.1711
 8472TIP3   OH246906   3.177   5.476  12.504  0.2973 -0.0840  0.5718
 8472TIP3    H146907   3.103   5.449  12.449  1.3347 -1.5299 -0.1957
 8472TIP3    H246908   3.188   5.569  12.486 -0.5012 -0.1497 -0.3376
 8473TIP3   OH246909   5.059   2.912   4.822 -0.3646  0.3446  0.3344
 8473TIP3    H146910   5.025   2.999   4.842 -1.6090 -0.0824  0.1938
 8473TIP3    H246911   5.131   2.900   4.883  2.0941  2.7701 -1.8382
 8474TIP3   OH246912   3.829   3.380   0.224 -0.8217  0.0662  0.5097
 8474TIP3    H146913   3.788   3.354   0.306  0.6064 -0.6811  1.0317
 8474TIP3    H246914   3.802   3.471   0.211 -1.5623 -0.0022  1.4873
 8475TIP3   OH246915   4.707   5.350   4.496 -0.5694  0.2442  0.9725
 8475TIP3    H146916   4.754   5.341   4.579 -1.0124  0.0273  1.1979
 8475TIP3    H246917   4.696   5.444   4.485  0.7037  0.3579  0.4783
 8476TIP3   OH246918   5.042   4.549   4.325 -0.6644 -0.0663  0.2968
 8476TIP3    H146919   5.100   4.479   4.354 -1.8654 -1.2940 -0.1857
 8476TIP3    H246920   5.029   4.533   4.232 -0.4071  1.2191  0.0238
 8477TIP3   OH246921   2.651   4.947  10.056  0.4464  0.5422 -0.7565
 8477TIP3    H146922   2.740   4.947  10.092 -0.6584  0.9745  2.2033
 8477TIP3    H246923   2.613   5.030  10.085 -2.5766 -1.7829  2.7944
 8478TIP3   OH246924   6.216   4.978   4.407  0.0207  0.0341  0.2978
 8478TIP3    H146925   6.139   4.938   4.448  0.4960 -0.6348  0.5628
 8478TIP3    H246926   6.193   4.984   4.314 -0.2097 -0.5112  0.3151
 8479TIP3   OH246927   2.250   0.342  13.023 -0.3310  0.5508  0.4743
 8479TIP3    H146928   2.211   0.363  12.938  1.7804  2.2181 -0.1662
 8479TIP3    H246929   2.183   0.366  13.086 -0.9740  1.7682 -0.6237
 8480TIP3   OH246930   2.935   0.821  16.172  0.6116 -0.2524 -0.4523
 8480TIP3    H146931   2.952   0.873  16.094  0.6874 -0.5457 -0.6349
 8480TIP3    H246932   2.845   0.841  16.196  0.7197  0.1461 -0.3778
 8481TIP3   OH246933   4.162   2.668  12.854 -0.0867 -0.3668  1.0676
 8481TIP3    H146934   4.244   2.667  12.904  0.0447  0.8204  0.8930
 8481TIP3    H246935   4.097   2.632  12.915  0.6992 -2.1372  0.9119
 8482TIP3   OH246936   2.503   4.312   2.445  0.0518 -0.5784 -0.1556
 8482TIP3    H146937   2.494   4.242   2.381 -0.3349 -2.2779  1.6572
 8482TIP3    H246938   2.589   4.298   2.485  1.2241  1.7301 -1.6305
 8483TIP3   OH246939   0.196   5.324   0.963 -0.4475 -0.4618 -0.5141
 8483TIP3    H146940   0.162   5.348   1.049 -0.9725 -0.4693 -0.7163
 8483TIP3    H246941   0.139   5.369   0.900  1.5137  1.7140 -0.8718
 8484TIP3   OH246942   0.160   1.408  12.075 -0.1287 -0.6892 -0.1769
 8484TIP3    H146943   0.238   1.460  12.096  0.9899 -1.7465 -1.5251
 8484TIP3    H246944   0.194   1.331  12.028 -2.0258 -0.9521 -1.2174
 8485TIP3   OH246945   6.523   5.373   3.904  0.1824 -0.4267  0.4184
 8485TIP3    H146946   6.596   5.364   3.966  2.1452  2.8136 -1.1298
 8485TIP3    H246947   6.478   5.453   3.932  0.7242  0.7455 -1.8165
 8486TIP3   OH246948   5.729   2.939  15.714 -0.5378  0.4284  0.4030
 8486TIP3    H146949   5.787   2.863  15.725 -0.9501  0.0961  0.3285
 8486TIP3    H246950   5.719   2.974  15.802 -0.9701 -0.0827  0.5669
 8487TIP3   OH246951   4.725   1.741  11.083  0.3899  0.2516 -0.0509
 8487TIP3    H146952   4.664   1.785  11.023 -0.3498 -1.1778 -0.3774
 8487TIP3    H246953   4.799   1.716  11.027  1.0217  1.4216  0.2217
 8488TIP3   OH246954   2.196   1.718   2.580  0.0620  0.5570  0.2819
 8488TIP3    H146955   2.198   1.769   2.498  0.7333  0.7320  0.3981
 8488TIP3    H246956   2.286   1.723   2.612  0.2092 -0.9612  0.1488
 8489TIP3   OH246957   6.208   1.525   0.854 -0.1017  0.2071  0.0421
 8489TIP3    H146958   6.207   1.429   0.852  0.0390  0.2031 -1.3765
 8489TIP3    H246959   6.221   1.547   0.946 -0.2013 -1.1351  0.4045
 8490TIP3   OH246960   2.592   1.559   4.205 -0.5719 -0.0843  0.0311
 8490TIP3    H146961   2.663   1.623   4.196 -0.7635  0.2325  0.6678
 8490TIP3    H246962   2.534   1.598   4.271  0.0057 -1.5198  1.4566
 8491TIP3   OH246963   2.166   5.954   5.098 -0.0995  0.2742  0.3148
 8491TIP3    H146964   2.219   5.952   5.177  0.4333 -0.8482 -0.0446
 8491TIP3    H246965   2.219   5.910   5.032 -0.4963  1.2642 -0.7051
 8492TIP3   OH246966   2.635   0.747  14.982  0.3458 -0.0739 -0.0345
 8492TIP3    H146967   2.593   0.673  14.939  0.5338 -1.0180  1.3318
 8492TIP3    H246968   2.577   0.770  15.054  1.2912 -0.2447  0.8053
 8493TIP3   OH246969   6.390   6.546  14.796 -0.1019  0.0985  0.2281
 8493TIP3    H146970   6.398   6.641  14.804 -2.0480  0.5201 -1.8899
 8493TIP3    H246971   6.449   6.522  14.725 -1.2025  0.0843 -0.7112
 8494TIP3   OH246972   1.404   2.221  11.222  0.4052  0.5622  0.1448
 8494TIP3    H146973   1.316   2.241  11.189  0.3327 -1.1929 -0.8317
 8494TIP3    H246974   1.389   2.188  11.310  0.0182 -0.2446 -0.2149
 8495TIP3   OH246975   2.731   5.848   0.630  0.1152 -0.1630 -0.1309
 8495TIP3    H146976   2.657   5.884   0.679  1.2806 -1.1433  2.5242
 8495TIP3    H246977   2.769   5.783   0.689  3.3275  0.5590 -1.2333
 8496TIP3   OH246978   5.662   1.656  11.629 -0.1562 -0.5972 -0.2975
 8496TIP3    H146979   5.718   1.638  11.704  1.0700 -0.1564 -1.0794
 8496TIP3    H246980   5.665   1.752  11.620 -1.8065 -0.4711  0.2108
 8497TIP3   OH246981   4.881   5.193   3.761 -0.2915  0.3859  0.2973
 8497TIP3    H146982   4.813   5.225   3.821  1.0781  1.2629  1.4391
 8497TIP3    H246983   4.903   5.268   3.706 -0.9916 -0.2019 -0.8215
 8498TIP3   OH246984   0.371   2.575   5.101  0.3013 -0.3156  0.0220
 8498TIP3    H146985   0.345   2.509   5.165  0.9429 -2.1795 -1.5379
 8498TIP3    H246986   0.305   2.644   5.110 -1.0978 -1.6977  0.9082
 8499TIP3   OH246987   1.903   0.116   4.651  0.3197  0.2988 -0.5527
 8499TIP3    H146988   1.916   0.210   4.659 -1.2719  0.5137 -0.0371
 8499TIP3    H246989   1.990   0.080   4.636  0.9886  1.8194 -0.4514
 8500TIP3   OH246990   5.139   0.289  14.787 -0.0026 -0.3605  0.4368
 8500TIP3    H146991   5.169   0.363  14.734 -1.8275 -0.9181 -1.5341
 8500TIP3    H246992   5.162   0.212  14.736 -3.9745 -0.8560 -1.0039
 8501TIP3   OH246993   1.605   5.268  15.639 -0.5434  0.1814 -0.2129
 8501TIP3    H146994   1.542   5.322  15.687 -1.5358 -0.7418 -0.4427
 8501TIP3    H246995   1.590   5.290  15.547  1.8986  2.5418 -0.1640
 8502TIP3   OH246996   5.808   4.266   4.948  0.0544 -0.0919 -0.3287
 8502TIP3    H146997   5.741   4.322   4.987  1.0954  1.4010 -0.5982
 8502TIP3    H246998   5.811   4.190   5.005 -2.3453 -0.5593 -0.7017
 8503TIP3   OH246999   3.623   3.722  11.673  0.6177  0.2371  0.3607
 8503TIP3    H147000   3.656   3.811  11.667  0.0037  0.5731  1.7462
 8503TIP3    H247001   3.530   3.729  11.649  0.5082  0.0082  0.7184
 8504TIP3   OH247002   6.108   2.502  13.024 -0.1075 -0.3417 -0.0835
 8504TIP3    H147003   6.035   2.533  13.078 -0.5148 -2.0185  0.3978
 8504TIP3    H247004   6.083   2.524  12.935  0.5405  2.4197  0.3301
 8505TIP3   OH247005   1.497   0.409   3.462 -0.0448  0.5249  0.3934
 8505TIP3    H147006   1.577   0.460   3.449  1.0111 -1.4951 -1.9049
 8505TIP3    H247007   1.448   0.421   3.381  0.4242 -2.2721 -0.3995
 8506TIP3   OH247008   1.157   5.732   1.959  0.4793  0.5661  0.4504
 8506TIP3    H147009   1.140   5.789   2.034 -1.4637  0.4642  0.1521
 8506TIP3    H247010   1.132   5.784   1.883 -1.4040 -0.6104  0.1769
 8507TIP3   OH247011   1.940   2.455  14.014  0.3491  0.2379  0.2810
 8507TIP3    H147012   1.947   2.454  14.110  0.8032 -1.4658  0.2495
 8507TIP3    H247013   2.028   2.474  13.984  1.4154 -3.9687  0.1890
 8508TIP3   OH247014   6.146   5.746  15.632 -0.3224  0.2719  0.1445
 8508TIP3    H147015   6.102   5.799  15.566  0.3436  0.4802 -0.1383
 8508TIP3    H247016   6.218   5.801  15.664  0.8149 -0.6942 -0.6523
 8509TIP3   OH247017   6.365   0.180  12.342  0.4838 -0.5104 -0.3438
 8509TIP3    H147018   6.424   0.251  12.319 -0.1130  0.2374  0.3606
 8509TIP3    H247019   6.413   0.129  12.407 -0.2672  1.1505  1.6436
 8510TIP3   OH247020   5.349   0.597   6.066  0.3587 -0.6996  0.1770
 8510TIP3    H147021   5.332   0.647   6.146  0.9445 -1.9171  1.0900
 8510TIP3    H247022   5.266   0.554   6.046  0.2099 -0.3875  0.1117
 8511TIP3   OH247023   0.097   4.323   3.386  0.3213 -0.5215 -0.3587
 8511TIP3    H147024   0.188   4.296   3.398  0.2075 -0.2801  1.1873
 8511TIP3    H247025   0.095   4.413   3.417 -0.7237 -0.9717  0.9294
 8512TIP3   OH247026   2.144   2.303   0.228 -0.4116  0.0262 -0.1183
 8512TIP3    H147027   2.088   2.269   0.157 -0.0527 -3.9826  1.3102
 8512TIP3    H247028   2.203   2.231   0.249  1.6261  2.1938  2.1844
 8513TIP3   OH247029   0.333   4.136   2.415 -0.9144  0.4616 -0.5159
 8513TIP3    H147030   0.325   4.047   2.380 -2.3686  0.8127 -1.1248
 8513TIP3    H247031   0.305   4.129   2.506 -0.6709  0.2383 -0.4561
 8514TIP3   OH247032   3.913   1.801   2.970 -0.2292  0.0420 -0.0470
 8514TIP3    H147033   3.890   1.826   3.059 -1.4441  3.1253 -1.1095
 8514TIP3    H247034   3.993   1.749   2.980  0.7950  1.9294  2.7304
 8515TIP3   OH247035   2.127   5.016   2.426  0.3555  0.2245  0.0334
 8515TIP3    H147036   2.218   4.994   2.448  0.2826  1.0498  1.2348
 8515TIP3    H247037   2.118   5.108   2.451 -1.3109 -0.3156  1.6348
 8516TIP3   OH247038   0.446   2.870   3.883  0.2417  0.3440 -0.0784
 8516TIP3    H147039   0.537   2.891   3.864  0.2176 -0.8669 -1.7530
 8516TIP3    H247040   0.431   2.786   3.841 -1.4761  0.1886  0.7371
 8517TIP3   OH247041   4.630   0.858   1.138 -0.7052  0.4857 -0.0995
 8517TIP3    H147042   4.712   0.817   1.165 -1.3016 -0.5205  0.2632
 8517TIP3    H247043   4.567   0.786   1.137 -1.6757  1.3122  0.0508
 8518TIP3   OH247044   6.352   0.735   4.741  0.4374 -0.3501 -0.2021
 8518TIP3    H147045   6.371   0.733   4.647 -1.6124  0.6814 -0.6945
 8518TIP3    H247046   6.386   0.819   4.771 -0.9506  0.3732 -0.5579
 8519TIP3   OH247047   5.891   0.502  17.011 -0.3816  0.4219  0.0328
 8519TIP3    H147048   5.860   0.434  17.070 -0.3929  0.4621  0.0740
 8519TIP3    H247049   5.832   0.576  17.026 -0.6067  0.3075 -0.2924
 8520TIP3   OH247050   1.769   0.627  16.989  0.0910 -0.3637  0.5818
 8520TIP3    H147051   1.837   0.630  16.922  1.2798  0.2714  1.7607
 8520TIP3    H247052   1.728   0.713  16.986 -0.3642 -0.5953  0.1654
 8521TIP3   OH247053   5.335   1.245  11.693  0.0099  0.3151  0.0581
 8521TIP3    H147054   5.403   1.304  11.727  0.8316 -0.0170 -0.9832
 8521TIP3    H247055   5.379   1.192  11.627 -1.2156 -0.0441 -0.5037
 8522TIP3   OH247056   2.157   4.808  15.846 -0.7201  0.4722  0.2119
 8522TIP3    H147057   2.186   4.770  15.764  1.2570  2.7596 -0.2387
 8522TIP3    H247058   2.066   4.777  15.856 -0.1488 -1.9990 -1.4123
 8523TIP3   OH247059   4.642   6.682  13.834 -0.0141 -0.2852 -0.0013
 8523TIP3    H147060   4.635   6.721  13.747 -2.1766 -0.8373 -0.1349
 8523TIP3    H247061   4.668   6.754  13.891  1.6315  0.0468 -1.0806
 8524TIP3   OH247062   5.882   1.057   0.830  0.5072  0.4625  0.3832
 8524TIP3    H147063   5.826   0.983   0.805 -0.0559  0.6972  0.9168
 8524TIP3    H247064   5.853   1.079   0.919  0.8364  1.1679  0.3201
 8525TIP3   OH247065   4.765   0.794   6.700  0.7368 -0.2620  0.1641
 8525TIP3    H147066   4.780   0.729   6.631  2.9711  0.1824  0.1685
 8525TIP3    H247067   4.772   0.746   6.782  1.4524 -0.2085  0.1420
 8526TIP3   OH247068   0.591   1.190   4.340 -0.4869 -0.2806  0.0647
 8526TIP3    H147069   0.555   1.157   4.422 -1.4593 -1.6016 -0.8397
 8526TIP3    H247070   0.665   1.245   4.366 -1.5673  0.3977  1.8669
 8527TIP3   OH247071   0.757   3.147  16.170  0.1847  0.3309 -0.2340
 8527TIP3    H147072   0.774   3.240  16.178 -1.3173  0.4721  2.5075
 8527TIP3    H247073   0.841   3.109  16.144  1.2844  2.2337  0.3858
 8528TIP3   OH247074   1.821   4.535  10.813  0.0398  0.0227 -0.1172
 8528TIP3    H147075   1.746   4.499  10.765  0.7481 -2.0019  0.1661
 8528TIP3    H247076   1.889   4.545  10.746  0.4003 -0.9281  0.0815
 8529TIP3   OH247077   6.660   3.082  13.431 -0.6177 -0.2272  0.5051
 8529TIP3    H147078   6.750   3.086  13.464 -0.4598  0.4813  0.0249
 8529TIP3    H247079   6.606   3.101  13.507 -0.3015  0.4671  0.5684
 8530TIP3   OH247080   4.223   2.859   0.596 -0.0122  0.1844 -0.1751
 8530TIP3    H147081   4.265   2.928   0.648 -0.3068  0.2441 -0.0156
 8530TIP3    H247082   4.147   2.833   0.648 -0.3341  0.2754 -0.5966
 8531TIP3   OH247083   2.289   5.853   5.333 -0.1701  0.5095 -0.4346
 8531TIP3    H147084   2.345   5.839   5.410 -0.4463  0.0385 -0.3128
 8531TIP3    H247085   2.320   5.788   5.269  1.2027  2.0324 -1.3804
 8532TIP3   OH247086   6.275   0.278   5.391  0.2140 -0.3413 -0.0203
 8532TIP3    H147087   6.207   0.337   5.424  1.6319  1.6273 -0.4444
 8532TIP3    H247088   6.233   0.192   5.388 -1.7898  0.5368  1.0994
 8533TIP3   OH247089   1.133   3.050  16.590 -0.4223  0.1454 -0.0328
 8533TIP3    H147090   1.197   3.098  16.643 -1.1719 -0.8652  1.8941
 8533TIP3    H247091   1.108   2.976  16.645 -1.3939 -0.8709 -1.7722
 8534TIP3   OH247092   1.178   3.770   2.974 -0.6381  0.3731  0.2385
 8534TIP3    H147093   1.178   3.799   2.882  0.2806  0.1982  0.1675
 8534TIP3    H247094   1.153   3.847   3.024 -0.2875  0.7102 -0.1015
 8535TIP3   OH247095   4.341   1.216   2.740  0.3322  0.1156  0.4678
 8535TIP3    H147096   4.249   1.192   2.744  0.2634  0.3144  0.0037
 8535TIP3    H247097   4.387   1.132   2.737  0.1901  0.0068  1.0272
 8536TIP3   OH247098   1.805   2.296   2.048 -0.0557  0.3475  0.1340
 8536TIP3    H147099   1.711   2.314   2.042 -0.1207  1.0161  2.1869
 8536TIP3    H247100   1.811   2.201   2.056 -0.6239  0.3575  0.7696
 8537TIP3   OH247101   3.490   4.978  15.150  0.0531 -0.1065 -0.3273
 8537TIP3    H147102   3.503   5.063  15.193 -1.6775  0.6418 -1.1793
 8537TIP3    H247103   3.578   4.943  15.138  0.6747  0.0313  2.9861
 8538TIP3   OH247104   0.176   2.290   3.641  0.5230 -0.7315  0.1862
 8538TIP3    H147105   0.129   2.327   3.566  2.8413 -0.2707 -1.1356
 8538TIP3    H247106   0.139   2.335   3.717 -0.1195  0.7234 -0.9441
 8539TIP3   OH247107   5.559   5.159  10.988  0.0408 -0.0072  0.0593
 8539TIP3    H147108   5.611   5.206  10.923 -2.3703 -0.9825 -2.8084
 8539TIP3    H247109   5.590   5.069  10.983 -0.6752 -0.2433 -0.3972
 8540TIP3   OH247110   3.691   2.002   0.333  0.0234 -0.1904  0.0484
 8540TIP3    H147111   3.748   2.036   0.264 -0.0964  2.2359  1.0533
 8540TIP3    H247112   3.704   2.061   0.407 -2.2108 -0.8181  1.0400
 8541TIP3   OH247113   5.641   6.535   4.216  0.2267 -0.1852  0.8383
 8541TIP3    H147114   5.693   6.499   4.144  0.2052 -1.4561  1.4404
 8541TIP3    H247115   5.637   6.629   4.197  0.6186 -0.4201 -0.5614
 8542TIP3   OH247116   4.660   0.209  16.469  0.0303  0.0482  0.1164
 8542TIP3    H147117   4.673   0.142  16.535 -1.7177  0.3864  0.8668
 8542TIP3    H247118   4.643   0.161  16.388 -2.1188 -0.4758  0.8353
 8543TIP3   OH247119   2.425   1.405   4.613 -0.3364  0.1865  0.3590
 8543TIP3    H147120   2.363   1.366   4.675 -0.0592 -0.8553 -0.0097
 8543TIP3    H247121   2.375   1.413   4.532 -0.6956  1.5374  0.6934
 8544TIP3   OH247122   5.857   1.661  12.495 -0.1282  0.5266  0.6905
 8544TIP3    H147123   5.898   1.604  12.430 -1.4140 -0.6358  0.8759
 8544TIP3    H247124   5.767   1.673  12.464 -1.5926 -2.0983  3.4179
 8545TIP3   OH247125   2.950   3.174  13.156 -0.3321  0.0471 -0.3987
 8545TIP3    H147126   2.888   3.104  13.177 -1.6125  1.3375  0.2949
 8545TIP3    H247127   2.934   3.241  13.221 -0.1861  1.6345 -1.9136
 8546TIP3   OH247128   4.252   0.909  15.877  0.0148  0.0207 -0.0566
 8546TIP3    H147129   4.289   0.848  15.940  2.9961  1.7789  0.0847
 8546TIP3    H247130   4.188   0.960  15.928  1.3559  0.4736  1.2419
 8547TIP3   OH247131   3.777   1.076   3.342  0.7502 -0.7372  0.4136
 8547TIP3    H147132   3.735   1.130   3.274 -0.5959  0.1897  1.9053
 8547TIP3    H247133   3.861   1.119   3.358  0.0285  0.4924  1.0245
 8548TIP3   OH247134   1.494   0.977  15.911 -0.4271 -0.0726 -0.3951
 8548TIP3    H147135   1.568   1.000  15.967 -0.1536 -1.8403  0.0065
 8548TIP3    H247136   1.519   0.894  15.870 -1.5906  0.0294 -1.3694
 8549TIP3   OH247137   3.567   6.061   4.967 -0.3605 -0.0650 -0.2269
 8549TIP3    H147138   3.497   6.065   4.901 -0.7818 -1.4595  0.0867
 8549TIP3    H247139   3.646   6.083   4.919 -0.9320  0.9469 -0.7299
 8550TIP3   OH247140   1.808   4.631   2.318  0.4533  0.5519 -0.2181
 8550TIP3    H147141   1.860   4.556   2.346 -0.6471 -0.2173 -0.1784
 8550TIP3    H247142   1.776   4.670   2.400 -0.4090  0.0093 -0.2853
 8551TIP3   OH247143   6.786   1.178  16.165 -0.8230  0.0638 -0.0276
 8551TIP3    H147144   6.722   1.108  16.151 -4.0751  2.7660 -0.0194
 8551TIP3    H247145   6.793   1.186  16.260  0.8488 -1.2280 -0.0006
 8552TIP3   OH247146   3.562   1.487   5.660 -0.4340 -0.4843  0.1523
 8552TIP3    H147147   3.620   1.485   5.585 -1.7107  0.7883 -0.9235
 8552TIP3    H247148   3.592   1.562   5.712 -0.6522 -0.2822 -0.0135
 8553TIP3   OH247149   1.488   5.846  12.294 -0.3205 -0.3679  0.6716
 8553TIP3    H147150   1.422   5.858  12.226  0.1878 -0.8010  0.0837
 8553TIP3    H247151   1.552   5.786  12.254  1.2868  1.2971  0.5916
 8554TIP3   OH247152   3.701   3.218   3.176  0.2539 -0.1485  0.9178
 8554TIP3    H147153   3.790   3.216   3.214  0.3966 -0.8097  0.5659
 8554TIP3    H247154   3.649   3.163   3.236  0.5502 -1.4598  0.0110
 8555TIP3   OH247155   2.133   5.873   1.147 -0.6677  0.7240 -0.0396
 8555TIP3    H147156   2.102   5.794   1.191  3.0198 -0.6139  0.5232
 8555TIP3    H247157   2.176   5.840   1.067  0.4860  2.1833 -0.0553
 8556TIP3   OH247158   3.988   3.547   4.050  0.5810 -0.4294  0.6740
 8556TIP3    H147159   3.897   3.551   4.021  1.1632 -0.8533 -1.3374
 8556TIP3    H247160   3.993   3.612   4.121 -1.2868 -0.4871  0.9294
 8557TIP3   OH247161   5.535   4.718   6.383 -0.1904  0.4738  0.9014
 8557TIP3    H147162   5.607   4.743   6.325 -2.4734  3.9953 -0.7763
 8557TIP3    H247163   5.483   4.657   6.332 -0.6094  1.2585  0.3693
 8558TIP3   OH247164   4.514   2.514  15.348 -0.0099  0.2106  0.3861
 8558TIP3    H147165   4.451   2.586  15.356 -0.0160  0.1146  1.3419
 8558TIP3    H247166   4.467   2.438  15.385  0.2551 -0.1157  0.0516
 8559TIP3   OH247167   0.170   5.723  10.993  0.1334 -0.1167 -0.1927
 8559TIP3    H147168   0.161   5.818  10.979 -0.6601  0.0114  1.0028
 8559TIP3    H247169   0.260   5.704  10.967 -0.1675  0.6592 -1.9799
 8560TIP3   OH247170   2.373   2.290  12.020  0.5951  0.1752 -0.1978
 8560TIP3    H147171   2.294   2.336  11.991 -0.1732  0.2705  1.9152
 8560TIP3    H247172   2.349   2.198  12.020  1.1550  0.0003 -1.4331
 8561TIP3   OH247173   1.897   3.346  12.937  0.1542 -0.2693 -0.0579
 8561TIP3    H147174   1.978   3.383  12.903  0.8956 -1.1739  0.6575
 8561TIP3    H247175   1.839   3.422  12.948  1.6040  0.7106  1.3408
 8562TIP3   OH247176   4.387   2.224  13.708 -0.6239  0.3438  0.0155
 8562TIP3    H147177   4.402   2.305  13.659 -2.6723  0.3708 -0.6610
 8562TIP3    H247178   4.466   2.213  13.761 -0.0390  2.4535 -0.3205
 8563TIP3   OH247179   6.539   0.409  12.645 -0.3948  0.2108  0.2872
 8563TIP3    H147180   6.491   0.481  12.605 -0.6435  0.6825  1.3912
 8563TIP3    H247181   6.479   0.334  12.639 -0.9165  0.5720  0.8390
 8564TIP3   OH247182   0.674   1.261   2.657  0.1444  0.2047  0.4657
 8564TIP3    H147183   0.608   1.329   2.641  0.3110  1.3714  3.9274
 8564TIP3    H247184   0.757   1.303   2.636  0.1002  0.2137  0.3018
 8565TIP3   OH247185   1.185   4.675  16.444 -0.1529 -0.1624 -0.5809
 8565TIP3    H147186   1.260   4.734  16.447 -0.3783  0.1088 -0.1307
 8565TIP3    H247187   1.217   4.594  16.485 -0.0412 -0.1219 -0.5874
 8566TIP3   OH247188   3.806   2.308   2.869 -0.6845  0.0177 -0.0990
 8566TIP3    H147189   3.743   2.366   2.911 -2.3201 -0.6417 -1.5095
 8566TIP3    H247190   3.844   2.258   2.941  0.3377  2.3208  1.0933
 8567TIP3   OH247191   4.336   4.195   0.971 -0.4068 -0.1572 -0.0046
 8567TIP3    H147192   4.289   4.232   0.897  0.9033 -1.6680 -1.7046
 8567TIP3    H247193   4.357   4.270   1.027 -0.8226  1.1454 -1.5297
 8568TIP3   OH247194   4.278   3.105  16.568  0.7184  0.1405  0.1100
 8568TIP3    H147195   4.334   3.030  16.586  0.8701  0.3328  0.4379
 8568TIP3    H247196   4.202   3.093  16.625  0.0409 -0.5376 -0.9038
 8569TIP3   OH247197   0.159   3.162  15.419 -0.3546  0.3856 -0.5903
 8569TIP3    H147198   0.225   3.196  15.479 -2.0995 -0.3024  1.8826
 8569TIP3    H247199   0.198   3.172  15.332  2.3438  1.3714  0.6204
 8570TIP3   OH247200   0.304   5.392   0.576 -0.6885  0.3050  0.4350
 8570TIP3    H147201   0.275   5.424   0.490 -0.5051  2.2810  1.0689
 8570TIP3    H247202   0.286   5.464   0.636  0.4298 -0.5369  1.8419
 8571TIP3   OH247203   5.333   1.246  10.690 -0.0046  0.2747 -0.5594
 8571TIP3    H147204   5.399   1.192  10.647  0.5039  0.4314  0.0161
 8571TIP3    H247205   5.319   1.205  10.775  1.4585  1.8199  0.4929
 8572TIP3   OH247206   2.699   5.916   2.201 -0.4419 -0.3234  0.4297
 8572TIP3    H147207   2.789   5.947   2.215 -0.0206 -0.8527 -0.9504
 8572TIP3    H247208   2.709   5.830   2.160 -1.5564 -0.0186 -0.5487
 8573TIP3   OH247209   6.521   6.348  11.222  0.2469  0.9319  0.0173
 8573TIP3    H147210   6.434   6.314  11.200  0.0835  0.7711  0.8703
 8573TIP3    H247211   6.579   6.311  11.155 -0.2163  0.4003 -0.0970
 8574TIP3   OH247212   4.068   0.089  13.596 -0.1518 -0.3561  0.6174
 8574TIP3    H147213   3.978   0.113  13.619  0.4416 -0.4163  3.3127
 8574TIP3    H247214   4.118   0.169  13.610  0.5407 -0.9095  1.3894
 8575TIP3   OH247215   1.762   6.055   2.652  0.4177  0.3428 -0.3365
 8575TIP3    H147216   1.829   6.117   2.683  1.0088  0.3022 -1.4864
 8575TIP3    H247217   1.806   5.971   2.650  0.0505  0.1454 -0.2203
 8576TIP3   OH247218   3.110   5.171  13.349  0.3972 -0.1466  0.1231
 8576TIP3    H147219   3.054   5.101  13.316  1.3499 -0.3764 -1.0599
 8576TIP3    H247220   3.170   5.190  13.277  1.3999  0.5631  1.1140
 8577TIP3   OH247221   3.578   6.774   5.263 -0.2173 -0.2959 -0.2774
 8577TIP3    H147222   3.597   6.865   5.286 -1.6731  0.5358 -2.1157
 8577TIP3    H247223   3.584   6.727   5.346  0.8455  1.4163  0.6711
 8578TIP3   OH247224   3.191   2.819  15.308  0.1691 -0.0041 -0.0925
 8578TIP3    H147225   3.132   2.756  15.350  0.2277 -0.1453 -0.2204
 8578TIP3    H247226   3.184   2.897  15.362  2.0323 -0.9148  1.6108
 8579TIP3   OH247227   6.071   5.875   4.616  0.0777  0.1856  0.0969
 8579TIP3    H147228   6.085   5.786   4.581  4.0729  1.0022 -0.8852
 8579TIP3    H247229   6.158   5.903   4.644 -1.5476  2.7988  3.1169
 8580TIP3   OH247230   3.926   2.070   1.852  0.2437  0.4360 -0.5276
 8580TIP3    H147231   3.988   2.067   1.926  0.8586 -1.2391 -1.0634
 8580TIP3    H247232   3.874   2.149   1.868  1.2193  0.8234  0.9980
 8581TIP3   OH247233   5.318   3.253  17.221  0.1117  0.0444 -0.5912
 8581TIP3    H147234   5.281   3.335  17.186  0.6785  0.0637 -1.1660
 8581TIP3    H247235   5.408   3.252  17.189  0.2034 -0.6587 -0.3239
 8582TIP3   OH247236   6.557   0.162   0.726 -0.4671 -0.3050  0.4314
 8582TIP3    H147237   6.577   0.069   0.719  1.7641  0.2025 -1.2547
 8582TIP3    H247238   6.486   0.176   0.664  1.5134 -0.3929 -2.0262
 8583TIP3   OH247239   0.487   6.422   2.356 -0.3805 -0.3202 -0.2088
 8583TIP3    H147240   0.521   6.343   2.314  0.9091  0.7732 -1.3166
 8583TIP3    H247241   0.393   6.405   2.367 -0.1530 -1.9410 -0.5559
 8584TIP3   OH247242   6.182   6.554   5.097 -0.1791  0.1501 -0.3078
 8584TIP3    H147243   6.101   6.560   5.046 -0.6069 -0.8505  0.2125
 8584TIP3    H247244   6.190   6.461   5.119  1.0094  0.2629 -0.1747
 8585TIP3   OH247245   6.463   0.873  15.619 -0.2599  0.1057  0.0218
 8585TIP3    H147246   6.542   0.841  15.575 -2.0479 -1.1852 -2.5279
 8585TIP3    H247247   6.495   0.938  15.682  2.8453 -0.7958 -0.4553
 8586TIP3   OH247248   0.865   4.580   5.195  0.2195 -0.1764 -0.7703
 8586TIP3    H147249   0.894   4.504   5.145 -0.5905 -1.0285  0.0286
 8586TIP3    H247250   0.770   4.570   5.201  0.4177 -1.0222  2.3769
 8587TIP3   OH247251   2.752   3.567  16.390  0.0894 -0.5439  0.4512
 8587TIP3    H147252   2.666   3.578  16.350 -0.1794 -2.2786  0.4736
 8587TIP3    H247253   2.788   3.656  16.395 -2.3126  0.4368  1.8535
 8588TIP3   OH247254   5.534   2.427   2.019  0.4073  0.0217 -0.3071
 8588TIP3    H147255   5.586   2.411   2.098 -0.0397 -1.3671 -0.2600
 8588TIP3    H247256   5.469   2.356   2.019 -3.5635  3.2550  1.3108
 8589TIP3   OH247257   0.213   3.948  12.593 -0.3723  0.2115  0.0614
 8589TIP3    H147258   0.305   3.944  12.617 -0.3517  0.7413  0.0851
 8589TIP3    H247259   0.207   3.897  12.512 -0.7656 -3.2000  2.0614
 8590TIP3   OH247260   0.647   4.277   1.406 -0.8510 -0.6114 -0.2808
 8590TIP3    H147261   0.697   4.221   1.464 -0.1256 -0.1508 -0.4494
 8590TIP3    H247262   0.656   4.237   1.319  0.5494  0.3097 -0.5953
 8591TIP3   OH247263   1.383   5.337  16.782 -0.1610 -0.4193 -1.2312
 8591TIP3    H147264   1.462   5.341  16.727  0.1472 -1.1395 -0.8578
 8591TIP3    H247265   1.388   5.416  16.836  0.2511 -0.4004 -1.2936
 8592TIP3   OH247266   0.452   4.260   0.477 -0.6486  0.4024  0.0203
 8592TIP3    H147267   0.434   4.182   0.529 -1.6598  1.0657  0.6946
 8592TIP3    H247268   0.492   4.322   0.538 -0.3515  0.6077 -0.3785
 8593TIP3   OH247269   4.250   5.437   3.674  0.3488  0.5835 -0.5087
 8593TIP3    H147270   4.164   5.404   3.700  0.9331 -2.0589 -1.6015
 8593TIP3    H247271   4.296   5.451   3.757 -0.4895  0.1134  0.0503
 8594TIP3   OH247272   2.484   2.450  16.538  0.2979 -0.1647 -0.2696
 8594TIP3    H147273   2.512   2.496  16.617 -0.1485  0.2826 -0.3660
 8594TIP3    H247274   2.400   2.490  16.516 -0.4404 -1.5093  0.0297
 8595TIP3   OH247275   4.356   4.950   4.027  0.1959  0.0434  0.0403
 8595TIP3    H147276   4.311   5.009   3.967 -0.5165  0.1144  0.6233
 8595TIP3    H247277   4.431   4.916   3.977  1.2326  2.2067 -0.0194
 8596TIP3   OH247278   4.614   6.564   5.687 -0.7897 -0.3152  0.0172
 8596TIP3    H147279   4.657   6.646   5.663 -0.2810 -0.4763  0.3676
 8596TIP3    H247280   4.582   6.529   5.604 -0.1114 -0.2622 -0.2751
 8597TIP3   OH247281   5.348   0.779   3.570  0.3399 -0.3177  0.0589
 8597TIP3    H147282   5.274   0.735   3.610  0.0131 -0.2676 -0.4719
 8597TIP3    H247283   5.403   0.708   3.536  0.8613 -0.3760  1.0027
 8598TIP3   OH247284   6.386   1.916   4.262 -0.0109 -0.2391  0.3056
 8598TIP3    H147285   6.342   1.997   4.235 -0.4085 -0.4024  0.4588
 8598TIP3    H247286   6.387   1.862   4.184  3.8593  1.4109 -1.0546
 8599TIP3   OH247287   0.883   6.352  13.378 -0.0150  0.0791  0.3650
 8599TIP3    H147288   0.931   6.378  13.299  0.8853  0.7334  1.1068
 8599TIP3    H247289   0.823   6.425  13.395 -0.4709 -0.2234  0.0974
 8600TIP3   OH247290   5.306   1.770   1.400  0.0861  0.0043  0.4587
 8600TIP3    H147291   5.348   1.691   1.365 -1.4000 -0.5493 -0.2179
 8600TIP3    H247292   5.212   1.749   1.396 -0.2517  1.1310  1.9665
 8601TIP3   OH247293   4.356   2.495   1.629  0.7639  0.1714 -0.1875
 8601TIP3    H147294   4.413   2.551   1.577  0.3980  0.3675 -0.3821
 8601TIP3    H247295   4.405   2.413   1.640  1.1709  0.4172 -0.1633
 8602TIP3   OH247296   5.501   1.984  14.731  0.4468 -0.3281 -0.4947
 8602TIP3    H147297   5.436   1.930  14.776 -0.4623  1.7422  0.8458
 8602TIP3    H247298   5.551   2.026  14.802  0.2282  1.5810 -1.3900
 8603TIP3   OH247299   0.720   3.147   4.377 -0.1230  0.2146  0.2559
 8603TIP3    H147300   0.777   3.070   4.376 -1.2799 -0.6829 -1.8569
 8603TIP3    H247301   0.770   3.213   4.426  0.7385 -1.9404  2.4895
 8604TIP3   OH247302   4.276   2.406  13.048  0.0388 -0.0302  0.9024
 8604TIP3    H147303   4.200   2.351  13.028  0.2031 -0.0866  0.4016
 8604TIP3    H247304   4.295   2.390  13.140  0.7562 -1.6730  0.5095
 8605TIP3   OH247305   2.341   6.640  13.584 -0.3517 -0.0102 -0.2618
 8605TIP3    H147306   2.275   6.579  13.617  0.7527 -2.4511 -2.2579
 8605TIP3    H247307   2.303   6.676  13.504  0.2995 -0.7069 -0.9067
 8606TIP3   OH247308   1.201   2.820  11.569 -0.9898 -0.0126  0.8900
 8606TIP3    H147309   1.155   2.849  11.491 -0.5888 -0.4580  0.4851
 8606TIP3    H247310   1.169   2.732  11.585 -0.4932 -0.2156  0.7766
 8607TIP3   OH247311   3.821   1.571  16.455 -0.5675  0.1690 -0.1236
 8607TIP3    H147312   3.794   1.650  16.501  1.2097  1.1469 -0.6605
 8607TIP3    H247313   3.910   1.590  16.425  0.0748 -2.2058  0.0930
 8608TIP3   OH247314   4.758   6.735  12.803 -1.0244 -0.2040  0.3634
 8608TIP3    H147315   4.717   6.762  12.885 -0.2970  0.1045  0.6290
 8608TIP3    H247316   4.686   6.734  12.739 -1.1007  2.4066  0.3207
 8609TIP3   OH247317   3.530   5.949  16.679 -0.0101  0.5974 -0.4429
 8609TIP3    H147318   3.440   5.974  16.697  0.3849  1.3720  0.5992
 8609TIP3    H247319   3.531   5.925  16.587 -2.2941 -4.0237  0.4614
 8610TIP3   OH247320   4.452   1.954   5.452 -0.6319 -0.3867 -0.2826
 8610TIP3    H147321   4.409   1.873   5.422  0.5604 -0.5602 -1.6583
 8610TIP3    H247322   4.520   1.923   5.511  0.6638 -0.5491 -1.7934
 8611TIP3   OH247323   6.393   5.742  12.821 -0.2289 -0.6171 -0.5774
 8611TIP3    H147324   6.448   5.722  12.746 -0.6049 -2.9654 -0.2981
 8611TIP3    H247325   6.305   5.750  12.784 -0.4630 -2.0802 -0.4027
 8612TIP3   OH247326   1.040   2.646  13.892  0.1024  0.2449  0.2588
 8612TIP3    H147327   1.030   2.737  13.920 -0.6014  0.3232 -0.2182
 8612TIP3    H247328   0.951   2.614  13.881  0.3486 -0.3734  0.0021
 8613TIP3   OH247329   4.079   4.964  14.960 -0.2099  0.2984 -0.2385
 8613TIP3    H147330   4.068   4.885  15.013 -3.4849  0.4614 -0.4723
 8613TIP3    H247331   4.108   4.931  14.875 -0.3111 -0.5317  0.0341
 8614TIP3   OH247332   1.369   6.543   4.291 -0.2338 -0.3889  0.1320
 8614TIP3    H147333   1.365   6.615   4.228  1.5563 -1.2812 -1.1070
 8614TIP3    H247334   1.410   6.581   4.369  0.3753  0.0417 -0.3868
 8615TIP3   OH247335   1.276   4.259  15.842  0.3014  0.1777 -0.3577
 8615TIP3    H147336   1.220   4.311  15.900  1.3172  1.3817 -0.4118
 8615TIP3    H247337   1.287   4.175  15.887 -0.0832  0.5794  0.5041
 8616TIP3   OH247338   0.491   4.906   2.077 -0.1969 -0.0386 -0.3448
 8616TIP3    H147339   0.502   4.838   2.011  1.3522  0.1104 -0.2903
 8616TIP3    H247340   0.402   4.938   2.064 -0.7730 -1.7016 -0.7147
 8617TIP3   OH247341   4.223   5.429  12.074  0.0385 -0.6608  0.4809
 8617TIP3    H147342   4.259   5.396  12.156  2.0868  0.7889  0.2490
 8617TIP3    H247343   4.289   5.407  12.008  0.4110  1.7106 -0.0393
 8618TIP3   OH247344   0.524   4.186  15.402  0.3124  0.1686  0.2074
 8618TIP3    H147345   0.587   4.133  15.353 -0.3857 -0.6916  0.2193
 8618TIP3    H247346   0.490   4.128  15.469  0.3855  0.9913  0.9777
 8619TIP3   OH247347   2.889   6.221   0.428  0.5018  0.4158 -0.5145
 8619TIP3    H147348   2.845   6.161   0.488  1.3092 -0.3622 -0.6737
 8619TIP3    H247349   2.827   6.236   0.358 -0.5436  1.5000  0.5977
 8620TIP3   OH247350   6.580   5.794   5.684  0.2170  0.2242  0.6193
 8620TIP3    H147351   6.666   5.802   5.724  0.0432  1.1626  0.8202
 8620TIP3    H247352   6.593   5.821   5.593  0.8190 -2.8077 -0.3305
 8621TIP3   OH247353   4.942   5.612   4.621  0.3513  0.4506 -1.1447
 8621TIP3    H147354   4.920   5.683   4.561  0.5831  0.9373 -0.6685
 8621TIP3    H247355   5.035   5.595   4.605  1.1793  2.4550  0.9183
 8622TIP3   OH247356   5.082   4.452  13.921  0.3272  0.4096  0.2554
 8622TIP3    H147357   5.123   4.394  13.857  0.2868  0.6117  0.0457
 8622TIP3    H247358   5.148   4.520  13.938  0.2287  0.5156  0.2128
 8623TIP3   OH247359   4.640   3.530  16.470 -0.6416  0.8583 -0.0322
 8623TIP3    H147360   4.625   3.526  16.564 -2.9644 -0.2282 -0.3727
 8623TIP3    H247361   4.726   3.491  16.458  0.3550  2.3407  1.7175
 8624TIP3   OH247362   4.381   3.866  14.895  0.0278  0.0505  0.9344
 8624TIP3    H147363   4.414   3.948  14.860  0.8810 -0.4191  0.6027
 8624TIP3    H247364   4.459   3.821  14.928 -0.0067 -1.7122 -1.1230
 8625TIP3   OH247365   0.071   5.057   1.100  0.5605  0.3555  0.3367
 8625TIP3    H147366   0.145   5.118   1.095  0.5834  0.2992 -0.0363
 8625TIP3    H247367   0.111   4.971   1.107  0.5341  0.3106 -0.0329
 8626TIP3   OH247368   5.193   0.395   4.320 -0.2586  0.1963 -0.2483
 8626TIP3    H147369   5.255   0.328   4.292 -1.2752 -0.9697  0.1705
 8626TIP3    H247370   5.187   0.385   4.415 -0.2679  1.0300 -0.1499
 8627TIP3   OH247371   4.746   5.772  17.202  0.3445 -0.4566  0.2810
 8627TIP3    H147372   4.682   5.772  17.131  1.4333 -1.6403 -0.7456
 8627TIP3    H247373   4.820   5.721  17.168  1.4415  0.0571  1.7792
 8628TIP3   OH247374   3.376   6.568  14.751  0.0497  0.1335  0.5375
 8628TIP3    H147375   3.326   6.498  14.710  1.0974 -1.5811  2.0482
 8628TIP3    H247376   3.357   6.645  14.697 -1.5801 -1.1533 -0.8586
 8629TIP3   OH247377   4.908   1.057   0.809 -0.0933 -0.1368 -0.5588
 8629TIP3    H147378   4.928   1.123   0.742 -2.0496 -1.6295 -2.7618
 8629TIP3    H247379   4.865   1.107   0.879  2.2864  1.5177 -0.1642
 8630TIP3   OH247380   2.946   1.106   5.537  0.7022  0.2781  0.3942
 8630TIP3    H147381   2.959   1.071   5.449  2.1403 -1.0358  1.0838
 8630TIP3    H247382   2.959   1.200   5.528  1.5744  0.0653 -0.6682
 8631TIP3   OH247383   2.777   5.555   4.505  0.0859 -0.1512 -0.5640
 8631TIP3    H147384   2.722   5.479   4.525  0.4672 -0.4643 -0.6793
 8631TIP3    H247385   2.837   5.523   4.436  0.6426  0.0759 -0.1902
 8632TIP3   OH247386   6.756   0.209   0.960 -0.4525  0.3008  0.5471
 8632TIP3    H147387   6.705   0.238   0.885 -0.2699  2.6067  1.2552
 8632TIP3    H247388   6.701   0.143   1.002 -1.1342 -0.0526 -0.8444
 8633TIP3   OH247389   2.582   4.386   5.233 -0.2947 -0.5599  0.1137
 8633TIP3    H147390   2.610   4.399   5.324 -0.9625  0.7036  0.1703
 8633TIP3    H247391   2.534   4.303   5.234  0.5299 -1.0442  0.7038
 8634TIP3   OH247392   6.126   5.220  16.336 -0.5933  0.5160  0.0264
 8634TIP3    H147393   6.088   5.274  16.267  0.0187  0.8926 -0.0208
 8634TIP3    H247394   6.052   5.202  16.395 -0.8734  1.1302 -0.1284
 8635TIP3   OH247395   0.958   5.605  13.197 -0.5941  0.1036 -0.0417
 8635TIP3    H147396   0.982   5.640  13.111  0.0260  0.4650  0.2759
 8635TIP3    H247397   0.870   5.639  13.213 -0.4536  0.5707 -0.2433
 8636TIP3   OH247398   2.938   0.838   4.697 -0.1779 -0.0997 -0.3499
 8636TIP3    H147399   3.017   0.784   4.699 -0.8086 -1.0168  1.0129
 8636TIP3    H247400   2.970   0.927   4.680  1.2089 -0.3578  0.7695
 8637TIP3   OH247401   0.764   0.051   0.505  0.0568  0.1988 -0.4888
 8637TIP3    H147402   0.805   0.096   0.579 -1.5349  0.3376  0.3448
 8637TIP3    H247403   0.713   0.119   0.461  1.3966  0.2486 -2.0820
 8638TIP3   OH247404   4.306   5.518  12.903  0.2462 -0.2271 -0.1188
 8638TIP3    H147405   4.273   5.533  12.991 -1.3713 -1.3580 -0.4867
 8638TIP3    H247406   4.371   5.587  12.889  1.4969 -0.7888  2.3992
 8639TIP3   OH247407   1.331   5.759  11.532 -0.3673 -0.0367  0.4343
 8639TIP3    H147408   1.302   5.681  11.579 -0.7011  0.5628  1.2596
 8639TIP3    H247409   1.421   5.741  11.507 -1.0946 -1.5443 -1.2944
 8640TIP3   OH247410   1.667   2.202  11.546  0.0630 -0.0555  0.2817
 8640TIP3    H147411   1.674   2.291  11.581 -1.0395  0.3661 -0.5174
 8640TIP3    H247412   1.696   2.145  11.618  0.6891  0.9360  0.8327
 8641TIP3   OH247413   3.500   2.928   5.473  0.2079  0.3820 -0.1171
 8641TIP3    H147414   3.412   2.902   5.445  0.2316  0.2318 -0.0504
 8641TIP3    H247415   3.548   2.846   5.480  0.0396  0.3644  0.9508
 8642TIP3   OH247416   5.618   6.669  15.320  0.2756  0.2918  0.2069
 8642TIP3    H147417   5.552   6.686  15.387 -0.5334 -0.6319 -0.3429
 8642TIP3    H247418   5.661   6.588  15.349  0.9930  0.7262  0.4058
 8643TIP3   OH247419   0.151   2.449  10.668  0.5444 -0.2516  0.1837
 8643TIP3    H147420   0.094   2.385  10.710 -0.0652  0.2726  0.1716
 8643TIP3    H247421   0.092   2.517  10.636  1.0585 -0.2893 -0.9096
 8644TIP3   OH247422   1.365   4.003   3.543  0.0560  0.2137 -0.1065
 8644TIP3    H147423   1.297   3.973   3.603  0.6246 -1.1155 -0.0872
 8644TIP3    H247424   1.446   3.996   3.593  0.3457  0.6255 -0.5156
 8645TIP3   OH247425   6.043   2.076   4.209 -0.6681 -0.4461  0.5451
 8645TIP3    H147426   6.133   2.109   4.213 -0.7322 -0.2124  0.1147
 8645TIP3    H247427   5.988   2.155   4.211 -0.9082 -0.6210  1.8539
 8646TIP3   OH247428   2.008   2.281   6.348  0.5354  0.3460  0.5465
 8646TIP3    H147429   1.960   2.246   6.273  3.2679 -0.9143 -0.7918
 8646TIP3    H247430   2.091   2.232   6.347  1.5189  1.7963  3.1459
 8647TIP3   OH247431   5.351   2.201   3.840  0.4715  0.3934  0.1294
 8647TIP3    H147432   5.432   2.252   3.834 -0.5660  2.0217 -1.1090
 8647TIP3    H247433   5.372   2.129   3.899  2.1924  1.9906  1.6057
 8648TIP3   OH247434   4.169   2.506   2.820  0.0011 -0.5762  0.5106
 8648TIP3    H147435   4.078   2.522   2.844 -0.6651 -0.1555 -1.9345
 8648TIP3    H247436   4.165   2.437   2.754  1.0748  1.3052 -1.7112
 8649TIP3   OH247437   2.502   6.079   5.779  0.2011  0.7439  0.4168
 8649TIP3    H147438   2.505   6.114   5.690  0.2891  2.2784  1.0057
 8649TIP3    H247439   2.580   6.114   5.821  0.4342 -0.3873  0.9753
 8650TIP3   OH247440   6.072   4.313  14.379 -0.3931 -0.0804  0.7099
 8650TIP3    H147441   6.051   4.363  14.458 -0.1508 -1.9056  2.0062
 8650TIP3    H247442   6.164   4.333  14.362 -0.9299  1.7581 -0.2557
 8651TIP3   OH247443   2.965   2.097  13.868 -0.6395 -0.0029 -0.8520
 8651TIP3    H147444   3.036   2.080  13.929 -0.5160  1.4805 -0.5530
 8651TIP3    H247445   2.996   2.064  13.784  0.7040  1.2450 -0.8770
 8652TIP3   OH247446   2.302   2.785  11.269  0.7826 -0.6125 -0.4392
 8652TIP3    H147447   2.324   2.754  11.182 -1.2788 -0.2792 -1.1310
 8652TIP3    H247448   2.293   2.706  11.322  0.0397 -0.9383 -1.0481
 8653TIP3   OH247449   1.932   3.298  16.379 -0.2269  0.2677 -0.1529
 8653TIP3    H147450   1.939   3.393  16.377 -0.1266  0.2600 -0.2176
 8653TIP3    H247451   1.981   3.272  16.458  1.3658  0.1490 -1.1239
 8654TIP3   OH247452   5.970   4.672  16.805  0.2164 -0.4833  0.1907
 8654TIP3    H147453   5.976   4.590  16.853 -1.3859 -0.6373  0.1952
 8654TIP3    H247454   6.007   4.738  16.864  0.8461 -1.0950  0.4791
 8655TIP3   OH247455   0.149   3.131  11.579 -0.1858  0.1669 -0.2171
 8655TIP3    H147456   0.174   3.149  11.669  1.4126  2.1472 -0.9757
 8655TIP3    H247457   0.065   3.174  11.568 -1.6338 -2.1632  0.9254
 8656TIP3   OH247458   4.429   5.858   3.160 -0.4017  0.3268  0.6013
 8656TIP3    H147459   4.434   5.899   3.246  0.9861  1.1509  0.1568
 8656TIP3    H247460   4.431   5.764   3.178  1.0391  0.4859  1.4449
 8657TIP3   OH247461   1.976   3.061   1.474 -0.7638  0.3832  0.5106
 8657TIP3    H147462   2.061   3.097   1.450 -2.1275  1.6838 -3.0553
 8657TIP3    H247463   1.992   2.968   1.488  1.0607  0.2556 -1.7891
 8658TIP3   OH247464   2.823   1.030   1.247  0.0874 -0.2872 -0.3272
 8658TIP3    H147465   2.757   1.036   1.316  1.4346 -0.8022  1.0602
 8658TIP3    H247466   2.872   1.112   1.254 -0.7031  0.3456 -1.7257
 8659TIP3   OH247467   3.447   4.091  10.600 -0.0424 -0.2110 -0.0224
 8659TIP3    H147468   3.452   4.119  10.509  1.0348 -1.0085 -0.2216
 8659TIP3    H247469   3.382   4.150  10.639  2.3224  2.8665 -0.3090
 8660TIP3   OH247470   1.671   3.415   2.378 -0.2075 -0.1447 -0.2467
 8660TIP3    H147471   1.599   3.380   2.430  0.0144  3.1091  2.5561
 8660TIP3    H247472   1.640   3.500   2.348  1.9457  0.7433 -0.1280
 8661TIP3   OH247473   6.765   3.610  10.879 -0.3605  0.0050  0.2630
 8661TIP3    H147474   6.774   3.572  10.967  3.2826 -0.6617 -0.2480
 8661TIP3    H247475   6.703   3.552  10.834 -2.9399  0.8131  2.4985
 8662TIP3   OH247476   2.969   0.964  11.080 -0.7737  0.0366 -0.2683
 8662TIP3    H147477   2.918   0.980  11.001 -1.9377 -1.0750  0.2235
 8662TIP3    H247478   2.998   0.873  11.071  0.3712  0.3763 -0.1161
 8663TIP3   OH247479   1.027   0.439  13.454  0.3144  0.2349  0.0571
 8663TIP3    H147480   0.991   0.382  13.522 -0.5220 -2.1683 -2.2268
 8663TIP3    H247481   1.117   0.456  13.482 -0.4405  0.5899  2.4431
 8664TIP3   OH247482   3.873   2.916  11.815  0.0267  0.1106  0.4094
 8664TIP3    H147483   3.883   2.981  11.886  0.0736  0.6525 -0.0882
 8664TIP3    H247484   3.950   2.929  11.760 -1.0015  1.0888 -0.8581
 8665TIP3   OH247485   5.864   0.004   2.118 -0.0248  0.1723 -0.1996
 8665TIP3    H147486   5.890   0.060   2.191 -2.2029 -1.1564  1.7460
 8665TIP3    H247487   5.858  -0.084   2.156 -1.9787 -0.4419 -1.7434
 8666TIP3   OH247488   0.164   5.241  14.014 -0.3505  0.2704  0.3327
 8666TIP3    H147489   0.111   5.187  13.956  0.6101 -0.0839 -0.2407
 8666TIP3    H247490   0.197   5.311  13.957  0.7370 -0.1751  0.3965
 8667TIP3   OH247491   1.772   3.346   1.878 -0.4568  0.3412  0.5366
 8667TIP3    H147492   1.706   3.312   1.818  0.8150 -1.5323  0.0849
 8667TIP3    H247493   1.828   3.401   1.823  0.9781 -1.7394 -0.2044
 8668TIP3   OH247494   6.500   3.706  17.253  0.1981  0.1553 -0.4317
 8668TIP3    H147495   6.443   3.755  17.195  1.1051  0.4620 -1.0836
 8668TIP3    H247496   6.543   3.773  17.307 -1.7574 -0.1800  1.7299
 8669TIP3   OH247497   3.159   3.603   2.952  0.7288  0.2577  0.3952
 8669TIP3    H147498   3.191   3.556   2.875 -0.1473  0.3890 -0.0607
 8669TIP3    H247499   3.085   3.654   2.920  0.4187  0.3991  1.3052
 8670TIP3   OH247500   4.556   2.856  12.053 -0.0797  0.3258 -0.0310
 8670TIP3    H147501   4.591   2.941  12.027 -0.1207  0.8932  1.6815
 8670TIP3    H247502   4.626   2.815  12.103  0.0210 -0.7757 -1.0269
 8671TIP3   OH247503   4.114   2.150   1.647  0.1950  0.0926  0.0125
 8671TIP3    H147504   4.158   2.199   1.716 -1.3353  3.2019 -1.0134
 8671TIP3    H247505   4.054   2.092   1.694  2.4414 -1.3577  1.2923
 8672TIP3   OH247506   3.612   3.453  14.991 -1.1565  0.6481 -0.3158
 8672TIP3    H147507   3.517   3.443  14.980 -1.2917 -1.7566  1.8925
 8672TIP3    H247508   3.649   3.379  14.943 -0.1382  2.6057 -2.7700
 8673TIP3   OH247509   0.720   2.700  14.204 -0.1516  0.0510  0.4887
 8673TIP3    H147510   0.729   2.677  14.112  2.1438 -0.5094  0.7853
 8673TIP3    H247511   0.629   2.725  14.214 -0.6786 -0.7575 -1.7318
 8674TIP3   OH247512   0.693   1.848   3.731 -0.3940 -0.0304  0.2740
 8674TIP3    H147513   0.758   1.819   3.795  0.5313  1.4961  0.0700
 8674TIP3    H247514   0.736   1.839   3.646 -0.1811  1.6080  0.1834
 8675TIP3   OH247515   3.427   6.248  14.031  0.1359  0.6687  0.3581
 8675TIP3    H147516   3.351   6.205  13.992  1.1303  0.7805 -1.8557
 8675TIP3    H247517   3.390   6.314  14.089 -1.4300 -0.3266  0.5525
 8676TIP3   OH247518   1.443   5.038   3.452 -0.5571  0.0567 -0.2873
 8676TIP3    H147519   1.391   5.103   3.500 -0.3749 -0.9624  1.3830
 8676TIP3    H247520   1.534   5.068   3.462 -0.4872 -0.3512  0.3441
 8677TIP3   OH247521   6.140   6.448  10.952  0.1636 -0.3645  0.0032
 8677TIP3    H147522   6.184   6.369  10.984  0.5113  0.1194  0.7452
 8677TIP3    H247523   6.070   6.415  10.895  0.8901 -1.1707 -0.4402
 8678TIP3   OH247524   1.567   5.241   1.852  0.6997  0.2028  0.5200
 8678TIP3    H147525   1.487   5.283   1.823  0.4087 -0.3506  0.5107
 8678TIP3    H247526   1.538   5.173   1.912  1.0899 -0.6130 -0.1982
 8679TIP3   OH247527   1.165   1.791   3.429  0.0248 -0.2633 -0.2930
 8679TIP3    H147528   1.149   1.736   3.353  1.0873 -1.1396  0.0976
 8679TIP3    H247529   1.243   1.841   3.407 -0.2762  0.2637 -0.1877
 8680TIP3   OH247530   1.089   1.216  17.153  0.2302 -0.0113 -0.1047
 8680TIP3    H147531   1.039   1.256  17.082  0.7803  0.3259 -0.3142
 8680TIP3    H247532   1.114   1.289  17.209  0.5187 -0.1683 -0.0270
 8681TIP3   OH247533   6.340   2.036  15.320  0.1004 -0.5373  0.4336
 8681TIP3    H147534   6.376   1.974  15.382 -1.3165 -1.6061  0.2374
 8681TIP3    H247535   6.247   2.042  15.342  0.1566  1.4123  0.3451
 8682TIP3   OH247536   3.288   4.333   4.108  0.6615 -0.4485  0.3376
 8682TIP3    H147537   3.358   4.305   4.048 -0.5634 -0.4896 -1.1520
 8682TIP3    H247538   3.293   4.429   4.107  0.2174 -0.4184 -0.4249
 8683TIP3   OH247539   2.205   4.269  17.025 -0.2823  0.2445  0.3783
 8683TIP3    H147540   2.236   4.272  17.116  1.2104 -1.4348 -0.0293
 8683TIP3    H247541   2.254   4.339  16.981  0.2596 -0.0429  0.5151
 8684TIP3   OH247542   5.888   2.925   1.646  0.0432  0.4534  0.2084
 8684TIP3    H147543   5.832   2.953   1.718 -0.2026  1.5939 -0.4002
 8684TIP3    H247544   5.879   2.829   1.644 -1.0058  0.5252  0.8322
 8685TIP3   OH247545   1.681   6.157  12.871  0.1775  0.9976  0.1838
 8685TIP3    H147546   1.674   6.212  12.950  1.2753  2.3260 -0.6037
 8685TIP3    H247547   1.591   6.143  12.844 -0.1742  1.4790  1.0534
 8686TIP3   OH247548   4.012   5.482  14.212  0.4306  0.2305  0.0194
 8686TIP3    H147549   4.080   5.539  14.249  0.3382  1.0301 -0.9885
 8686TIP3    H247550   3.970   5.536  14.145 -0.2567 -0.7399 -0.3471
 8687TIP3   OH247551   2.716   4.979  11.901 -0.1976 -0.2109 -0.4211
 8687TIP3    H147552   2.804   4.959  11.869 -0.8921  0.2056 -2.8743
 8687TIP3    H247553   2.726   4.989  11.995  2.2405 -0.8377 -0.5346
 8688TIP3   OH247554   5.319   0.941   1.099  0.6084 -0.1243  0.3852
 8688TIP3    H147555   5.345   0.853   1.072 -0.7521  0.5145 -3.5923
 8688TIP3    H247556   5.375   1.000   1.048 -1.7984  1.2274 -0.8790
 8689TIP3   OH247557   5.688   6.122  12.339  0.5649 -0.6702  0.0950
 8689TIP3    H147558   5.683   6.216  12.357  0.7008 -0.8478  1.1856
 8689TIP3    H247559   5.727   6.116  12.252  0.1936  0.2860 -0.1550
 8690TIP3   OH247560   5.223   0.088   3.788 -0.1328 -0.0629  0.2046
 8690TIP3    H147561   5.318   0.098   3.786 -0.3314  2.9187 -1.9896
 8690TIP3    H247562   5.191   0.153   3.726 -3.7626  0.8504  2.6694
 8691TIP3   OH247563   2.297   6.506  11.452 -0.2028  0.5740  0.4933
 8691TIP3    H147564   2.387   6.475  11.462  0.7582  2.2890 -1.9209
 8691TIP3    H247565   2.260   6.448  11.385 -0.6212  0.3967  0.8790
 8692TIP3   OH247566   1.277   3.741   2.333  0.1645 -0.3913  0.6214
 8692TIP3    H147567   1.250   3.798   2.261  1.2649 -1.7793 -0.9643
 8692TIP3    H247568   1.202   3.742   2.393 -1.4951 -0.4458 -1.3219
 8693TIP3   OH247569   4.472   4.007  13.850 -0.2301 -0.1691 -0.1435
 8693TIP3    H147570   4.413   3.942  13.888 -0.4793  0.1261 -0.0270
 8693TIP3    H247571   4.432   4.031  13.767 -1.2322  1.3690  0.7479
 8694TIP3   OH247572   0.162   0.071   5.679 -0.2243  0.0801 -0.1785
 8694TIP3    H147573   0.190   0.006   5.743  1.0670 -1.7856 -2.4863
 8694TIP3    H247574   0.068   0.056   5.670 -0.3700  0.1819  1.0343
 8695TIP3   OH247575   3.926   6.520  16.172 -0.2748  0.1563 -0.4978
 8695TIP3    H147576   3.855   6.530  16.109 -1.6874 -1.0519  0.8065
 8695TIP3    H247577   3.885   6.539  16.257  1.5310  1.6308  0.1124
 8696TIP3   OH247578   1.156   6.240   0.922 -0.0623  0.2840 -0.2650
 8696TIP3    H147579   1.151   6.250   0.827  1.4274 -0.4241 -0.4493
 8696TIP3    H247580   1.180   6.327   0.955  2.0282 -0.0428 -0.8127
 8697TIP3   OH247581   4.440   1.255   4.779  0.5029  0.2407  0.5699
 8697TIP3    H147582   4.371   1.228   4.839 -0.7994 -0.7159 -1.2478
 8697TIP3    H247583   4.396   1.310   4.714  1.4453 -0.2986 -0.5690
 8698TIP3   OH247584   4.555   2.416   4.667  0.1368  0.5346 -0.1193
 8698TIP3    H147585   4.644   2.402   4.633 -0.0026  1.3737 -0.8651
 8698TIP3    H247586   4.539   2.509   4.653 -0.7446  0.4503  0.3077
 8699TIP3   OH247587   3.426   6.601   4.011 -0.2385 -0.5283 -0.0819
 8699TIP3    H147588   3.433   6.670   3.944 -1.5222 -0.9782 -0.7234
 8699TIP3    H247589   3.499   6.617   4.070 -0.3546  1.2384 -0.3583
 8700TIP3   OH247590   5.092   6.669   3.878  0.1481  0.5549  1.2061
 8700TIP3    H147591   5.182   6.646   3.901  0.6772 -0.2213 -1.2970
 8700TIP3    H247592   5.098   6.759   3.846  0.2344  0.1985  0.1848
 8701TIP3   OH247593   5.282   1.471   1.049  0.1903  0.3110  0.3678
 8701TIP3    H147594   5.234   1.478   1.132 -1.2627  2.4363 -0.5543
 8701TIP3    H247595   5.329   1.554   1.041 -0.2040  0.4207 -1.2065
 8702TIP3   OH247596   0.854   3.099  10.804  0.0733  0.3135  0.1655
 8702TIP3    H147597   0.890   3.100  10.716 -0.8916 -0.6356 -0.2565
 8702TIP3    H247598   0.912   3.042  10.854  0.0251  0.0113 -0.1231
 8703TIP3   OH247599   1.292   3.451   4.435 -0.1088 -0.0597  0.0492
 8703TIP3    H147600   1.309   3.402   4.516  1.7433 -0.1162 -0.3259
 8703TIP3    H247601   1.261   3.536   4.464 -0.3361 -0.3916  0.7980
 8704TIP3   OH247602   6.678   3.214   1.332  0.2521  0.4807 -0.5083
 8704TIP3    H147603   6.714   3.140   1.382  0.9404  1.4051  0.3983
 8704TIP3    H247604   6.633   3.173   1.258  0.2200 -0.8694  0.2280
 8705TIP3   OH247605   2.958   1.023   4.057 -0.2772 -0.1747 -0.1983
 8705TIP3    H147606   2.970   1.114   4.085 -2.1639  0.2435 -0.6089
 8705TIP3    H247607   2.935   0.977   4.138  0.5149 -0.2654 -0.0183
 8706TIP3   OH247608   3.848   5.216  16.690  0.3383 -0.5455  0.0246
 8706TIP3    H147609   3.802   5.135  16.670 -1.0446  0.5121 -1.2678
 8706TIP3    H247610   3.781   5.284  16.688  1.3806  0.6096  1.5026
 8707TIP3   OH247611   4.234   3.193  15.293 -0.2053 -0.2209  0.0387
 8707TIP3    H147612   4.172   3.233  15.232 -1.3196  0.7559  1.7271
 8707TIP3    H247613   4.315   3.241  15.281 -1.1531  1.7474  1.1093
 8708TIP3   OH247614   3.069   0.216  13.118  0.0152 -0.0104  0.1077
 8708TIP3    H147615   3.125   0.240  13.191  1.7368 -0.5502 -0.9832
 8708TIP3    H247616   3.061   0.297  13.066 -1.3828  0.4298  0.9720
 8709TIP3   OH247617   4.339   1.895  11.421 -0.0576 -0.0750 -0.4336
 8709TIP3    H147618   4.393   1.903  11.500  2.2110 -1.2524 -1.7556
 8709TIP3    H247619   4.315   1.985  11.400  0.3793  0.3838  0.8749
 8710TIP3   OH247620   4.797   0.460   1.037 -0.4674 -0.2474 -0.3213
 8710TIP3    H147621   4.749   0.478   0.956  0.8308  0.3821 -0.9684
 8710TIP3    H247622   4.816   0.366   1.033 -1.3793 -0.4530 -0.1836
 8711TIP3   OH247623   4.848   2.554  15.754 -0.3683  0.6533 -0.8352
 8711TIP3    H147624   4.771   2.550  15.697  1.5755 -0.1356 -3.5823
 8711TIP3    H247625   4.871   2.647  15.757 -1.5008  0.9297  0.2148
 8712TIP3   OH247626   0.228   5.960   4.285  0.2151  0.3706  0.6779
 8712TIP3    H147627   0.240   6.045   4.243 -0.8592  0.7109  1.0329
 8712TIP3    H247628   0.316   5.934   4.311  0.5578  1.3882  0.5889
 8713TIP3   OH247629   1.059   3.055   0.486 -0.3582  0.1820  0.6627
 8713TIP3    H147630   1.143   3.010   0.500 -1.0614 -1.3050  0.2663
 8713TIP3    H247631   1.084   3.145   0.463  1.0808  0.1419  1.8840
 8714TIP3   OH247632   5.192   6.071  15.117  0.1497 -0.2426  0.8273
 8714TIP3    H147633   5.129   6.088  15.047 -0.4829 -1.4880  1.0511
 8714TIP3    H247634   5.140   6.074  15.197  1.2220  3.2083  1.5370
 8715TIP3   OH247635   0.737   3.874   3.972  0.0339  0.7321 -0.4230
 8715TIP3    H147636   0.822   3.911   3.997  0.3366 -0.1022 -0.1584
 8715TIP3    H247637   0.687   3.871   4.054  0.4148 -0.4376 -0.2085
 8716TIP3   OH247638   3.388   3.021  15.384  0.1439  0.6282  0.0893
 8716TIP3    H147639   3.408   3.102  15.431  0.7832  0.5543 -0.0451
 8716TIP3    H247640   3.416   3.038  15.294  0.7638  0.0838  0.1728
 8717TIP3   OH247641   6.331   6.075  12.118  0.4904  0.0942  0.1143
 8717TIP3    H147642   6.237   6.058  12.106  0.7317 -1.2364  0.0370
 8717TIP3    H247643   6.334   6.162  12.158 -0.5869  2.0714 -3.6537
 8718TIP3   OH247644   4.144   1.517   0.326 -0.4639 -0.1763  0.2115
 8718TIP3    H147645   4.201   1.553   0.393  0.2034 -0.4535 -0.1996
 8718TIP3    H247646   4.079   1.586   0.311  0.0127  0.3191  0.3759
 8719TIP3   OH247647   5.990   5.619   1.582  0.2296 -1.0389 -0.1036
 8719TIP3    H147648   5.997   5.714   1.589 -1.7880 -0.3579 -4.0960
 8719TIP3    H247649   6.063   5.593   1.526  0.4253 -1.7770  0.4805
 8720TIP3   OH247650   6.813   4.504  12.756  0.3606 -0.1181 -0.0248
 8720TIP3    H147651   6.875   4.496  12.828 -2.0644  3.0201  2.7401
 8720TIP3    H247652   6.858   4.556  12.690  1.2886  0.6033  1.1363
 8721TIP3   OH247653   5.397   4.459   0.822 -0.0883 -0.3050  0.4786
 8721TIP3    H147654   5.421   4.550   0.805  0.9325 -0.3112  1.7479
 8721TIP3    H247655   5.318   4.445   0.769 -0.0761  1.2052  0.0039
 8722TIP3   OH247656   3.710   1.471   5.396 -0.2086 -0.3302 -0.3167
 8722TIP3    H147657   3.646   1.524   5.348 -0.2331 -1.2860 -1.4147
 8722TIP3    H247658   3.702   1.384   5.356  0.0650 -1.0686  1.1891
 8723TIP3   OH247659   3.568   4.583  15.810  0.1035  0.1108 -0.1376
 8723TIP3    H147660   3.618   4.555  15.887 -0.4782  1.8236  0.9054
 8723TIP3    H247661   3.518   4.505  15.785  0.7907 -0.6628  0.8217
 8724TIP3   OH247662   4.977   1.406   2.846  0.0533 -0.5190 -0.3473
 8724TIP3    H147663   4.913   1.476   2.838  0.1852 -0.5805 -2.3127
 8724TIP3    H247664   4.983   1.368   2.759  1.4760 -1.6651  0.2004
 8725TIP3   OH247665   4.545   3.268   1.275  0.2836  0.0277  0.7742
 8725TIP3    H147666   4.519   3.353   1.309  0.7115 -0.3080  1.9808
 8725TIP3    H247667   4.471   3.210   1.296  0.9134 -0.3724  1.9437
 8726TIP3   OH247668   0.687   0.547   3.209 -0.1565 -0.0424 -0.1662
 8726TIP3    H147669   0.748   0.528   3.281 -0.2650  0.3421  0.0295
 8726TIP3    H247670   0.734   0.610   3.154 -0.9496  1.4577  0.8074
 8727TIP3   OH247671   4.254   4.252   5.162  0.0066  0.2448 -0.1223
 8727TIP3    H147672   4.305   4.171   5.163 -0.7541 -0.2414 -0.1703
 8727TIP3    H247673   4.313   4.317   5.123  0.9096 -0.0773  0.6763
 8728TIP3   OH247674   3.087   0.195  16.469 -0.0240  0.6637 -0.4498
 8728TIP3    H147675   3.105   0.249  16.547 -0.5754 -0.6470  0.6303
 8728TIP3    H247676   3.008   0.233  16.432 -1.7350 -0.6909  1.6035
 8729TIP3   OH247677   5.342   0.515  13.904 -0.3028  0.1114  0.2233
 8729TIP3    H147678   5.306   0.562  13.829  1.5676 -1.8592 -2.0403
 8729TIP3    H247679   5.312   0.425  13.892 -1.2849  0.0026  2.7964
 8730TIP3   OH247680   4.038   6.513  11.335  0.0024  0.3646 -0.3151
 8730TIP3    H147681   4.059   6.420  11.329  0.6271  0.4475  0.5125
 8730TIP3    H247682   3.943   6.517  11.319 -0.1457 -0.4818  0.2881
 8731TIP3   OH247683   2.989   6.593  12.065  0.5080  0.5296  0.1985
 8731TIP3    H147684   3.039   6.674  12.075  0.8408  0.5792 -1.5185
 8731TIP3    H247685   2.997   6.572  11.972 -0.7502 -0.7238  0.3503
 8732TIP3   OH247686   4.923   1.898   0.579 -0.1506 -0.3476  1.0838
 8732TIP3    H147687   4.914   1.811   0.619  1.0334 -1.1856 -0.3636
 8732TIP3    H247688   5.012   1.899   0.545 -0.6362  0.8810 -0.2208
 8733TIP3   OH247689   5.969   0.153   1.220  0.2782 -0.3072 -0.0927
 8733TIP3    H147690   5.880   0.119   1.206  0.0409 -0.2437  1.1868
 8733TIP3    H247691   5.985   0.209   1.144 -0.1647 -1.5448 -1.1273
 8734TIP3   OH247692   5.444   3.820  13.591 -0.3914 -0.5453  0.0584
 8734TIP3    H147693   5.447   3.889  13.525 -1.8845 -0.9660 -0.4877
 8734TIP3    H247694   5.525   3.770  13.578  0.2618  0.5514 -0.1372
 8735TIP3   OH247695   2.638   3.817   4.970 -0.6693 -0.2567  0.3027
 8735TIP3    H147696   2.593   3.733   4.980 -1.4952  0.4272  3.2598
 8735TIP3    H247697   2.727   3.794   4.943 -0.1162 -2.3488  3.3729
 8736TIP3   OH247698   3.058   0.032  11.795  0.0247 -0.2136  0.0665
 8736TIP3    H147699   3.047  -0.063  11.783 -2.0920 -0.1540  1.0374
 8736TIP3    H247700   3.051   0.045  11.890 -0.8218  1.0100 -0.1423
 8737TIP3   OH247701   5.754   6.777  11.853 -0.6552  0.1196 -0.2383
 8737TIP3    H147702   5.737   6.735  11.938 -0.2174  0.8541  0.2237
 8737TIP3    H247703   5.686   6.742  11.795 -0.6247 -0.8151  0.2676
 8738TIP3   OH247704   5.562   3.926  16.639 -0.2592 -0.3404  0.2438
 8738TIP3    H147705   5.503   3.921  16.564 -0.9899  2.6662  0.5201
 8738TIP3    H247706   5.551   3.842  16.684 -1.2373 -1.4398 -1.9218
 8739TIP3   OH247707   2.318   1.735  11.774  1.0035 -0.0075  0.4307
 8739TIP3    H147708   2.345   1.650  11.739  1.5441 -0.1402  1.1397
 8739TIP3    H247709   2.390   1.761  11.832  0.1807  0.2389  1.3649
 8740TIP3   OH247710   6.292   2.456   1.171  0.2140  0.1329 -0.2736
 8740TIP3    H147711   6.368   2.398   1.164 -1.5149 -2.2830 -0.2377
 8740TIP3    H247712   6.280   2.470   1.265  0.7049  0.7019 -0.2874
 8741TIP3   OH247713   3.756   1.096  16.380  0.1364  0.5311 -0.3690
 8741TIP3    H147714   3.782   1.009  16.409 -0.5658  0.1829 -0.7535
 8741TIP3    H247715   3.732   1.084  16.288  1.9511  1.5290 -1.0200
 8742TIP3   OH247716   4.013   3.549   3.499  0.4908 -0.0320 -0.3520
 8742TIP3    H147717   4.101   3.525   3.470  0.6917  3.8088 -3.9359
 8742TIP3    H247718   4.026   3.630   3.550 -0.8830 -0.5726  0.9469
 8743TIP3   OH247719   0.718   3.399   4.654  0.3527 -0.0270  0.0496
 8743TIP3    H147720   0.799   3.381   4.701  0.2666  1.2876  0.7507
 8743TIP3    H247721   0.744   3.407   4.563  0.9833  0.1870  0.2414
 8744TIP3   OH247722   4.251   0.810   3.324  0.2735  0.0702 -0.4342
 8744TIP3    H147723   4.323   0.777   3.377  0.6840 -0.7371 -1.4569
 8744TIP3    H247724   4.183   0.834   3.388  0.0163 -2.5946  0.4112
 8745TIP3   OH247725   1.640   0.520  12.461  0.3558  0.1236 -0.0807
 8745TIP3    H147726   1.599   0.476  12.387 -0.2557  0.5377 -0.0009
 8745TIP3    H247727   1.575   0.585  12.489  1.9791  2.4604 -1.4265
 8746TIP3   OH247728   2.794   5.162  13.229 -0.2774 -0.1984  0.3424
 8746TIP3    H147729   2.734   5.223  13.272  1.2098  0.5658  1.4097
 8746TIP3    H247730   2.752   5.141  13.146 -2.2159 -0.0209  1.2259
 8747TIP3   OH247731   6.698   1.782   2.181  0.0907 -0.2428 -0.2326
 8747TIP3    H147732   6.687   1.742   2.095 -1.2276 -1.4393  0.4325
 8747TIP3    H247733   6.631   1.739   2.235  1.4112 -0.1244  1.5899
 8748TIP3   OH247734   5.081   1.898   5.435  0.2751  0.1889  0.4955
 8748TIP3    H147735   5.086   1.868   5.345  2.2958 -0.7974  0.8721
 8748TIP3    H247736   5.124   1.984   5.435 -0.7827  0.7281  0.3314
 8749TIP3   OH247737   3.764   1.898  13.030  0.2206 -0.1944  0.4898
 8749TIP3    H147738   3.707   1.822  13.045 -0.1428  0.2392  1.3497
 8749TIP3    H247739   3.839   1.862  12.982 -0.7461 -0.7809 -0.6443
 8750TIP3   OH247740   6.649   5.068  11.238  0.0001 -0.3730 -0.1988
 8750TIP3    H147741   6.581   5.001  11.230 -2.3448  1.7615  0.2122
 8750TIP3    H247742   6.647   5.113  11.154 -0.4913  0.8754  0.4476
 8751TIP3   OH247743   4.922   6.075   4.108  0.8637 -0.4397 -0.3243
 8751TIP3    H147744   4.929   5.999   4.165  1.2193  0.8802  1.4877
 8751TIP3    H247745   4.830   6.077   4.082  0.8248 -1.3962 -0.3044
 8752TIP3   OH247746   5.180   6.820  15.289 -0.1346  0.1364 -0.8393
 8752TIP3    H147747   5.259   6.778  15.322 -0.5566 -0.9432 -1.1629
 8752TIP3    H247748   5.202   6.914  15.287  0.8163 -0.0530 -0.0927
 8753TIP3   OH247749   1.504   1.643  16.060  0.3392  0.0941 -0.1819
 8753TIP3    H147750   1.503   1.615  16.151 -1.2096  2.2304  0.5387
 8753TIP3    H247751   1.511   1.738  16.064  1.1553  0.1905 -2.3485
 8754TIP3   OH247752   6.075   6.076  14.244 -0.1900 -0.6871 -0.1085
 8754TIP3    H147753   5.997   6.105  14.198 -0.8512  0.9241  1.9035
 8754TIP3    H247754   6.093   6.144  14.308  2.7805 -1.1006 -0.3396
 8755TIP3   OH247755   0.097   1.842   3.221 -0.2072 -0.1742  0.3726
 8755TIP3    H147756   0.035   1.892   3.168 -0.7251 -0.7148  0.4631
 8755TIP3    H247757   0.164   1.814   3.159  0.9816  1.9646  0.5798
 8756TIP3   OH247758   4.657   6.048   1.061 -0.1893  0.4841 -0.2376
 8756TIP3    H147759   4.652   6.141   1.040 -0.5149  0.5403  0.0714
 8756TIP3    H247760   4.565   6.020   1.070 -0.0926  0.1455 -0.2931
 8757TIP3   OH247761   6.475   1.902   1.437  0.4833  0.1414 -0.3033
 8757TIP3    H147762   6.546   1.874   1.496  0.4873  0.1100 -0.3227
 8757TIP3    H247763   6.501   1.989   1.407  0.3625  0.2604 -0.0660
 8758TIP3   OH247764   3.107   5.106  16.507 -0.3657 -0.6584  0.0522
 8758TIP3    H147765   3.131   5.014  16.496  1.2256 -0.2140 -0.5016
 8758TIP3    H247766   3.190   5.154  16.501 -1.0602  0.7716  1.0215
 8759TIP3   OH247767   1.719   4.388   4.188  0.7405  0.0003  0.1369
 8759TIP3    H147768   1.709   4.463   4.129 -1.5919 -0.4971 -0.1903
 8759TIP3    H247769   1.689   4.421   4.273  0.2717 -0.3784  0.1243
 8760TIP3   OH247770   1.821   4.403  16.142  0.2991  0.4586 -0.0352
 8760TIP3    H147771   1.894   4.356  16.182 -0.4020 -1.0576 -0.4606
 8760TIP3    H247772   1.764   4.426  16.215  0.8664  1.0365  0.2250
 8761TIP3   OH247773   4.345   2.215  10.568 -0.1631 -0.1811 -0.3986
 8761TIP3    H147774   4.367   2.124  10.551  0.4810 -0.0848 -0.1031
 8761TIP3    H247775   4.250   2.215  10.576 -0.0539 -1.1579  1.4549
 8762TIP3   OH247776   5.823   1.342  13.787 -0.1259  0.2096 -0.3553
 8762TIP3    H147777   5.729   1.329  13.777 -0.1811 -0.1927  0.6881
 8762TIP3    H247778   5.834   1.437  13.782 -0.7077  0.3300  0.5195
 8763TIP3   OH247779   4.815   5.786  14.117 -0.5910  0.0108  0.0239
 8763TIP3    H147780   4.851   5.858  14.065  0.0317 -0.3187 -0.0033
 8763TIP3    H247781   4.891   5.736  14.146 -1.0463 -0.9338 -0.3779
 8764TIP3   OH247782   0.893   6.780  10.740 -0.5475 -0.1277 -0.4974
 8764TIP3    H147783   0.858   6.817  10.659 -0.8280  2.3524  0.6847
 8764TIP3    H247784   0.871   6.687  10.735 -3.7370  0.5651 -1.6649
 8765TIP3   OH247785   6.507   5.560  13.242  0.2678  0.3638  0.2831
 8765TIP3    H147786   6.601   5.558  13.222  0.4017 -0.5816  0.9581
 8765TIP3    H247787   6.502   5.603  13.327  0.1344  0.0207  0.4513
 8766TIP3   OH247788   2.613   2.805  15.731  0.1922 -0.2443  0.4205
 8766TIP3    H147789   2.527   2.767  15.750 -0.3941  1.2298  0.8317
 8766TIP3    H247790   2.674   2.756  15.787 -0.8478  0.8266  2.6199
 8767TIP3   OH247791   6.726   3.216  11.523 -0.2617  0.2077  0.2379
 8767TIP3    H147792   6.691   3.222  11.612 -0.6813  0.2172  0.0762
 8767TIP3    H247793   6.721   3.305  11.489 -0.9086  0.0544 -0.0904
 8768TIP3   OH247794   1.459   2.226   3.530  0.4489  0.4901 -0.1698
 8768TIP3    H147795   1.426   2.298   3.584 -0.1674  0.5440 -0.6057
 8768TIP3    H247796   1.380   2.185   3.494  0.8302  0.1048 -0.5776
 8769TIP3   OH247797   3.223   3.478   5.439 -0.3946  0.2643 -0.2079
 8769TIP3    H147798   3.151   3.518   5.389  1.3348  1.0915 -2.1949
 8769TIP3    H247799   3.285   3.449   5.372  1.4840  0.2515  1.4640
 8770TIP3   OH247800   4.795   3.206   5.874 -0.7143 -0.4853  0.7214
 8770TIP3    H147801   4.721   3.231   5.819 -1.6434 -1.2978  1.5642
 8770TIP3    H247802   4.868   3.196   5.813 -1.6832 -1.2390 -0.3624
 8771TIP3   OH247803   0.192   6.753  14.691  0.1935  0.6511  0.0922
 8771TIP3    H147804   0.240   6.686  14.739  0.0669  0.9115  0.5827
 8771TIP3    H247805   0.173   6.821  14.756  3.0862  2.6990 -0.9914
 8772TIP3   OH247806   5.337   3.075   0.885 -0.9060 -0.0959 -0.3721
 8772TIP3    H147807   5.304   3.164   0.899 -1.0110 -0.2074  0.0919
 8772TIP3    H247808   5.347   3.039   0.973  1.8361  0.4114 -0.3916
 8773TIP3   OH247809   2.289   2.567  11.424  0.2675  0.1195 -0.5152
 8773TIP3    H147810   2.198   2.563  11.454  0.0852  2.0801 -0.6252
 8773TIP3    H247811   2.339   2.518  11.489 -1.0115 -2.3328 -1.2793
 8774TIP3   OH247812   4.131   4.983   1.744  0.1434 -0.3150 -0.2440
 8774TIP3    H147813   4.179   5.045   1.798  0.5081 -1.4796  0.8156
 8774TIP3    H247814   4.108   5.032   1.665  1.8333  0.6822 -0.1585
 8775TIP3   OH247815   1.542   4.973  12.229 -0.3614 -0.3617  0.3569
 8775TIP3    H147816   1.568   4.969  12.321  0.9704  0.3511  0.0462
 8775TIP3    H247817   1.573   5.058  12.199 -0.6936 -0.6203 -0.7772
 8776TIP3   OH247818   6.326   3.039   0.894  0.1059 -0.2425  0.1565
 8776TIP3    H147819   6.356   2.964   0.843 -0.9683 -0.8761  0.4488
 8776TIP3    H247820   6.280   3.094   0.830 -1.4286 -1.1410  0.4561
 8777TIP3   OH247821   2.942   6.779   0.124  1.0693  0.1046  0.0786
 8777TIP3    H147822   3.011   6.845   0.121  0.3444  0.8898  0.1527
 8777TIP3    H247823   2.983   6.699   0.092  3.4179 -0.7928  4.6096
 8778TIP3   OH247824   3.407   0.786   4.043 -0.2524  0.8174 -0.2125
 8778TIP3    H147825   3.375   0.867   4.005 -0.3940  0.9120  0.1033
 8778TIP3    H247826   3.475   0.814   4.105  1.4017  0.5560 -1.7959
 8779TIP3   OH247827   5.073   6.634  11.993  0.4346 -0.2783 -0.4711
 8779TIP3    H147828   5.126   6.669  11.921  0.8032 -1.1592 -0.6309
 8779TIP3    H247829   5.128   6.643  12.070  0.5478 -0.5515 -0.5202
 8780TIP3   OH247830   6.784   0.269  10.611  0.2522  0.1611 -0.2057
 8780TIP3    H147831   6.732   0.270  10.691 -1.7748 -1.2109 -1.3973
 8780TIP3    H247832   6.780   0.359  10.579 -0.0958  0.4187  0.5361
 8781TIP3   OH247833   6.540   0.904   5.044 -0.0057 -0.4277  0.2252
 8781TIP3    H147834   6.556   0.835   4.980 -0.0721 -0.7471  0.5538
 8781TIP3    H247835   6.446   0.921   5.037 -0.1597 -1.0266  0.8086
 8782TIP3   OH247836   1.161   5.847  11.808 -0.1131  0.6296  0.3093
 8782TIP3    H147837   1.179   5.909  11.737  0.3384 -0.9825 -1.0350
 8782TIP3    H247838   1.187   5.762  11.774 -1.6819 -0.4976  1.7218
 8783TIP3   OH247839   4.333   6.780   0.415  0.1934 -0.3380  0.3788
 8783TIP3    H147840   4.242   6.802   0.434  0.2631  0.1567  0.1363
 8783TIP3    H247841   4.354   6.831   0.337  0.3975 -1.1524 -0.1086
 8784TIP3   OH247842   6.130   5.974   0.863 -0.0167 -0.4536 -0.0494
 8784TIP3    H147843   6.073   5.943   0.933  0.3730 -0.4051  0.2938
 8784TIP3    H247844   6.139   6.068   0.880  1.7001 -0.7808  1.0312
 8785TIP3   OH247845   6.783   1.652  12.647  0.3231  0.2300  0.1222
 8785TIP3    H147846   6.756   1.688  12.562 -1.4553 -2.1733 -0.4590
 8785TIP3    H247847   6.868   1.611  12.630  1.5515  2.4710  0.3934
 8786TIP3   OH247848   1.111   0.576  11.428 -0.4780 -0.1792  0.0859
 8786TIP3    H147849   1.180   0.545  11.486 -0.7593  2.3741  1.9351
 8786TIP3    H247850   1.043   0.609  11.486 -1.9389  0.1582 -1.6980
 8787TIP3   OH247851   6.276   6.088  12.790 -0.2718 -0.4999  0.3571
 8787TIP3    H147852   6.304   6.177  12.808 -2.6211 -0.0666  2.5122
 8787TIP3    H247853   6.253   6.087  12.697  2.0483  0.3777 -0.2944
 8788TIP3   OH247854   5.915   5.195   4.066  0.1793 -0.1286 -0.3864
 8788TIP3    H147855   5.885   5.286   4.065  1.1735  0.2228 -0.1030
 8788TIP3    H247856   5.968   5.187   3.986 -0.1090 -0.5366 -0.5386
 8789TIP3   OH247857   0.329   4.812   4.656 -0.0136  0.0491 -0.2033
 8789TIP3    H147858   0.358   4.789   4.567  0.7438  0.1750  0.0095
 8789TIP3    H247859   0.335   4.730   4.705  1.7919  0.4528  0.3151
 8790TIP3   OH247860   2.792   3.197  11.262  0.2528 -0.0293  0.1109
 8790TIP3    H147861   2.738   3.136  11.212  0.7760 -0.2842 -0.1637
 8790TIP3    H247862   2.796   3.276  11.209  0.0846  0.0164  0.1678
 8791TIP3   OH247863   5.208   6.108  17.099 -0.1125 -0.1484 -0.4625
 8791TIP3    H147864   5.266   6.183  17.110  1.6283 -1.3954 -0.6851
 8791TIP3    H247865   5.183   6.084  17.188 -0.4206  0.5037 -0.3718
 8792TIP3   OH247866   3.213   1.087  10.894 -0.1490  0.3322 -0.0140
 8792TIP3    H147867   3.252   1.157  10.840 -1.5450  0.7008 -0.5751
 8792TIP3    H247868   3.190   1.130  10.976  0.0449  0.2604  0.0784
 8793TIP3   OH247869   1.124   1.560  15.553  0.2676 -0.2227  0.4474
 8793TIP3    H147870   1.164   1.643  15.526  1.7504 -0.8180  0.7092
 8793TIP3    H247871   1.085   1.579  15.638  0.6744  0.1951  0.5462
 8794TIP3   OH247872   2.246   3.796  14.406  0.9657  0.3002 -0.0851
 8794TIP3    H147873   2.340   3.801  14.418  0.7824  0.6354  1.3307
 8794TIP3    H247874   2.210   3.862  14.465 -0.1889 -0.2162 -0.1683
 8795TIP3   OH247875   4.647   1.685  15.576  0.3062  0.0216  0.8717
 8795TIP3    H147876   4.681   1.775  15.584 -1.1805  0.8359 -1.1469
 8795TIP3    H247877   4.725   1.631  15.570  1.2936  1.5089 -0.6889
 8796TIP3   OH247878   3.133   3.907  10.720 -0.6986 -0.6770  0.0662
 8796TIP3    H147879   3.142   3.980  10.782 -1.7851 -1.0274  0.6502
 8796TIP3    H247880   3.050   3.924  10.675  1.0830  0.8376 -3.0206
 8797TIP3   OH247881   3.077   0.509  16.866  0.3259  0.5463 -0.3779
 8797TIP3    H147882   3.013   0.469  16.925  1.9635 -0.5978  0.7352
 8797TIP3    H247883   3.070   0.458  16.785  1.1443 -0.9071  0.4200
 8798TIP3   OH247884   3.703   3.066  15.451  0.5780  0.2551  0.3942
 8798TIP3    H147885   3.732   3.083  15.541  3.5039  1.9764 -0.7436
 8798TIP3    H247886   3.699   3.153  15.411 -0.4229 -0.5083 -1.2445
 8799TIP3   OH247887   5.544   1.173  15.845  0.3384 -0.2315  0.1843
 8799TIP3    H147888   5.632   1.198  15.872  0.5431  0.1219 -0.7678
 8799TIP3    H247889   5.558   1.104  15.780 -0.1328 -0.9975  0.8918
 8800TIP3   OH247890   2.468   3.127  15.128 -0.3195  0.2406 -0.2007
 8800TIP3    H147891   2.449   3.184  15.053  1.8526 -0.0050 -1.0020
 8800TIP3    H247892   2.513   3.184  15.190 -1.1179  0.1633  0.4676
 8801TIP3   OH247893   5.911   1.293   6.179  0.5465 -0.9086 -0.6688
 8801TIP3    H147894   5.940   1.235   6.108  0.4921  0.3455 -1.7715
 8801TIP3    H247895   5.815   1.289   6.175  0.5406 -1.4413 -0.1292
 8802TIP3   OH247896   1.487   6.288   0.936 -0.1853  0.3892  0.4600
 8802TIP3    H147897   1.458   6.200   0.913  0.2004  0.2175  0.6074
 8802TIP3    H247898   1.465   6.342   0.860  1.4635 -0.2547 -0.5205
 8803TIP3   OH247899   4.965   1.790  10.525 -0.2116  0.1763 -0.4704
 8803TIP3    H147900   4.925   1.704  10.515  0.7096 -0.1348 -1.7768
 8803TIP3    H247901   5.059   1.773  10.518  0.2405  0.8557  2.7123
 8804TIP3   OH247902   3.677   5.651  14.756  0.0624  0.0594  0.4706
 8804TIP3    H147903   3.725   5.628  14.677 -0.3902  1.1540 -0.1434
 8804TIP3    H247904   3.711   5.737  14.781  1.2054 -0.8492  2.2974
 8805TIP3   OH247905   3.819   0.045  11.644 -0.5281  0.2214  0.0911
 8805TIP3    H147906   3.825   0.019  11.552 -0.7135  1.2709 -0.2291
 8805TIP3    H247907   3.726   0.060  11.658 -0.3947  0.9815  0.1815
 8806TIP3   OH247908   4.064   0.502   4.418  0.0029  0.1789 -0.4709
 8806TIP3    H147909   4.029   0.502   4.507  2.3330  0.7907  0.5247
 8806TIP3    H247910   4.094   0.592   4.404  0.4484 -0.1233 -1.5436
 8807TIP3   OH247911   1.424   0.618  16.598  0.7974 -0.5909  0.3942
 8807TIP3    H147912   1.345   0.594  16.647 -0.3171 -0.1908 -1.1035
 8807TIP3    H247913   1.405   0.590  16.509  1.3898  1.5422 -0.4681
 8808TIP3   OH247914   4.985   2.270  12.844 -0.3481  0.3747 -0.6292
 8808TIP3    H147915   4.894   2.292  12.823  0.5290  3.1743 -1.9241
 8808TIP3    H247916   5.003   2.316  12.926 -0.6099 -1.8734  0.7910
 8809TIP3   OH247917   6.813   6.289   2.266 -0.1163 -0.2433  0.8564
 8809TIP3    H147918   6.822   6.319   2.176  2.1030 -1.0211  0.7635
 8809TIP3    H247919   6.731   6.239   2.267  0.5092 -1.4214 -1.0952
 8810TIP3   OH247920   3.677   4.688   5.624 -0.1071  0.2117  0.1811
 8810TIP3    H147921   3.726   4.633   5.685 -0.6820  0.2281  0.6765
 8810TIP3    H247922   3.674   4.774   5.667  1.9626  1.0592 -1.1979
 8811TIP3   OH247923   6.415   0.210   1.936  0.3134 -0.6532 -0.0536
 8811TIP3    H147924   6.381   0.290   1.895  1.3481  0.5322  1.2818
 8811TIP3    H247925   6.340   0.172   1.981  0.0253  0.1692  0.1823
 8812TIP3   OH247926   2.173   0.877  17.164 -0.2896 -0.3482  0.2916
 8812TIP3    H147927   2.081   0.882  17.189 -0.6575  1.4894 -1.1739
 8812TIP3    H247928   2.219   0.934  17.226 -0.7976  1.9616 -1.3075
 8813TIP3   OH247929   2.674   6.592   6.488 -0.0228  0.1332  0.2096
 8813TIP3    H147930   2.618   6.655   6.441 -0.5380 -0.3495  0.1693
 8813TIP3    H247931   2.612   6.536   6.535  0.2960 -1.7638 -1.5044
 8814TIP3   OH247932   3.176   5.166   2.469  0.0859  0.7103 -0.1824
 8814TIP3    H147933   3.127   5.127   2.541  1.4142 -1.1119 -0.1967
 8814TIP3    H247934   3.148   5.258   2.467 -1.4323  0.3168  1.3614
 8815TIP3   OH247935   1.534   1.328  15.450  0.1474 -0.3165  0.3371
 8815TIP3    H147936   1.517   1.347  15.542  0.5957 -1.1107  0.5890
 8815TIP3    H247937   1.623   1.293  15.449  0.1349 -0.3373 -0.3960
 8816TIP3   OH247938   0.325   6.218  17.310  0.0996 -0.4718  0.8563
 8816TIP3    H147939   0.236   6.246  17.329  0.5086  0.6888  1.1547
 8816TIP3    H247940   0.319   6.174  17.226 -0.6572  0.1814  0.5542
 8817TIP3   OH247941   3.227   1.584  13.048 -0.3551 -0.1780 -0.0257
 8817TIP3    H147942   3.194   1.552  12.964 -0.4369  0.3345 -0.1880
 8817TIP3    H247943   3.172   1.659  13.069 -1.9030 -1.6465  1.6220
 8818TIP3   OH247944   5.435   4.058   0.437  0.2300  0.3611 -0.1566
 8818TIP3    H147945   5.343   4.081   0.456  0.5516  1.8014 -0.2641
 8818TIP3    H247946   5.442   4.065   0.342  0.1256 -1.0864 -0.2883
 8819TIP3   OH247947   4.446   6.139  15.101 -0.4175  0.5744  0.1558
 8819TIP3    H147948   4.420   6.231  15.094 -1.7178  0.2787  0.7545
 8819TIP3    H247949   4.403   6.108  15.181 -1.2373 -0.9323 -0.8144
 8820TIP3   OH247950   0.722   4.566   2.268  0.0856 -0.4483  0.3741
 8820TIP3    H147951   0.633   4.587   2.297 -1.0402 -2.4324 -1.4397
 8820TIP3    H247952   0.735   4.475   2.293  1.3707 -0.3853  0.0149
 8821TIP3   OH247953   2.590   2.146  15.725  0.3738 -0.4123  0.4238
 8821TIP3    H147954   2.528   2.119  15.794 -0.9345 -0.9969 -0.9240
 8821TIP3    H247955   2.549   2.118  15.644  1.8223  0.3833 -0.6282
 8822TIP3   OH247956   0.234   6.613  17.270 -0.8921 -0.2567  0.1725
 8822TIP3    H147957   0.246   6.706  17.251  0.4906  0.0462  2.1619
 8822TIP3    H247958   0.161   6.586  17.214 -0.3706  1.6481 -1.5309
 8823TIP3   OH247959   1.374   2.959   1.645 -0.1387  0.1858  0.3033
 8823TIP3    H147960   1.302   2.939   1.705  0.0873  2.2763  1.3742
 8823TIP3    H247961   1.335   3.018   1.580  0.1256 -0.3858 -0.3891
 8824TIP3   OH247962   6.244   5.243  12.653  0.3623  0.0002  0.3721
 8824TIP3    H147963   6.246   5.338  12.650 -1.3027  0.0523 -0.2402
 8824TIP3    H247964   6.281   5.216  12.569 -0.3668  0.1598 -0.0100
 8825TIP3   OH247965   2.401   3.240   3.001 -0.2523 -0.0374  0.0150
 8825TIP3    H147966   2.387   3.321   3.050 -1.2518  0.8442 -1.6425
 8825TIP3    H247967   2.335   3.242   2.932  0.7238 -1.5094 -1.0162
 8826TIP3   OH247968   3.862   1.317  14.417 -0.2669  0.4311 -0.3705
 8826TIP3    H147969   3.839   1.389  14.476  1.7022  1.4421 -0.7409
 8826TIP3    H247970   3.788   1.309  14.358 -0.5176  2.1958 -0.3374
 8827TIP3   OH247971   5.360   3.027  17.000 -0.1444 -0.0017  0.4573
 8827TIP3    H147972   5.411   3.099  17.039  1.9654 -0.7939 -0.6726
 8827TIP3    H247973   5.350   2.964  17.070  1.0144 -0.0971  0.5596
 8828TIP3   OH247974   2.037   2.502   3.574  0.5510 -0.5109  0.2194
 8828TIP3    H147975   2.008   2.592   3.561  1.0722 -0.5703 -1.8384
 8828TIP3    H247976   2.037   2.489   3.668  3.6376  2.7247  0.8646
 8829TIP3   OH247977   3.312   2.689  16.717  0.2008  0.4316 -0.5903
 8829TIP3    H147978   3.389   2.737  16.686  0.1001  0.4396 -0.8323
 8829TIP3    H247979   3.283   2.639  16.641  0.5317 -0.3216 -0.2330
 8830TIP3   OH247980   3.230   5.955  12.214  0.6874 -0.6662  0.1039
 8830TIP3    H147981   3.254   5.877  12.264  1.6054  0.4456  1.4646
 8830TIP3    H247982   3.226   6.025  12.279 -2.0600  0.0982 -0.7393
 8831TIP3   OH247983   5.189   1.144   2.453 -0.5131 -0.1069  1.2915
 8831TIP3    H147984   5.139   1.064   2.438 -0.7410 -0.1632  2.2775
 8831TIP3    H247985   5.198   1.184   2.366  1.1367 -2.0620  0.4832
 8832TIP3   OH247986   0.175   6.343  11.313  0.2236 -0.1884 -0.2436
 8832TIP3    H147987   0.091   6.331  11.357  0.9560 -2.1799  0.7219
 8832TIP3    H247988   0.167   6.427  11.268 -1.4311  0.7844  1.7283
 8833TIP3   OH247989   1.715   2.094  13.266 -0.3789  0.1825 -0.3450
 8833TIP3    H147990   1.643   2.147  13.232 -0.8781  0.1212  0.5911
 8833TIP3    H247991   1.710   2.012  13.216 -1.4714 -0.1395  0.2464
 8834TIP3   OH247992   1.404   3.098   1.926  0.4638  0.1069 -0.7470
 8834TIP3    H147993   1.402   3.193   1.938  0.0117 -0.0206  0.2625
 8834TIP3    H247994   1.390   3.062   2.014  1.4659 -0.9012 -0.9846
 8835TIP3   OH247995   6.289   1.272  16.847  0.1065 -0.4976 -0.1219
 8835TIP3    H147996   6.295   1.321  16.929  1.9387  0.5570 -0.8246
 8835TIP3    H247997   6.281   1.180  16.873 -2.2280  0.0056  1.2180
 8836TIP3   OH247998   1.070   4.844   0.160  0.1991 -0.3116 -0.2843
 8836TIP3    H147999   0.982   4.869   0.131  0.7704  0.4486 -1.4269
 8836TIP3    H248000   1.106   4.924   0.198  0.2562 -0.7371  0.5924
 8837TIP3   OH248001   1.303   0.330   9.966  0.2533  0.7179 -0.0516
 8837TIP3    H148002   1.258   0.296  10.043 -0.4322  0.3870 -0.5790
 8837TIP3    H248003   1.275   0.421   9.960  0.7855  0.9127  0.4327
 8838TIP3   OH248004   1.123   5.369  10.983 -0.3731 -0.5993 -0.6947
 8838TIP3    H148005   1.048   5.424  11.005  0.0881  0.2100 -1.0685
 8838TIP3    H248006   1.124   5.300  11.049 -1.8385 -1.0190 -1.0867
 8839TIP3   OH248007   5.620   2.219  10.309 -0.2134  0.0455 -0.2336
 8839TIP3    H148008   5.710   2.227  10.277  0.5980  0.0216  1.8793
 8839TIP3    H248009   5.582   2.150  10.255  1.2907 -0.4794 -0.6784
 8840TIP3   OH248010   1.213   1.223   2.434 -0.1923  0.1914 -0.5385
 8840TIP3    H148011   1.218   1.267   2.349  3.0380  1.0026 -0.0798
 8840TIP3    H248012   1.248   1.286   2.496  0.0647 -1.3179  0.9368
 8841TIP3   OH248013   4.379   6.522   4.560  0.3309  0.8860 -0.5619
 8841TIP3    H148014   4.293   6.551   4.592 -0.9036 -1.4021 -1.6228
 8841TIP3    H248015   4.389   6.566   4.476  0.8974  2.2451  0.1711
 8842TIP3   OH248016   5.334   2.753   1.271 -0.5207 -0.1124 -0.3166
 8842TIP3    H148017   5.314   2.847   1.269  0.5951  0.1356 -0.8833
 8842TIP3    H248018   5.333   2.726   1.179 -1.1082 -0.7213 -0.1363
 8843TIP3   OH248019   4.209   3.893  16.007 -0.1246  0.0013 -0.0159
 8843TIP3    H148020   4.241   3.859  16.090  0.1803 -0.0555 -0.1570
 8843TIP3    H248021   4.276   3.955  15.979  0.7630 -1.4700 -1.2202
 8844TIP3   OH248022   5.669   4.136  14.908  0.2702 -0.2236 -0.3079
 8844TIP3    H148023   5.583   4.177  14.917 -0.0764 -1.1498  0.9189
 8844TIP3    H248024   5.723   4.178  14.976  0.0721 -1.3186  0.5715
 8845TIP3   OH248025   3.721   6.207   3.905  0.0427 -0.1999 -0.0389
 8845TIP3    H148026   3.740   6.261   3.981  1.4019 -1.1891  0.3693
 8845TIP3    H248027   3.669   6.134   3.939 -0.7636  0.2137 -0.3681
 8846TIP3   OH248028   3.863   3.369  11.019 -0.0527  0.5658 -0.3054
 8846TIP3    H148029   3.923   3.375  10.944 -0.7721  1.1593 -0.8589
 8846TIP3    H248030   3.779   3.344  10.980 -0.3252  0.4143  0.3659
 8847TIP3   OH248031   0.931   4.640  16.348  0.4292 -0.1954  0.0951
 8847TIP3    H148032   1.022   4.653  16.375  0.9018 -1.4737 -0.7320
 8847TIP3    H248033   0.913   4.712  16.288  0.6079  0.5452  0.9246
 8848TIP3   OH248034   6.163   1.405   5.243  0.0406 -0.8460  0.2116
 8848TIP3    H148035   6.257   1.393   5.258 -0.0379  0.1395  1.6754
 8848TIP3    H248036   6.121   1.364   5.319 -0.6825 -0.4926  0.0155
 8849TIP3   OH248037   3.924   2.124  15.613  0.1143 -0.3519 -0.2959
 8849TIP3    H148038   3.958   2.041  15.645  0.9576 -0.4250 -1.3409
 8849TIP3    H248039   3.985   2.151  15.544 -1.6644 -0.2539 -1.9204
 8850TIP3   OH248040   0.379   5.945   1.144  1.3689  0.4090 -0.2079
 8850TIP3    H148041   0.414   5.980   1.062  0.0894  0.1283 -0.9014
 8850TIP3    H248042   0.284   5.959   1.137  1.2145  0.1484  1.1183
 8851TIP3   OH248043   2.988   3.535  15.117 -0.2532  0.0192  0.0954
 8851TIP3    H148044   3.000   3.538  15.022  0.4571  1.0146  0.1971
 8851TIP3    H248045   3.040   3.609  15.150  0.4511 -0.9968  1.3620
 8852TIP3   OH248046   3.847   0.005   2.732 -0.2547  0.3216 -0.4153
 8852TIP3    H148047   3.752   0.008   2.748 -0.2330 -1.3577  0.2241
 8852TIP3    H248048   3.883   0.073   2.790 -0.8200 -1.0977  1.7386
 8853TIP3   OH248049   3.157   2.222  11.866  0.2178 -0.4771  0.5454
 8853TIP3    H148050   3.099   2.166  11.813  1.5666  0.1762 -1.7667
 8853TIP3    H248051   3.244   2.185  11.853  0.8490  0.9257  0.6762
 8854TIP3   OH248052   3.852   6.050  16.976 -0.3888  0.0254 -1.1276
 8854TIP3    H148053   3.935   6.089  16.950 -1.4647  0.9811 -3.3266
 8854TIP3    H248054   3.860   5.958  16.952  0.2901 -0.0783 -0.5685
 8855TIP3   OH248055   6.445   0.351   3.166  0.3255  0.0879 -0.0912
 8855TIP3    H148056   6.353   0.332   3.181  0.4538  0.6227  1.5629
 8855TIP3    H248057   6.483   0.359   3.254  1.2738  3.0574 -0.6670
 8856TIP3   OH248058   1.743   4.854   0.638 -0.0319  0.2372  0.3359
 8856TIP3    H148059   1.685   4.911   0.688 -0.2205  0.5483 -0.2300
 8856TIP3    H248060   1.797   4.914   0.587  0.1015 -0.0771  0.1074
 8857TIP3   OH248061   4.089   2.447   5.770  0.8277 -1.2625  0.0319
 8857TIP3    H148062   4.033   2.370   5.758  0.1113 -0.7083 -0.2270
 8857TIP3    H248063   4.035   2.521   5.741  0.9715 -0.4844  1.6617
 8858TIP3   OH248064   6.300   2.127   0.880  0.0139  0.0218  0.1928
 8858TIP3    H148065   6.365   2.174   0.828 -0.4221 -0.1889 -0.5468
 8858TIP3    H248066   6.350   2.060   0.926  0.6947  1.3307  1.4648
 8859TIP3   OH248067   6.097   2.698  11.970 -0.1414  0.4008 -0.2874
 8859TIP3    H148068   6.041   2.742  11.905 -0.1262  1.2729  0.2684
 8859TIP3    H248069   6.116   2.766  12.034 -0.1114 -0.4370  0.6100
 8860TIP3   OH248070   6.486   4.966  13.012  0.2568  0.0308  0.1067
 8860TIP3    H148071   6.451   4.995  13.096 -1.0309 -0.6152 -0.1895
 8860TIP3    H248072   6.415   4.916  12.972  0.6391  0.7717 -1.6091
 8861TIP3   OH248073   0.518   4.943  11.431 -0.3194 -0.7114 -0.3347
 8861TIP3    H148074   0.573   4.874  11.393 -0.6846  0.6323 -3.6035
 8861TIP3    H248075   0.429   4.917  11.406 -0.7093 -0.3602  0.6707
 8862TIP3   OH248076   1.105   0.584   5.645  0.4984  0.4364  0.5372
 8862TIP3    H148077   1.075   0.631   5.567  2.1615  0.2210 -0.2689
 8862TIP3    H248078   1.108   0.651   5.713 -0.3526  0.7667  0.2653
 8863TIP3   OH248079   6.048   6.561   1.804 -0.3556 -0.0319 -0.5975
 8863TIP3    H148080   5.954   6.543   1.800 -0.6225  1.1093  0.1417
 8863TIP3    H248081   6.055   6.638   1.860  1.0048  0.0621 -0.8745
 8864TIP3   OH248082   6.578   6.182   3.664 -0.3561  0.3298  0.2861
 8864TIP3    H148083   6.546   6.098   3.631  2.6547 -2.1492  3.0470
 8864TIP3    H248084   6.505   6.216   3.717 -1.9692  0.0235 -1.6455
 8865TIP3   OH248085   3.998   4.042  16.845  0.7646 -0.5113 -0.3750
 8865TIP3    H148086   4.091   4.055  16.826  0.7429 -0.7837 -0.6927
 8865TIP3    H248087   3.974   3.964  16.794  0.5545 -0.9141  0.3236
 8866TIP3   OH248088   4.029   2.630  15.819 -0.4186  0.2411 -0.2077
 8866TIP3    H148089   3.950   2.612  15.870 -0.5064 -0.0166 -0.4321
 8866TIP3    H248090   4.001   2.691  15.751 -0.3455  0.4267 -0.0733
 8867TIP3   OH248091   4.262   3.234  11.463  0.3685 -0.3249  0.0982
 8867TIP3    H148092   4.286   3.199  11.377  2.3100  1.3910 -0.1387
 8867TIP3    H248093   4.335   3.209  11.519  0.8519  1.5787  0.3744
 8868TIP3   OH248094   0.611   5.053   5.942 -0.1839 -0.4906  0.1415
 8868TIP3    H148095   0.553   4.992   5.896  1.2813 -0.1375 -2.3270
 8868TIP3    H248096   0.689   5.001   5.962 -0.3749 -0.3482  1.3117
 8869TIP3   OH248097   0.277   6.290   2.675 -0.3660  0.0860 -0.4503
 8869TIP3    H148098   0.196   6.248   2.645 -0.8793  2.2480 -2.4245
 8869TIP3    H248099   0.331   6.218   2.706 -2.1412 -1.7193 -1.2772
 8870TIP3   OH248100   6.463   0.672  15.136  0.2011 -0.4568  0.1782
 8870TIP3    H148101   6.528   0.713  15.192 -1.6108  0.9427  1.4028
 8870TIP3    H248102   6.497   0.681  15.047  1.7538 -0.0184  0.7964
 8871TIP3   OH248103   2.767   3.214  12.683 -0.0347  0.4911 -0.3967
 8871TIP3    H148104   2.748   3.193  12.774 -1.0754  0.5628 -0.5874
 8871TIP3    H248105   2.720   3.148  12.632  1.7655 -0.4883 -0.8822
 8872TIP3   OH248106   5.801   0.399   3.745 -0.2314  0.1065  0.6822
 8872TIP3    H148107   5.889   0.433   3.730  0.3407 -0.0501  3.2527
 8872TIP3    H248108   5.762   0.393   3.657  1.9925  0.9751 -0.4348
 8873TIP3   OH248109   3.888   2.075   4.300  0.2007 -0.3269  0.3553
 8873TIP3    H148110   3.829   2.074   4.375  0.7721  0.2049  0.8298
 8873TIP3    H248111   3.909   2.168   4.288  0.6045 -0.4677 -0.0687
 8874TIP3   OH248112   6.520   0.917  14.232  0.1170  0.3030 -0.5597
 8874TIP3    H148113   6.603   0.954  14.200  0.0295  2.3957  1.3302
 8874TIP3    H248114   6.453   0.961  14.181  0.0495  2.4286  1.1891
 8875TIP3   OH248115   3.937   4.818  14.676  0.4787 -0.5809 -0.4564
 8875TIP3    H148116   3.882   4.829  14.754  0.4862  1.2608 -0.6638
 8875TIP3    H248117   3.900   4.879  14.612  2.0395 -0.1700 -1.0086
 8876TIP3   OH248118   0.700   1.027  16.796 -0.0777  0.7477  0.3120
 8876TIP3    H148119   0.722   1.071  16.714 -2.5929  0.0727 -0.8168
 8876TIP3    H248120   0.689   0.935  16.772 -2.3370  0.7654  1.0289
 8877TIP3   OH248121   5.294   5.569   4.170  0.3934  0.3396 -0.7742
 8877TIP3    H148122   5.257   5.536   4.252 -1.7773  0.7518 -1.5235
 8877TIP3    H248123   5.355   5.501   4.142  3.0164  1.1480  2.2596
 8878TIP3   OH248124   0.023   3.879   6.103 -0.1904  0.2930  0.1528
 8878TIP3    H148125  -0.014   3.959   6.140  0.2277  0.8473 -0.5865
 8878TIP3    H248126   0.015   3.891   6.008  0.4239 -0.2784  0.0230
 8879TIP3   OH248127   4.110   0.566   1.589 -0.2880  0.0145 -0.2221
 8879TIP3    H148128   4.067   0.594   1.670  0.1896  1.0907 -0.3188
 8879TIP3    H248129   4.199   0.600   1.597 -0.1867 -0.0227 -1.1195
 8880TIP3   OH248130   6.796   2.359  17.198  0.6282 -0.5545 -0.0903
 8880TIP3    H148131   6.850   2.307  17.257  1.3217  0.4743  0.2229
 8880TIP3    H248132   6.855   2.382  17.126  0.7672  0.9406  0.4689
 8881TIP3   OH248133   2.141   5.741  12.917 -0.3877 -0.0131 -0.2334
 8881TIP3    H148134   2.164   5.803  12.986 -0.2165 -0.2701 -0.0617
 8881TIP3    H248135   2.152   5.655  12.956  1.5616 -0.2299 -1.1318
 8882TIP3   OH248136   3.379   5.771  14.317 -0.1125  0.0055 -0.3080
 8882TIP3    H148137   3.387   5.681  14.347 -2.1781 -0.0918  0.0544
 8882TIP3    H248138   3.403   5.768  14.224  0.8429 -0.7097 -0.0464
 8883TIP3   OH248139   5.733   4.910   0.732  0.5330  0.0442 -0.3240
 8883TIP3    H148140   5.817   4.926   0.688  0.6575 -0.3149 -0.2230
 8883TIP3    H248141   5.754   4.911   0.825  1.0530 -3.1410 -0.2987
 8884TIP3   OH248142   0.057   1.145   2.119 -0.3723  0.0332 -0.5262
 8884TIP3    H148143   0.093   1.169   2.205 -2.1584 -0.0247  0.2886
 8884TIP3    H248144   0.010   1.223   2.090 -1.1902 -0.4929 -0.6511
 8885TIP3   OH248145   6.208   3.516  12.758  0.7271 -0.4052  0.2121
 8885TIP3    H148146   6.233   3.605  12.784 -0.5287  0.4360 -1.3276
 8885TIP3    H248147   6.131   3.497  12.811  2.2763 -1.5274  2.2013
 8886TIP3   OH248148   1.594   6.676   1.987 -0.5977  0.3004 -0.7755
 8886TIP3    H148149   1.569   6.768   1.995  1.7336  1.0893 -1.7065
 8886TIP3    H248150   1.636   6.656   2.071 -1.9171 -0.2278 -0.2194
 8887TIP3   OH248151   1.619   3.453  12.712  0.2018  0.1290  0.0379
 8887TIP3    H148152   1.610   3.358  12.725 -3.2194  0.2919 -0.1262
 8887TIP3    H248153   1.554   3.491  12.772 -0.0781  2.2286 -1.4922
 8888TIP3   OH248154   1.257   6.437   4.590 -0.2439  0.1490 -0.2113
 8888TIP3    H148155   1.184   6.443   4.528  0.9370  3.5913 -1.5499
 8888TIP3    H248156   1.232   6.494   4.663 -0.3072 -1.4132  1.0265
 8889TIP3   OH248157   0.095   2.095  15.163 -0.0591  0.0150  0.0481
 8889TIP3    H148158   0.066   2.024  15.219  0.3247  0.5226  0.9104
 8889TIP3    H248159   0.026   2.161  15.170  0.1614  0.2315  0.2204
 8890TIP3   OH248160   1.471   2.424   2.720 -0.2653  0.2701 -0.4649
 8890TIP3    H148161   1.513   2.355   2.669 -0.1087 -0.6990  0.9234
 8890TIP3    H248162   1.400   2.379   2.767 -1.5950  1.4905 -1.2289
 8891TIP3   OH248163   5.954   1.159   5.922 -0.1559 -0.2504  0.1029
 8891TIP3    H148164   6.019   1.199   5.865  1.3853 -1.5817  0.8508
 8891TIP3    H248165   5.950   1.068   5.893 -1.4567 -0.2721  0.3004
 8892TIP3   OH248166   5.785   0.792   0.738 -0.0009 -0.0168  0.0327
 8892TIP3    H148167   5.801   0.845   0.661 -0.3255 -0.7073 -0.5254
 8892TIP3    H248168   5.865   0.741   0.750  0.9970  1.7678  1.5782
 8893TIP3   OH248169   2.678   1.714  17.169 -0.1559  0.3406  0.2633
 8893TIP3    H148170   2.705   1.806  17.160 -1.0444  0.4099 -2.5308
 8893TIP3    H248171   2.582   1.718  17.166 -0.2608 -0.6276  1.4613
 8894TIP3   OH248172   3.197   0.653   1.610  0.2371  0.1236  0.1726
 8894TIP3    H148173   3.265   0.683   1.550 -0.3259  0.3311 -0.3689
 8894TIP3    H248174   3.188   0.723   1.674 -1.2693  1.2880 -1.2441
 8895TIP3   OH248175   2.232   3.643   2.039  0.4308  0.7494 -0.2903
 8895TIP3    H148176   2.220   3.548   2.044 -1.9615  1.0344  0.6626
 8895TIP3    H248177   2.272   3.666   2.123 -0.0678  0.6973 -0.0327
 8896TIP3   OH248178   4.832   3.736  13.937  0.5548 -0.1853 -0.3735
 8896TIP3    H148179   4.786   3.800  13.992 -1.6186 -1.0163 -1.0913
 8896TIP3    H248180   4.891   3.789  13.883 -1.3448  1.2989 -1.1250
 8897TIP3   OH248181   4.463   2.765   3.005  0.3184 -0.6346 -0.4459
 8897TIP3    H148182   4.540   2.805   2.964  1.0847 -1.0685  0.5324
 8897TIP3    H248183   4.488   2.674   3.021 -0.7535 -1.0431 -0.9747
 8898TIP3   OH248184   3.972   1.507  17.170 -0.1599 -0.2506 -0.6335
 8898TIP3    H148185   4.007   1.513  17.081  0.2436 -1.4032 -0.5698
 8898TIP3    H248186   4.049   1.491  17.224 -0.5731 -1.1705 -0.2887
 8899TIP3   OH248187   0.256   1.301  15.236  0.3073  0.2269 -0.4362
 8899TIP3    H148188   0.187   1.269  15.295  0.9071  0.0500  0.1889
 8899TIP3    H248189   0.293   1.376  15.282 -0.1467  0.9708 -1.2470
 8900TIP3   OH248190   4.277   4.393  14.817 -0.9138 -0.1183 -0.0694
 8900TIP3    H148191   4.207   4.329  14.803 -1.5047  1.0679 -3.4115
 8900TIP3    H248192   4.355   4.340  14.830 -1.9467 -1.4650  1.0616
 8901TIP3   OH248193   4.957   3.638  14.533 -0.1172 -0.2864 -0.2347
 8901TIP3    H148194   4.889   3.648  14.599 -0.5607  0.2493 -0.7579
 8901TIP3    H248195   4.910   3.634  14.450  0.4659 -0.2919 -0.5754
 8902TIP3   OH248196   6.671   1.373  16.522  0.0456  0.6346 -0.1879
 8902TIP3    H148197   6.714   1.329  16.596  0.8138  2.0796  0.2851
 8902TIP3    H248198   6.583   1.393  16.553  0.4061  1.3499  0.4305
 8903TIP3   OH248199   6.714   2.046  16.126 -0.4473  0.3201 -0.7266
 8903TIP3    H148200   6.743   2.043  16.217  1.7188 -0.9826 -1.3827
 8903TIP3    H248201   6.745   2.130  16.093 -1.2803  0.8154 -0.2658
 8904TIP3   OH248202   1.168   2.177  13.970 -0.0788  0.1483 -0.2706
 8904TIP3    H148203   1.168   2.226  13.888  0.5374  1.5254  0.5219
 8904TIP3    H248204   1.258   2.182  14.002 -0.3771 -0.0819  0.6517
 8905TIP3   OH248205   6.141   2.939   1.535 -0.5334  0.0274 -0.4182
 8905TIP3    H148206   6.054   2.938   1.575 -0.0783 -1.6100  0.6040
 8905TIP3    H248207   6.196   2.988   1.596 -0.2895 -0.7575  0.0120
 8906TIP3   OH248208   3.924   2.999  12.596  0.2396  0.0288 -0.0259
 8906TIP3    H148209   4.005   3.040  12.628  1.6407 -0.9968 -2.0441
 8906TIP3    H248210   3.897   3.053  12.522  0.0649 -0.6121 -0.4399
 8907TIP3   OH248211   3.821   3.611  14.171  0.4732  0.0215 -0.7608
 8907TIP3    H148212   3.857   3.540  14.224  0.1457 -0.7995 -1.6141
 8907TIP3    H248213   3.763   3.659  14.230 -1.9827 -2.4506 -0.9770
 8908TIP3   OH248214   3.212   6.235   4.883 -0.5873  0.2623 -0.3407
 8908TIP3    H148215   3.204   6.311   4.824  0.4107  1.1224  0.5963
 8908TIP3    H248216   3.204   6.272   4.971 -0.8768 -0.8467  0.1114
 8909TIP3   OH248217   6.111   4.390   5.799  0.5777  0.5648  0.0886
 8909TIP3    H148218   6.100   4.310   5.748 -2.8575  0.0268  1.3985
 8909TIP3    H248219   6.058   4.376   5.877  1.3004  3.4591  1.2284
 8910TIP3   OH248220   2.858   4.008  11.484 -0.3324  0.7598 -0.2162
 8910TIP3    H148221   2.927   3.942  11.482 -0.1965  0.8740  0.5741
 8910TIP3    H248222   2.812   3.996  11.401  0.9016  0.9833 -0.9617
 8911TIP3   OH248223   6.750   6.696  16.869  0.1407 -0.3661 -0.1713
 8911TIP3    H148224   6.821   6.670  16.810  0.9132 -0.1265  0.6231
 8911TIP3    H248225   6.672   6.655  16.833  0.7997 -1.1886 -0.6992
 8912TIP3   OH248226   5.298   1.495   0.695  0.3985  0.3319  0.3322
 8912TIP3    H148227   5.233   1.439   0.737 -0.2401  1.2452  0.5664
 8912TIP3    H248228   5.378   1.481   0.746 -0.1172  0.6872  1.2558
 8913TIP3   OH248229   3.403   2.579   1.305  0.3093  0.2937 -0.2943
 8913TIP3    H148230   3.328   2.543   1.352  1.3581  1.9903  3.0397
 8913TIP3    H248231   3.479   2.548   1.355  1.6002  1.3757 -1.5232
 8914TIP3   OH248232   4.174   4.941   0.247  0.5912  0.0530  0.6476
 8914TIP3    H148233   4.205   4.969   0.161  3.2257  1.1719  1.8292
 8914TIP3    H248234   4.228   4.990   0.309 -0.9822 -0.9448  2.9593
 8915TIP3   OH248235   4.175   3.964  14.174  0.0309  0.3606 -0.2522
 8915TIP3    H148236   4.211   4.044  14.135  1.5815  0.0128  0.3728
 8915TIP3    H248237   4.251   3.920  14.213 -0.6856 -1.6647 -0.9872
 8916TIP3   OH248238   2.836   4.284  13.463  0.4074 -0.0273  0.4832
 8916TIP3    H148239   2.795   4.362  13.425  1.9108 -0.3184 -1.9049
 8916TIP3    H248240   2.770   4.215  13.454 -0.1782  0.4807  0.7615
 8917TIP3   OH248241   6.234   1.339  12.080  0.4499 -0.4259  0.5242
 8917TIP3    H148242   6.164   1.337  12.144  0.5162  0.9727  0.6534
 8917TIP3    H248243   6.252   1.431  12.065  1.5272 -0.7419 -0.3195
 8918TIP3   OH248244   6.030   1.886   6.096  0.1374  0.1915  0.0552
 8918TIP3    H148245   5.987   1.827   6.034 -1.0710  1.1754 -0.0978
 8918TIP3    H248246   6.097   1.931   6.044 -0.0089  0.0970 -0.2170
 8919TIP3   OH248247   6.772   0.668  13.864 -0.3924  0.1751 -0.5369
 8919TIP3    H148248   6.689   0.650  13.819 -0.7127  1.1296 -0.3601
 8919TIP3    H248249   6.839   0.634  13.805 -0.9102 -0.5289 -0.7234
 8920TIP3   OH248250   5.393   6.414  16.883 -0.6707 -0.2795  0.2852
 8920TIP3    H148251   5.375   6.390  16.792 -2.7583  0.4424  0.4507
 8920TIP3    H248252   5.375   6.334  16.932  0.7075 -0.7445  0.0697
 8921TIP3   OH248253   0.940   4.143  14.046 -0.2410 -0.2121 -0.2215
 8921TIP3    H148254   0.988   4.152  13.964 -1.2832 -2.5919 -1.1862
 8921TIP3    H248255   0.911   4.231  14.067 -0.0980  0.4346 -2.5018
 8922TIP3   OH248256   3.134   6.359  16.717  0.3072 -0.2899  0.2921
 8922TIP3    H148257   3.098   6.386  16.633  0.7479 -0.0890  0.1621
 8922TIP3    H248258   3.225   6.390  16.715  0.1642  0.2118  1.0715
 8923TIP3   OH248259   4.325   6.394   1.162  0.1987  0.2174  0.1974
 8923TIP3    H148260   4.340   6.479   1.205  1.3264  1.2161 -2.0147
 8923TIP3    H248261   4.236   6.400   1.128  0.6912  1.0738 -1.0191
 8924TIP3   OH248262   1.171   4.074  11.457  0.5911 -0.6775  0.2021
 8924TIP3    H148263   1.106   4.091  11.389 -0.3330  1.4179  1.5206
 8924TIP3    H248264   1.252   4.112  11.424 -0.0198  0.9619  0.5201
 8925TIP3   OH248265   5.374   4.604   5.043 -0.3933  0.4266 -0.1425
 8925TIP3    H148266   5.389   4.666   5.114 -0.9810 -0.5149  0.8240
 8925TIP3    H248267   5.279   4.590   5.043 -0.3416  0.0284 -0.7882
 8926TIP3   OH248268   4.232   6.405   0.293 -0.2898 -0.1517 -0.4475
 8926TIP3    H148269   4.145   6.374   0.317 -1.6088  2.6664 -1.2009
 8926TIP3    H248270   4.231   6.408   0.197  0.0956  1.1800 -0.4387
 8927TIP3   OH248271   4.547   5.778  17.019 -0.0346 -0.3636 -0.3208
 8927TIP3    H148272   4.487   5.748  16.951  0.5826  0.5412 -1.2959
 8927TIP3    H248273   4.490   5.815  17.087 -0.5736  1.4766 -1.7135
 8928TIP3   OH248274   5.587   5.496   1.119  0.2297 -0.2493  0.2377
 8928TIP3    H148275   5.623   5.563   1.176 -1.5452 -0.7841  2.0973
 8928TIP3    H248276   5.554   5.544   1.043 -2.2261  1.2937  2.1082
 8929TIP3   OH248277   1.541   0.132  14.528 -0.2804 -0.0428 -0.3251
 8929TIP3    H148278   1.511   0.042  14.539 -1.7999  0.6300  1.4266
 8929TIP3    H248279   1.622   0.136  14.579  0.3370 -0.6546 -1.2330
 8930TIP3   OH248280   4.152   6.050  16.095 -0.1889 -0.1474 -0.1009
 8930TIP3    H148281   4.197   6.131  16.072 -0.5365 -0.1023 -0.6570
 8930TIP3    H248282   4.215   6.001  16.147  0.2774  0.1751 -0.3513
 8931TIP3   OH248283   2.109   3.143   0.495  0.1796 -0.1163  0.2124
 8931TIP3    H148284   2.078   3.094   0.419  0.1697 -0.7248  0.6055
 8931TIP3    H248285   2.044   3.126   0.563 -0.3807  1.2610  0.0723
 8932TIP3   OH248286   2.057   2.833   0.313  0.2219 -0.3687 -0.6740
 8932TIP3    H148287   2.129   2.845   0.375 -0.5345 -3.6052  1.0330
 8932TIP3    H248288   2.080   2.754   0.264  0.3392  1.5672 -4.0534
 8933TIP3   OH248289   1.394   2.650  12.289  0.6968 -0.7883  0.7507
 8933TIP3    H148290   1.336   2.675  12.217 -0.8615 -0.6038  2.0306
 8933TIP3    H248291   1.359   2.694  12.366  3.5117  0.6614  1.3268
 8934TIP3   OH248292   3.997   6.557   1.274  0.1018  0.0646 -0.3867
 8934TIP3    H148293   3.914   6.510   1.268  0.4383 -0.5674 -0.2712
 8934TIP3    H248294   4.018   6.557   1.368  0.1417  0.3741 -0.3963
 8935TIP3   OH248295   0.669   1.228  16.952  0.5973  0.2753 -0.0475
 8935TIP3    H148296   0.665   1.165  16.880 -0.3151  0.6642 -0.3414
 8935TIP3    H248297   0.760   1.223  16.982  0.5736 -1.1220 -0.1150
 8936TIP3   OH248298   6.066   6.264   1.309  0.1870  0.0673  0.2132
 8936TIP3    H148299   6.135   6.246   1.245  0.7368  0.3221  0.7296
 8936TIP3    H248300   6.058   6.359   1.309  0.5959  0.1064  0.9423
 8937TIP3   OH248301   5.205   1.206   2.167  0.7119 -0.3080 -0.0714
 8937TIP3    H148302   5.287   1.250   2.145  0.7359  0.0300  0.6856
 8937TIP3    H248303   5.227   1.112   2.162  1.4414 -0.2243  1.1763
 8938TIP3   OH248304   0.893   1.218  14.761  0.9034 -0.4712 -0.1357
 8938TIP3    H148305   0.901   1.282  14.832 -1.0651  2.0539 -2.0438
 8938TIP3    H248306   0.803   1.186  14.767  1.4989 -2.2338  0.0291
 8939TIP3   OH248307   2.296   5.107  14.430 -0.0894 -0.9804  0.1157
 8939TIP3    H148308   2.201   5.105  14.419 -0.4637  0.4907  2.3970
 8939TIP3    H248309   2.325   5.186  14.385 -0.1724 -0.6114  0.7015
 8940TIP3   OH248310   1.758   1.139  16.892  0.3673  0.0887  0.5132
 8940TIP3    H148311   1.782   1.145  16.985 -0.0555  1.7022  0.5460
 8940TIP3    H248312   1.842   1.133  16.847  0.5736 -0.9833  0.9815
 8941TIP3   OH248313   3.368   0.720   3.115 -0.4368 -0.2513  0.3714
 8941TIP3    H148314   3.347   0.657   3.184  1.0480 -0.3102  0.8011
 8941TIP3    H248315   3.407   0.794   3.161 -0.7882  0.3502 -0.2769
 8942TIP3   OH248316   1.947   0.690  13.548 -0.2992 -0.4077  0.1264
 8942TIP3    H148317   2.041   0.687  13.564 -0.3081 -0.7974  0.1133
 8942TIP3    H248318   1.921   0.779  13.571  0.3366  0.1942 -1.4149
 8943TIP3   OH248319   1.221   5.180   1.288  0.3295 -0.0300  0.6150
 8943TIP3    H148320   1.137   5.193   1.332  0.4297 -0.2902  0.8830
 8943TIP3    H248321   1.247   5.091   1.311  0.2952 -0.2398 -0.1244
 8944TIP3   OH248322   6.745   1.190   0.867 -0.4000 -0.3299 -0.8725
 8944TIP3    H148323   6.758   1.101   0.833  1.2646 -1.3633  2.0405
 8944TIP3    H248324   6.729   1.177   0.961 -0.9956  2.4211 -0.5243
 8945TIP3   OH248325   0.758   2.851  11.027  0.2413  0.5309  0.0362
 8945TIP3    H148326   0.794   2.786  11.087 -0.3712 -2.0900 -2.2405
 8945TIP3    H248327   0.835   2.897  10.994  1.2399 -1.9744 -1.4244
 8946TIP3   OH248328   0.098   4.541   0.449  0.8255 -0.1978 -0.4672
 8946TIP3    H148329   0.179   4.507   0.486  0.7363  0.5561  0.4540
 8946TIP3    H248330   0.122   4.573   0.362  0.7874 -3.1388 -1.6776
 8947TIP3   OH248331   0.904   6.310  11.229 -0.2146 -0.0466 -0.0051
 8947TIP3    H148332   0.835   6.334  11.167 -2.9292 -1.5119  2.2210
 8947TIP3    H248333   0.956   6.244  11.183 -1.4278 -0.2537 -1.1296
 8948TIP3   OH248334   3.498   2.548  16.084 -0.1826  0.0678  0.3327
 8948TIP3    H148335   3.498   2.493  16.163  1.5586 -0.3382  0.0791
 8948TIP3    H248336   3.568   2.513  16.030  1.1509  2.6369  0.2334
 8949TIP3   OH248337   1.558   6.350  14.166  0.0258  0.3239 -0.0413
 8949TIP3    H148338   1.635   6.389  14.208 -0.7519  2.4641 -0.4801
 8949TIP3    H248339   1.554   6.391  14.080 -2.1928  1.0858  0.3655
 8950TIP3   OH248340   4.144   5.946  15.239  0.1659 -0.8160  0.3394
 8950TIP3    H148341   4.080   5.893  15.191  0.8903 -0.6274 -0.8560
 8950TIP3    H248342   4.108   6.035  15.234  0.9454 -0.5613 -1.1082
 8951TIP3   OH248343   6.459   1.139   4.337 -0.4532 -0.1543 -0.1337
 8951TIP3    H148344   6.496   1.118   4.251 -0.0363 -2.2985  0.5285
 8951TIP3    H248345   6.364   1.140   4.322 -0.3974 -0.8162 -0.5750
 8952TIP3   OH248346   0.100   2.221  12.595 -0.3462 -0.2633 -0.1315
 8952TIP3    H148347   0.065   2.139  12.559 -1.8321  0.3567 -0.1314
 8952TIP3    H248348   0.027   2.261  12.641  1.0101 -0.0903  1.9963
 8953TIP3   OH248349   4.263   0.763   5.967 -0.0676 -0.5921 -0.2692
 8953TIP3    H148350   4.327   0.706   5.925  1.2412  0.9903 -0.5369
 8953TIP3    H248351   4.201   0.785   5.897  0.1856 -0.6340 -0.5071
 8954TIP3   OH248352   0.739   5.833  16.006 -0.1109  0.3019  0.6172
 8954TIP3    H148353   0.650   5.867  16.013 -0.6093 -1.0174  1.1647
 8954TIP3    H248354   0.727   5.738  16.000  1.2654  0.1063  0.6859
 8955TIP3   OH248355   3.699   4.221   0.604 -0.0179  0.2673  0.5194
 8955TIP3    H148356   3.679   4.314   0.590 -3.0348 -0.3062  0.2401
 8955TIP3    H248357   3.728   4.189   0.519  1.5537  0.9953  0.7371
 8956TIP3   OH248358   3.494   2.391  14.993  0.2250 -0.3713  0.0140
 8956TIP3    H148359   3.404   2.369  15.017  0.8386 -1.9062  1.0579
 8956TIP3    H248360   3.526   2.443  15.066 -0.2343  1.4764 -1.0330
 8957TIP3   OH248361   1.061   3.707   2.482  0.2277  0.1523  0.1014
 8957TIP3    H148362   0.981   3.655   2.468  0.0697 -0.1934  1.9948
 8957TIP3    H248363   1.034   3.797   2.463  0.6074 -0.3672 -3.6177
 8958TIP3   OH248364   6.032   4.141  15.419  0.6103  0.4066 -0.3008
 8958TIP3    H148365   5.978   4.213  15.450  1.3807  0.2269  1.6040
 8958TIP3    H248366   6.030   4.077  15.491 -0.4552 -1.7390 -2.1131
 8959TIP3   OH248367   4.167   3.921   5.391 -0.7768  0.6181  0.6665
 8959TIP3    H148368   4.236   3.868   5.351  0.1826  0.9586  1.8040
 8959TIP3    H248369   4.123   3.963   5.317  0.5311  0.7389 -0.0717
 8960TIP3   OH248370   2.890   1.450  15.688 -0.1784 -0.0669  0.4687
 8960TIP3    H148371   2.855   1.391  15.621 -0.4082  1.6043 -0.9552
 8960TIP3    H248372   2.984   1.452  15.672  0.0587 -1.2747  1.5739
 8961TIP3   OH248373   1.317   6.203   1.925 -0.3763  0.1070 -0.0444
 8961TIP3    H148374   1.389   6.140   1.931 -0.1334  0.3960  0.1342
 8961TIP3    H248375   1.341   6.272   1.988 -0.4999  0.5099 -0.4345
 8962TIP3   OH248376   5.075   0.215  14.083 -0.3830  0.2662 -0.0376
 8962TIP3    H148377   5.063   0.310  14.084  0.8062  0.4773  2.8689
 8962TIP3    H248378   5.133   0.199  14.009 -0.0141  1.8802 -0.1335
 8963TIP3   OH248379   1.312   1.917   6.526 -0.2095 -0.1533 -0.0880
 8963TIP3    H148380   1.295   2.008   6.548  0.1702 -0.3577  1.0950
 8963TIP3    H248381   1.387   1.921   6.465 -0.2225  0.3211 -0.0752
 8964TIP3   OH248382   2.223   0.792  11.577 -0.5943  0.0413  0.1799
 8964TIP3    H148383   2.178   0.792  11.493 -3.2088  2.8180  1.3902
 8964TIP3    H248384   2.191   0.714  11.622 -2.2151  0.5810  0.0005
 8965TIP3   OH248385   1.895   4.283  14.714 -0.0815  0.4250  0.0032
 8965TIP3    H148386   1.975   4.333  14.696  0.3517  0.4723  1.8825
 8965TIP3    H248387   1.907   4.200  14.668  0.4473  0.9397 -0.8098
 8966TIP3   OH248388   1.102   0.883   4.306  0.5311 -0.0525 -0.6930
 8966TIP3    H148389   1.030   0.849   4.252  0.2717  1.9261 -1.6988
 8966TIP3    H248390   1.059   0.910   4.388  0.2258  0.4357 -1.0030
 8967TIP3   OH248391   0.421   5.972  14.154  0.4785  0.1972 -0.1782
 8967TIP3    H148392   0.408   5.981  14.249  2.7932  0.6748  0.1783
 8967TIP3    H248393   0.414   5.878  14.138 -1.9228  0.2819  0.0655
 8968TIP3   OH248394   5.236   0.061  14.939 -0.2239  0.0046 -0.5176
 8968TIP3    H148395   5.309   0.048  14.877  1.1089 -1.8557  1.2957
 8968TIP3    H248396   5.242   0.153  14.964  2.2989 -0.3512  0.4481
 8969TIP3   OH248397   4.122   0.473  14.163  0.0686  0.4758 -0.5706
 8969TIP3    H148398   4.104   0.563  14.135 -3.2145  0.0239 -0.3391
 8969TIP3    H248399   4.043   0.424  14.138  1.6338 -2.3197 -0.4640
 8970TIP3   OH248400   4.535   6.297  12.595  0.4664 -0.1845  0.7624
 8970TIP3    H148401   4.512   6.363  12.660 -1.5382 -0.6634  0.6091
 8970TIP3    H248402   4.543   6.216  12.646  3.1317  0.1290  0.9866
 8971TIP3   OH248403   0.056   6.225   0.046  0.1795  0.1236 -0.6704
 8971TIP3    H148404   0.075   6.255   0.134  1.5079  0.2352 -0.9787
 8971TIP3    H248405  -0.035   6.251   0.031 -1.0481 -2.2805  1.6475
 8972TIP3   OH248406   1.767   2.462  16.446 -0.5790  0.6401 -0.1298
 8972TIP3    H148407   1.785   2.495  16.358 -1.3818  0.2780 -0.4429
 8972TIP3    H248408   1.779   2.368  16.440  2.6212  0.8712  0.9947
 8973TIP3   OH248409   0.837   5.874  11.763 -0.2395 -0.1602  0.0288
 8973TIP3    H148410   0.857   5.901  11.673  0.0215  3.0129  0.9239
 8973TIP3    H248411   0.922   5.849  11.800 -0.2049 -0.5780 -0.3220
 8974TIP3   OH248412   2.938   4.630  15.065 -0.2642 -0.8718  0.1948
 8974TIP3    H148413   2.890   4.677  15.134  0.9334 -1.0587  1.2097
 8974TIP3    H248414   3.023   4.611  15.105  1.6966  1.7074 -2.3469
 8975TIP3   OH248415   2.389   2.638   4.887 -0.1921  0.4456 -0.0624
 8975TIP3    H148416   2.321   2.679   4.940 -1.8262 -0.6861 -1.1665
 8975TIP3    H248417   2.393   2.548   4.920  1.2943  0.6799  0.4417
 8976TIP3   OH248418   2.103   2.480   2.445  0.1179  0.5208 -0.0320
 8976TIP3    H148419   2.082   2.513   2.532  0.2722  0.8502 -0.1180
 8976TIP3    H248420   2.020   2.482   2.397 -0.3646 -1.3072  0.6178
 8977TIP3   OH248421   2.030   5.863  11.861  0.1820  0.0511  0.4161
 8977TIP3    H148422   2.084   5.930  11.903 -2.1344  2.2447  0.1515
 8977TIP3    H248423   1.991   5.908  11.785 -2.1440 -1.2717  0.7170
 8978TIP3   OH248424   3.916   1.278  14.982 -0.3774  0.1359  0.0074
 8978TIP3    H148425   3.954   1.364  14.965 -0.0486  0.0208  0.1561
 8978TIP3    H248426   3.943   1.224  14.908  3.1558 -1.0617  1.9356
 8979TIP3   OH248427   0.542   3.160  14.798 -0.2039 -0.2422  0.3599
 8979TIP3    H148428   0.632   3.139  14.824 -0.1176  0.9949  1.1333
 8979TIP3    H248429   0.546   3.250  14.768 -1.3058  0.0590  1.0532
 8980TIP3   OH248430   2.076   4.531  16.161 -0.3391 -0.4153 -0.1784
 8980TIP3    H148431   2.081   4.437  16.145  0.8936  0.0282 -3.3099
 8980TIP3    H248432   2.061   4.569  16.074  2.7488  2.4228  0.2982
 8981TIP3   OH248433   4.019   4.871   3.067 -0.3294  0.5406  0.4276
 8981TIP3    H148434   3.950   4.867   3.133 -2.8962 -0.5271 -2.1214
 8981TIP3    H248435   3.995   4.806   3.002  2.3346  1.1556 -1.3719
 8982TIP3   OH248436   3.797   2.387  16.295  0.0553 -0.3788  0.0158
 8982TIP3    H148437   3.873   2.416  16.245 -1.9367 -1.9105 -4.3645
 8982TIP3    H248438   3.829   2.313  16.347  1.8266 -0.2001 -0.7627
 8983TIP3   OH248439   2.073   1.040   2.417 -0.0076  0.4095 -0.1521
 8983TIP3    H148440   2.005   1.105   2.427 -1.1690 -0.4750 -1.8147
 8983TIP3    H248441   2.104   1.023   2.506 -0.4489  2.3566  0.4185
 8984TIP3   OH248442   1.630   1.019   1.695  0.2237 -0.3628  0.5542
 8984TIP3    H148443   1.628   1.112   1.675  1.8158 -0.1233  1.3265
 8984TIP3    H248444   1.700   1.010   1.761  0.4270 -2.1502  0.1533
 8985TIP3   OH248445   1.727   6.442  14.387 -0.4419  0.1855 -0.4460
 8985TIP3    H148446   1.738   6.524  14.339 -0.5414  2.2230  2.6933
 8985TIP3    H248447   1.798   6.442  14.451 -0.6647 -2.0340 -0.1059
 8986TIP3   OH248448   1.411   0.561  15.139  0.2030 -0.3085 -0.1084
 8986TIP3    H148449   1.332   0.612  15.159  1.0649  1.8376 -1.6782
 8986TIP3    H248450   1.397   0.530  15.049  0.4723 -1.3280  0.1903
 8987TIP3   OH248451   1.196   2.231   5.943  0.0943 -0.2828  0.3411
 8987TIP3    H148452   1.135   2.204   6.012  1.4894  1.1053  2.2144
 8987TIP3    H248453   1.279   2.246   5.988  1.5121 -0.7902 -1.9132
 8988TIP3   OH248454   2.733   4.744  11.124  0.1684 -0.2015  0.6517
 8988TIP3    H148455   2.680   4.781  11.195 -0.7662  0.8529 -0.5523
 8988TIP3    H248456   2.764   4.819  11.075  0.9496 -0.9122  0.0300
 8989TIP3   OH248457   5.376   6.648  15.145  0.4530  0.2331 -0.5290
 8989TIP3    H148458   5.465   6.650  15.180  0.6947 -1.8552 -0.8806
 8989TIP3    H248459   5.351   6.740  15.135  1.4817  0.8843  2.2361
 8990TIP3   OH248460   1.897   5.050   2.724 -0.1452 -0.3961 -0.0685
 8990TIP3    H148461   1.836   5.124   2.728 -1.6848 -1.6070 -0.2289
 8990TIP3    H248462   1.888   5.017   2.634 -0.0765 -1.2356  0.2249
 8991TIP3   OH248463   2.346   5.081  12.886 -0.8995  0.0899  0.0418
 8991TIP3    H148464   2.367   5.169  12.855  0.3966  0.4440  1.7818
 8991TIP3    H248465   2.402   5.024  12.833 -1.6706  0.2741 -1.0216
 8992TIP3   OH248466   2.909   6.257   0.807  0.6958 -0.3044 -0.0349
 8992TIP3    H148467   2.855   6.224   0.736 -1.6119 -0.8469  1.8350
 8992TIP3    H248468   2.952   6.180   0.844  1.9351 -0.0178 -0.8107
 8993TIP3   OH248469   3.515   1.773  16.965  0.0250  0.1592  0.4763
 8993TIP3    H148470   3.460   1.700  16.993  0.0763  0.0994  0.4210
 8993TIP3    H248471   3.520   1.830  17.042  0.5452 -0.2357  0.7440
 8994TIP3   OH248472   2.843   4.743  15.867 -0.0664  0.0466 -0.2229
 8994TIP3    H148473   2.795   4.816  15.829  1.8776  0.9262 -1.1131
 8994TIP3    H248474   2.869   4.690  15.793 -2.9352 -2.6639  0.4928
 8995TIP3   OH248475   5.173   5.980   5.085  0.1447  0.0842  0.3462
 8995TIP3    H148476   5.161   6.051   5.148 -1.2402  0.6335 -0.4687
 8995TIP3    H248477   5.236   5.921   5.126  0.5812  1.2873  1.4719
 8996TIP3   OH248478   5.241   3.552  13.868 -0.2023 -0.0659 -0.4416
 8996TIP3    H148479   5.175   3.568  13.936 -0.6847  0.7369 -1.0755
 8996TIP3    H248480   5.316   3.516  13.915 -0.6427  0.1756  0.4698
 8997TIP3   OH248481   1.359   4.990  13.020  0.2126  0.2625 -0.6834
 8997TIP3    H148482   1.370   4.930  12.946 -1.3152  0.8415 -1.4140
 8997TIP3    H248483   1.426   4.962  13.083  0.0469 -1.7274 -1.3118
 8998TIP3   OH248484   2.176   0.725   1.565  0.6242  0.4146 -0.3713
 8998TIP3    H148485   2.209   0.679   1.487 -0.7097  2.7203 -2.4593
 8998TIP3    H248486   2.251   0.777   1.594  1.2144 -0.6592  0.1218
 8999TIP3   OH248487   2.191   5.258   4.958  0.5523  0.3039 -0.0803
 8999TIP3    H148488   2.255   5.217   5.016  1.4704  1.2433 -0.4095
 8999TIP3    H248489   2.110   5.259   5.009  0.6956 -1.1728  0.2244
 9000TIP3   OH248490   6.684   3.624  13.347 -0.0082 -0.0189 -0.1094
 9000TIP3    H148491   6.764   3.599  13.301  0.0577  1.2450 -0.7325
 9000TIP3    H248492   6.700   3.714  13.378 -0.8800 -0.0395  0.4641
 9001TIP3   OH248493   1.926   1.765   0.311 -0.0497 -0.4784  0.2986
 9001TIP3    H148494   1.864   1.834   0.289  0.3704  0.0918  0.8681
 9001TIP3    H248495   1.914   1.699   0.243 -1.1878 -0.3254  0.3371
 9002TIP3   OH248496   0.614   2.717  12.084 -0.6747 -0.1067  0.3985
 9002TIP3    H148497   0.571   2.799  12.062 -0.1673  0.1313  0.2836
 9002TIP3    H248498   0.639   2.727  12.176 -0.6629 -0.1543  0.4003
 9003TIP3   OH248499   1.816   0.290  13.590  0.2218  0.6379 -0.5759
 9003TIP3    H148500   1.760   0.337  13.651 -0.6406  0.1539 -0.9667
 9003TIP3    H248501   1.899   0.279  13.636 -0.2585  0.6931  0.3239
 9004TIP3   OH248502   0.740   6.412   3.057  0.9214  0.0784  0.0755
 9004TIP3    H148503   0.726   6.457   2.974 -0.0392 -2.8361 -1.4905
 9004TIP3    H248504   0.834   6.395   3.060  0.9766  0.2959 -0.3683
 9005TIP3   OH248505   0.724   5.881  11.347  0.3535  0.3257 -0.3184
 9005TIP3    H148506   0.668   5.912  11.418  1.8803  2.2302  0.1325
 9005TIP3    H248507   0.716   5.948  11.279  0.9026 -0.1728 -0.8869
 9006TIP3   OH248508   4.514   3.157   5.358  0.0936  0.5471  0.3016
 9006TIP3    H148509   4.488   3.136   5.448  0.2766  2.2477  0.7789
 9006TIP3    H248510   4.590   3.101   5.342 -1.5590 -1.8284  0.1673
 9007TIP3   OH248511   5.966   6.390   5.360 -0.0809  0.3902 -0.3275
 9007TIP3    H148512   5.923   6.427   5.437  1.1771 -0.6923  0.9571
 9007TIP3    H248513   5.902   6.328   5.324 -0.4294  0.3958  0.2654
 9008TIP3   OH248514   3.424   1.351   1.636  0.6017 -0.2370  0.2409
 9008TIP3    H148515   3.423   1.290   1.710  2.4875 -0.3543  0.2292
 9008TIP3    H248516   3.390   1.300   1.563  0.2265 -0.6200  0.6726
 9009TIP3   OH248517   4.072   4.128  12.453 -0.0251  0.2171  0.6401
 9009TIP3    H148518   4.150   4.154  12.403 -0.4055 -0.2453 -0.2200
 9009TIP3    H248519   4.107   4.092  12.534  0.5403  2.8108  1.6515
 9010TIP3   OH248520   1.599   4.893   2.297  0.1331  0.3821 -0.2185
 9010TIP3    H148521   1.550   4.971   2.321 -0.4654 -0.4891  1.5754
 9010TIP3    H248522   1.533   4.834   2.259 -0.1195 -0.4700  1.4371
 9011TIP3   OH248523   0.552   4.358  10.990 -0.2695  0.1459  0.1515
 9011TIP3    H148524   0.558   4.289  10.924 -0.3145  0.0318  0.2667
 9011TIP3    H248525   0.590   4.320  11.069  1.9563  1.0453 -0.4034
 9012TIP3   OH248526   6.636   5.256  14.488  0.0546 -0.0793  0.4974
 9012TIP3    H148527   6.686   5.240  14.568 -0.2600 -2.4000  0.2919
 9012TIP3    H248528   6.656   5.182  14.432 -1.8573  0.0868 -0.4880
 9013TIP3   OH248529   2.430   1.950  15.961  0.2999  0.2571 -0.2950
 9013TIP3    H148530   2.382   2.003  15.897  1.2947 -1.0218 -2.2085
 9013TIP3    H248531   2.432   1.862  15.923  2.7509 -0.0839  0.4486
 9014TIP3   OH248532   1.413   1.909  16.116 -0.0798  0.4690 -0.5004
 9014TIP3    H148533   1.323   1.885  16.092  0.6215 -1.6589 -1.2188
 9014TIP3    H248534   1.402   1.972  16.187 -2.1452  0.6401 -0.8930
 9015TIP3   OH248535   1.967   6.129   0.339 -0.2263 -0.3481 -0.2526
 9015TIP3    H148536   2.037   6.069   0.365 -1.1953 -1.2374  0.4131
 9015TIP3    H248537   1.888   6.094   0.381 -1.2286  0.1431 -1.6152
 9016TIP3   OH248538   1.360   6.618  13.635  0.2915  0.1574  0.1624
 9016TIP3    H148539   1.327   6.620  13.725 -0.7986  0.2323 -0.2320
 9016TIP3    H248540   1.343   6.528  13.606  2.9503 -0.6717  0.8427
 9017TIP3   OH248541   0.986   3.082  12.467 -0.0781  0.0589 -0.0137
 9017TIP3    H148542   1.042   3.152  12.433 -1.2797  0.2962 -1.6623
 9017TIP3    H248543   0.959   3.033  12.389  0.1624 -1.8317  1.0486
 9018TIP3   OH248544   6.014   3.474  14.146 -0.2791  0.1440 -0.0664
 9018TIP3    H148545   5.997   3.566  14.166 -0.8795  0.1457 -0.5649
 9018TIP3    H248546   5.968   3.458  14.064 -4.0133 -1.7938  2.1626
 9019TIP3   OH248547   3.097   5.271  11.644 -0.4452  0.4545 -0.2298
 9019TIP3    H148548   3.054   5.233  11.721  0.5757  0.7400  0.5024
 9019TIP3    H248549   3.026   5.283  11.581 -1.2978  0.1767  0.6461
 9020TIP3   OH248550   3.393   0.738  13.538 -0.1224  0.1362 -0.1544
 9020TIP3    H148551   3.390   0.820  13.587 -0.8830  0.3813 -0.6080
 9020TIP3    H248552   3.481   0.704  13.556 -0.3409  0.2611  1.3018
 9021TIP3   OH248553   5.018   3.759   0.104 -0.4197 -0.3990  0.5454
 9021TIP3    H148554   5.002   3.666   0.118  1.0042 -0.7368  0.1054
 9021TIP3    H248555   5.098   3.778   0.154  0.5950  0.0320 -1.1458
 9022TIP3   OH248556   4.106   3.336   5.465 -0.0306  0.3049  0.6097
 9022TIP3    H148557   4.113   3.249   5.504 -2.5769 -0.5905 -0.6538
 9022TIP3    H248558   4.177   3.340   5.401  0.4516 -0.6176  1.0700
 9023TIP3   OH248559   3.030   4.816   0.085  0.2488 -0.4986 -0.2756
 9023TIP3    H148560   3.004   4.861   0.165 -0.0227 -0.2915 -0.4763
 9023TIP3    H248561   3.121   4.844   0.070  0.1427 -0.1588 -0.2993
 9024TIP3   OH248562   2.145   2.890   3.135  0.1184 -0.5681  0.4749
 9024TIP3    H148563   2.135   2.796   3.123  0.5047 -0.3641 -1.9207
 9024TIP3    H248564   2.229   2.910   3.094 -0.7859  1.0424 -0.7076
 9025TIP3   OH248565   4.687   5.101   2.526  0.3462  0.9626  0.6039
 9025TIP3    H148566   4.714   5.012   2.551  0.5874  1.0446  0.6395
 9025TIP3    H248567   4.769   5.151   2.524  0.3659  0.9133 -0.5692
 9026TIP3   OH248568   0.039   2.647   1.216 -0.1123  0.2134  0.1767
 9026TIP3    H148569   0.080   2.680   1.295 -0.3039  1.2583 -0.1371
 9026TIP3    H248570  -0.053   2.634   1.240 -0.9355  3.5176 -0.6037
 9027TIP3   OH248571   1.929   2.449  10.892 -0.0513  0.7611 -0.2134
 9027TIP3    H148572   1.838   2.479  10.896 -0.3168  0.1425 -1.0947
 9027TIP3    H248573   1.922   2.354  10.881  0.6136  0.9023 -2.4873
 9028TIP3   OH248574   2.158   2.697   5.412 -0.3010 -0.6142 -0.0438
 9028TIP3    H148575   2.080   2.695   5.467  0.2711  1.4136  0.9124
 9028TIP3    H248576   2.222   2.748   5.462  1.0864 -0.8138 -1.5326
 9029TIP3   OH248577   2.282   4.403  13.807  0.2309 -0.3836  0.4767
 9029TIP3    H148578   2.327   4.425  13.725  0.1178  0.4936  0.6374
 9029TIP3    H248579   2.339   4.339  13.849 -0.7289 -2.4969 -1.2518
 9030TIP3   OH248580   4.907   1.085   6.427 -0.1737 -0.3078  0.2593
 9030TIP3    H148581   4.851   1.140   6.481 -1.2687 -0.3515 -0.7901
 9030TIP3    H248582   4.993   1.128   6.429  0.1172 -0.8728  2.8201
 9031TIP3   OH248583   0.065   0.651   0.387 -0.6571  0.4666 -0.3542
 9031TIP3    H148584   0.011   0.583   0.346 -0.5759  0.3051 -0.1950
 9031TIP3    H248585   0.132   0.671   0.322  0.3833 -0.8648  0.2723
 9032TIP3   OH248586   1.326   5.865  15.647 -0.2965 -0.1729  0.3103
 9032TIP3    H148587   1.390   5.872  15.576  0.5796 -0.2240  1.0689
 9032TIP3    H248588   1.372   5.817  15.716 -0.9663  0.2813  1.0909
 9033TIP3   OH248589   6.584   4.156  13.362  0.2393  0.1877  0.3089
 9033TIP3    H148590   6.517   4.172  13.428  0.5524  1.0732  0.4340
 9033TIP3    H248591   6.623   4.072  13.386 -1.8893 -1.1570 -0.6983
 9034TIP3   OH248592   4.276   1.158   0.251  0.2969  0.0048 -0.2258
 9034TIP3    H148593   4.224   1.081   0.228 -0.3493  0.6639 -1.0502
 9034TIP3    H248594   4.221   1.233   0.227  1.7160  0.7400 -1.4224
 9035TIP3   OH248595   1.339   1.434  11.031  0.1005  0.4104  0.4722
 9035TIP3    H148596   1.261   1.458  10.982  0.5386  0.5106 -0.1926
 9035TIP3    H248597   1.379   1.517  11.055 -0.0498  0.3600  0.8909
 9036TIP3   OH248598   3.759   0.047   0.138 -0.2885 -0.2569 -0.0307
 9036TIP3    H148599   3.833   0.078   0.190 -0.8785  1.3490 -0.0646
 9036TIP3    H248600   3.682   0.072   0.190 -0.8196 -1.4497 -0.2254
 9037TIP3   OH248601   1.938   6.189  11.170  0.0087 -0.5705 -0.3526
 9037TIP3    H148602   1.868   6.242  11.133 -1.1850 -0.9745  1.2391
 9037TIP3    H248603   1.973   6.140  11.095 -1.2181 -0.1699 -1.2106
 9038TIP3   OH248604   2.007   5.108  14.366 -0.2235  0.3052 -0.4519
 9038TIP3    H148605   1.932   5.166  14.349  0.6714  2.5221  2.3925
 9038TIP3    H248606   1.996   5.081  14.457  0.9868 -1.6751 -0.8419
 9039TIP3   OH248607   1.774   5.785   1.240  0.0964 -0.6957  0.0504
 9039TIP3    H148608   1.827   5.721   1.193  1.7094  0.9509 -0.4616
 9039TIP3    H248609   1.731   5.836   1.171  3.1473  2.3036  0.1519
 9040TIP3   OH248610   5.116   5.328  11.848  0.1085 -0.3435 -0.0571
 9040TIP3    H148611   5.053   5.400  11.847  2.1291  1.5604  1.1518
 9040TIP3    H248612   5.123   5.300  11.757 -1.1672  0.5558 -0.4581
 9041TIP3   OH248613   5.980   6.454  13.190 -0.2847  0.4944 -0.1778
 9041TIP3    H148614   5.923   6.527  13.215 -0.4994  0.4234 -0.4681
 9041TIP3    H248615   5.976   6.394  13.265  1.5265  1.7361  1.0064
 9042TIP3   OH248616   2.320   1.614   0.461 -0.2691 -0.0805 -0.1327
 9042TIP3    H148617   2.253   1.547   0.477 -1.3212  1.1733  1.0760
 9042TIP3    H248618   2.286   1.664   0.386 -0.7981  0.6424  0.5685
 9043TIP3   OH248619   5.793   5.440  11.884 -0.4573 -0.3356  0.0644
 9043TIP3    H148620   5.795   5.373  11.952  1.8083  0.8902  1.3248
 9043TIP3    H248621   5.862   5.415  11.823 -1.9149 -0.9647 -1.4104
 9044TIP3   OH248622   5.160   3.814  15.622 -0.5155  0.4995 -0.0544
 9044TIP3    H148623   5.182   3.902  15.592 -0.2356  0.3791 -0.2010
 9044TIP3    H248624   5.135   3.767  15.542  0.6818  0.0418 -0.1862
 9045TIP3   OH248625   5.835   6.688   3.557  0.2843  0.3402  0.1727
 9045TIP3    H148626   5.741   6.678   3.545  0.3200 -1.8905  1.1345
 9045TIP3    H248627   5.874   6.660   3.474  0.1235 -0.6220  0.4069
 9046TIP3   OH248628   5.991   1.089  11.368 -0.1977  0.3655  0.4782
 9046TIP3    H148629   5.918   1.085  11.430  0.2360  0.6981  1.0294
 9046TIP3    H248630   6.031   1.002  11.373  1.1093  1.0019  2.2926
 9047TIP3   OH248631   6.659   1.885   0.395  0.4371 -0.5380  0.0523
 9047TIP3    H148632   6.622   1.806   0.436  2.8090 -1.6500  0.2355
 9047TIP3    H248633   6.651   1.869   0.301  1.2178 -1.1866  0.0861
 9048TIP3   OH248634   3.176   3.523   5.794 -0.3473 -0.2108 -0.4172
 9048TIP3    H148635   3.109   3.583   5.827  0.7375  0.5038  0.5232
 9048TIP3    H248636   3.185   3.546   5.702 -0.0067  1.0305 -0.0909
 9049TIP3   OH248637   0.981   0.831  12.540 -0.0552  0.3151  0.6128
 9049TIP3    H148638   0.979   0.751  12.591  0.8695  0.6415  1.1851
 9049TIP3    H248639   0.956   0.804  12.451 -1.0289 -0.3627  1.0826
 9050TIP3   OH248640   2.871   3.079  11.637  0.8515  0.1106  0.1229
 9050TIP3    H148641   2.780   3.061  11.613  0.9043  1.2775 -1.0742
 9050TIP3    H248642   2.920   3.007  11.597  0.5790  0.1398 -0.2731
 9051TIP3   OH248643   0.946   0.481  14.176  0.2045  0.0149 -0.1852
 9051TIP3    H148644   0.922   0.406  14.122  2.4229 -0.2017 -0.9890
 9051TIP3    H248645   0.930   0.451  14.266  1.1403 -1.4886 -0.4792
 9052TIP3   OH248646   4.675   5.348   3.820  0.1141 -0.0656  0.5505
 9052TIP3    H148647   4.633   5.281   3.766  0.6133  0.7985 -0.9937
 9052TIP3    H248648   4.613   5.364   3.891 -1.5655  0.1921 -0.8942
 9053TIP3   OH248649   1.927   5.655  11.229 -0.2726 -0.1512  0.8035
 9053TIP3    H148650   1.850   5.623  11.182  0.9339 -1.8279 -0.1450
 9053TIP3    H248651   1.946   5.740  11.189 -1.0552 -0.1816  0.3556
 9054TIP3   OH248652   0.517   5.102   6.492  0.3888 -0.3361  0.1753
 9054TIP3    H148653   0.538   5.092   6.400 -1.4949 -1.9550 -0.1476
 9054TIP3    H248654   0.499   5.196   6.503  0.4051 -0.1611 -1.1424
 9055TIP3   OH248655   6.522   5.868   3.094  0.3272 -0.2404  0.1641
 9055TIP3    H148656   6.466   5.800   3.131  0.3494 -0.5284 -0.3305
 9055TIP3    H248657   6.610   5.831   3.096  0.5744  0.3617  1.3051
 9056TIP3   OH248658   3.605   0.374  16.542 -0.0602  0.2498 -0.3801
 9056TIP3    H148659   3.542   0.348  16.609 -1.0505 -0.3331 -1.4764
 9056TIP3    H248660   3.557   0.437  16.487  0.8069  0.9126 -0.4012
 9057TIP3   OH248661   4.567   2.440   1.219  1.0434  0.0601  0.3054
 9057TIP3    H148662   4.532   2.498   1.151 -1.0253 -1.7547 -0.2919
 9057TIP3    H248663   4.662   2.452   1.214  0.9074  0.7790 -2.1989
 9058TIP3   OH248664   6.495   5.844   2.283  0.5380  0.4300 -0.1880
 9058TIP3    H148665   6.548   5.776   2.241 -1.3402 -2.1786  1.3592
 9058TIP3    H248666   6.505   5.827   2.377 -3.8148 -1.0872  0.2303
 9059TIP3   OH248667   3.438   6.694   2.425  0.0491 -0.2097 -0.3656
 9059TIP3    H148668   3.377   6.687   2.351  0.9542  1.5736 -1.3765
 9059TIP3    H248669   3.522   6.714   2.383  0.4244  1.6938  1.1537
 9060TIP3   OH248670   0.438   3.078   5.513 -0.2732  0.3027  0.5411
 9060TIP3    H148671   0.511   3.118   5.559  0.1263  1.7944 -1.2810
 9060TIP3    H248672   0.475   3.000   5.471  0.2497  0.9222 -0.1767
 9061TIP3   OH248673   0.164   6.702  13.393  0.7603 -0.1300 -0.0970
 9061TIP3    H148674   0.144   6.723  13.302  2.0768  0.2605 -0.3097
 9061TIP3    H248675   0.127   6.615  13.406 -0.5104  0.3026 -0.6267
 9062TIP3   OH248676   5.502   0.501  11.006  0.1588 -0.1833  0.1350
 9062TIP3    H148677   5.486   0.476  10.915 -0.7052 -0.6782  0.4130
 9062TIP3    H248678   5.581   0.555  11.002  0.0418 -0.0591 -0.9274
 9063TIP3   OH248679   1.655   4.477  15.942  0.1635 -0.0362 -0.0931
 9063TIP3    H148680   1.590   4.413  15.911  1.0440 -0.5733 -0.8641
 9063TIP3    H248681   1.715   4.426  15.996 -0.0664  0.4698  0.6506
 9064TIP3   OH248682   2.676   3.758  13.917 -0.4563 -0.1666 -0.3909
 9064TIP3    H148683   2.672   3.763  13.821 -0.7196 -2.0269 -0.5279
 9064TIP3    H248684   2.760   3.714  13.934  0.5135  1.8689  0.3627
 9065TIP3   OH248685   4.222   1.688  11.757 -0.0461  0.4211 -0.4036
 9065TIP3    H148686   4.136   1.713  11.723 -0.2659  1.9954  1.1323
 9065TIP3    H248687   4.258   1.769  11.792  0.6549 -0.8144  1.9349
 9066TIP3   OH248688   0.981   6.530   0.057  0.0963 -0.2500  0.4208
 9066TIP3    H148689   0.904   6.572   0.020  0.0681 -0.4811  0.2106
 9066TIP3    H248690   0.997   6.455  -0.001  1.0523  0.3429 -0.1139
 9067TIP3   OH248691   1.013   0.626   0.468  0.4661  0.0898  0.4211
 9067TIP3    H148692   1.094   0.637   0.519 -0.1606 -0.0487  1.4651
 9067TIP3    H248693   1.034   0.663   0.383  1.4427  0.6258  0.8735
 9068TIP3   OH248694   2.002   4.470  13.806 -0.1000  0.1799  0.2424
 9068TIP3    H148695   1.968   4.431  13.726  0.2464  0.0469  0.1550
 9068TIP3    H248696   2.086   4.426  13.820 -0.3950 -0.1788  0.9616
 9069TIP3   OH248697   6.374   3.482  15.592 -0.1304  0.2600  0.2518
 9069TIP3    H148698   6.348   3.473  15.684  0.0507  1.2122  0.4111
 9069TIP3    H248699   6.462   3.521  15.596  0.0076  0.0184 -0.3240
 9070TIP3   OH248700   3.829   6.372  13.343 -0.0548  0.2601 -0.7515
 9070TIP3    H148701   3.896   6.304  13.356 -0.1670 -0.5065 -3.6329
 9070TIP3    H248702   3.874   6.441  13.295 -0.9654  0.3603 -1.4797
 9071TIP3   OH248703   2.631   5.520  10.914 -1.1285  0.3753 -0.1437
 9071TIP3    H148704   2.610   5.464  10.839  0.1810 -0.9488  0.4333
 9071TIP3    H248705   2.550   5.567  10.932 -1.8753 -0.3356 -1.4999
 9072TIP3   OH248706   6.744   1.254  12.062  0.0654  0.5958 -0.6973
 9072TIP3    H148707   6.707   1.266  11.975  0.3455 -0.6563 -1.0114
 9072TIP3    H248708   6.821   1.311  12.063  0.2211  0.4049 -1.3726
 9073TIP3   OH248709   3.243   1.958  16.970 -0.1255  0.4989  0.3462
 9073TIP3    H148710   3.273   1.950  17.061  1.9944 -2.5868 -0.4661
 9073TIP3    H248711   3.279   2.041  16.941 -1.9477  2.2181  2.6035
 9074TIP3   OH248712   6.267   5.988   2.427 -0.0653  0.4627 -0.0471
 9074TIP3    H148713   6.333   5.988   2.496  0.2868 -2.6532 -0.2409
 9074TIP3    H248714   6.210   5.914   2.448 -2.1505  1.6554 -1.1521
 9075TIP3   OH248715   1.378   4.633  12.234 -0.4074 -0.0835 -0.0678
 9075TIP3    H148716   1.449   4.644  12.171 -0.2992 -2.2348 -0.3736
 9075TIP3    H248717   1.321   4.709  12.219  0.3690  0.2180 -1.7287
 9076TIP3   OH248718   4.725   4.798  10.580  0.6870  0.2096 -0.1836
 9076TIP3    H148719   4.657   4.803  10.513  1.0235 -0.6062 -0.6095
 9076TIP3    H248720   4.794   4.746  10.539  0.6924 -0.7319  0.9762
 9077TIP3   OH248721   5.648   2.730  12.571  0.6283  0.6858  0.3391
 9077TIP3    H148722   5.658   2.676  12.649  1.3284 -0.4649 -0.5244
 9077TIP3    H248723   5.611   2.672  12.505  1.8277  1.1159 -0.7473
 9078TIP3   OH248724   3.860   0.834  16.420  0.0431 -0.7222 -0.3193
 9078TIP3    H148725   3.930   0.769  16.420  2.3797  1.6568 -0.2904
 9078TIP3    H248726   3.792   0.796  16.363  1.1185 -3.2777 -0.0300
 9079TIP3   OH248727   1.672   6.752  17.148  0.0138 -0.0786 -0.3774
 9079TIP3    H148728   1.744   6.690  17.145 -0.0391 -0.1505 -0.2182
 9079TIP3    H248729   1.712   6.835  17.175  0.5105  0.6080 -2.9623
 9080TIP3   OH248730   4.353   6.451   2.107 -0.1686 -1.1562  0.0044
 9080TIP3    H148731   4.382   6.447   2.016 -0.3446 -0.9106 -0.0632
 9080TIP3    H248732   4.407   6.519   2.147 -2.2104  1.0480 -0.7137
 9081TIP3   OH248733   0.110   2.303   4.243  0.3020  0.5335 -0.0652
 9081TIP3    H148734   0.195   2.306   4.200  0.4808  2.3488  0.3291
 9081TIP3    H248735   0.087   2.211   4.244  1.4601  0.1857 -1.7335
 9082TIP3   OH248736   3.858   0.805   0.452  0.0390 -0.1976  0.2402
 9082TIP3    H148737   3.811   0.877   0.408  0.4160  0.4174  0.8177
 9082TIP3    H248738   3.939   0.796   0.402  0.8022  0.9977  1.2110
 9083TIP3   OH248739   0.986   4.394  10.689 -0.1060 -0.3746 -0.7258
 9083TIP3    H148740   1.030   4.479  10.692 -1.2033  0.2497  3.0066
 9083TIP3    H248741   0.909   4.408  10.634 -0.9204  1.4924  0.7755
 9084TIP3   OH248742   6.198   3.864   0.209  0.2073  1.0519  0.1333
 9084TIP3    H148743   6.214   3.770   0.218  0.1710  0.9383 -0.8794
 9084TIP3    H248744   6.286   3.903   0.206  0.2368  0.9656 -0.2011
 9085TIP3   OH248745   5.023   0.704  13.041 -0.8739  0.6400  0.2342
 9085TIP3    H148746   5.049   0.730  13.130 -0.8634  1.2689  0.0449
 9085TIP3    H248747   4.969   0.626  13.055  0.0660  0.0505  0.7203
 9086TIP3   OH248748   1.782   4.942  13.863 -0.1830 -0.0698 -0.2712
 9086TIP3    H148749   1.834   4.927  13.942  0.1814  1.0599 -0.2770
 9086TIP3    H248750   1.733   4.861  13.851  0.4446 -0.5987  0.5925
 9087TIP3   OH248751   1.638   3.015  16.982  0.6834 -0.4042  0.4539
 9087TIP3    H148752   1.582   2.952  17.027  1.4824 -1.3050  0.2230
 9087TIP3    H248753   1.618   3.099  17.023  0.1702 -0.9313  1.3152
 9088TIP3   OH248754   6.726   1.077   3.175  0.1777  0.4148  0.0446
 9088TIP3    H148755   6.707   1.170   3.163  0.9154  0.5219 -0.3279
 9088TIP3    H248756   6.798   1.074   3.238  0.1624  0.0943  0.0523
 9089TIP3   OH248757   2.337   4.944  16.299  0.0957 -0.6012 -0.0218
 9089TIP3    H148758   2.414   5.000  16.300  1.4834 -2.4200  0.8479
 9089TIP3    H248759   2.332   4.911  16.210  1.1761 -1.5118  0.2241
 9090TIP3   OH248760   2.925   6.041   3.940 -0.4134  0.1731 -0.5193
 9090TIP3    H148761   3.008   6.043   3.891  0.5237 -1.3232  0.9308
 9090TIP3    H248762   2.875   5.971   3.898 -0.2546 -0.0572 -0.3240
 9091TIP3   OH248763   3.672   1.635   2.923 -0.1749  0.6078 -0.4586
 9091TIP3    H148764   3.757   1.677   2.914 -0.0039  0.7712  1.4366
 9091TIP3    H248765   3.643   1.620   2.833  2.7157 -1.2441 -1.2350
 9092TIP3   OH248766   1.287   5.792  17.146 -0.1635  0.1507  0.3823
 9092TIP3    H148767   1.252   5.743  17.071 -0.2050  2.2717 -1.0704
 9092TIP3    H248768   1.212   5.842  17.179  0.3808  1.0149  0.3362
 9093TIP3   OH248769   6.159   4.704  15.541  0.4087 -0.8114  0.3106
 9093TIP3    H148770   6.171   4.657  15.623 -0.2771 -3.3063 -0.9205
 9093TIP3    H248771   6.069   4.685  15.515  1.2997 -2.1032 -2.1536
 9094TIP3   OH248772   0.385   6.349   1.673 -0.2061  0.0117  0.4786
 9094TIP3    H148773   0.360   6.260   1.647 -0.4988  0.2074  0.0705
 9094TIP3    H248774   0.377   6.401   1.592 -0.5271  0.5059  0.8215
 9095TIP3   OH248775   6.742   3.230   5.537  0.1290 -0.3028  0.7403
 9095TIP3    H148776   6.764   3.173   5.464  1.0025  0.2620  0.5578
 9095TIP3    H248777   6.649   3.214   5.553 -0.4573  0.6418 -1.4406
 9096TIP3   OH248778   6.812   6.089  12.680  0.0778 -0.5848  0.0756
 9096TIP3    H148779   6.720   6.072  12.656 -0.4163  0.2637  1.2542
 9096TIP3    H248780   6.857   6.007  12.661 -0.8708 -0.9413 -0.7534
 9097TIP3   OH248781   1.404   5.433  11.732  0.6902 -0.1218  0.8167
 9097TIP3    H148782   1.385   5.390  11.649  0.3599 -0.1120  0.8893
 9097TIP3    H248783   1.418   5.360  11.794  3.1008 -0.1931  0.2897
 9098TIP3   OH248784   1.251   6.390  11.553  0.1572  0.9703 -0.3277
 9098TIP3    H148785   1.251   6.456  11.484 -0.5332  1.3112 -0.0076
 9098TIP3    H248786   1.225   6.309  11.510  3.4590  0.2451 -1.2987
 9099TIP3   OH248787   1.541   2.838   1.910  0.1771 -0.0507  0.1169
 9099TIP3    H148788   1.481   2.898   1.866  1.3810  0.0049 -1.5545
 9099TIP3    H248789   1.558   2.880   1.995 -0.3599  1.0896 -0.3142
 9100TIP3   OH248790   0.575   0.368   0.744  0.7236  0.5276 -0.1598
 9100TIP3    H148791   0.658   0.389   0.786  0.4229  0.2983  0.5777
 9100TIP3    H248792   0.517   0.441   0.768  0.5852  0.4574 -0.2789
 9101TIP3   OH248793   2.202   1.562  16.254  0.3675  0.7368  0.3477
 9101TIP3    H148794   2.192   1.502  16.329 -0.8954  0.6065  0.0967
 9101TIP3    H248795   2.286   1.536  16.214 -1.4150 -2.9817 -1.5262
 9102TIP3   OH248796   3.371   2.647   2.823 -0.8591  0.6586 -0.2011
 9102TIP3    H148797   3.307   2.667   2.755 -0.9996  0.0074 -0.2681
 9102TIP3    H248798   3.436   2.717   2.816 -0.3236  0.0595 -1.6919
 9103TIP3   OH248799   4.713   0.188   2.428  0.6912 -0.2355  0.0464
 9103TIP3    H148800   4.772   0.257   2.396  0.6169 -0.4019 -0.4611
 9103TIP3    H248801   4.767   0.109   2.428  0.1971 -0.5984 -1.4144
 9104TIP3   OH248802   4.061   4.475   3.028 -0.3934  0.3861  0.1573
 9104TIP3    H148803   4.139   4.478   2.973 -0.8496  1.4803 -0.4452
 9104TIP3    H248804   4.013   4.555   3.008 -2.0593 -0.5913 -0.0483
 9105TIP3   OH248805   2.358   4.293  13.403 -0.5490 -0.0721 -0.2954
 9105TIP3    H148806   2.422   4.334  13.345 -1.2138  0.0969 -0.9248
 9105TIP3    H248807   2.278   4.344  13.390 -0.7575 -0.1372  0.6522
 9106TIP3   OH248808   2.820   0.579  11.992  0.2249 -0.3611  0.1879
 9106TIP3    H148809   2.862   0.659  11.961  0.6953 -0.7242 -0.1379
 9106TIP3    H248810   2.727   0.591  11.973  0.4214 -0.2999 -0.7955
 9107TIP3   OH248811   5.200   5.061  16.981 -0.4722 -0.4826  0.3276
 9107TIP3    H148812   5.255   5.026  16.912 -0.1588 -2.5076  1.5251
 9107TIP3    H248813   5.250   5.134  17.017 -1.1300  1.3503 -2.2248
 9108TIP3   OH248814   4.622   4.915   3.766  0.8491 -0.1175 -0.2068
 9108TIP3    H148815   4.583   4.998   3.738  0.3025 -0.2887  0.0403
 9108TIP3    H248816   4.649   4.929   3.856 -2.4891 -1.2671  1.1034
 9109TIP3   OH248817   2.461   2.664  12.603 -0.0928 -0.1981 -0.0507
 9109TIP3    H148818   2.394   2.720  12.642 -0.9434 -0.8988 -0.4674
 9109TIP3    H248819   2.525   2.725  12.567 -1.3541  0.5605 -1.1306
 9110TIP3   OH248820   5.485   4.791  12.769 -0.3136 -0.3858  0.0460
 9110TIP3    H148821   5.490   4.769  12.862 -1.0286 -3.5355 -0.5526
 9110TIP3    H248822   5.445   4.878  12.768 -0.8261 -0.4972  2.6677
 9111TIP3   OH248823   1.172   1.678   0.969  0.4359 -0.1713  0.2315
 9111TIP3    H148824   1.182   1.763   0.926  1.1012 -0.4563 -0.2047
 9111TIP3    H248825   1.172   1.697   1.062 -1.5916  0.5273  0.1346
 9112TIP3   OH248826   0.036   2.249  16.048 -0.2069 -0.2189 -0.0122
 9112TIP3    H148827   0.040   2.311  15.974  0.7113 -1.5421 -1.1173
 9112TIP3    H248828   0.128   2.229  16.067 -0.3959  0.6390  2.0076
 9113TIP3   OH248829   6.574   1.275   5.745 -0.0446  0.5238 -0.2359
 9113TIP3    H148830   6.558   1.268   5.839 -1.9279 -1.7822 -0.6317
 9113TIP3    H248831   6.493   1.309   5.709  0.0036 -0.2911 -1.1762
 9114TIP3   OH248832   3.106   0.600   3.842  0.3850  0.0598 -0.2703
 9114TIP3    H148833   3.063   0.628   3.762 -1.0834 -1.4564 -0.0621
 9114TIP3    H248834   3.034   0.582   3.903  1.3688 -1.0493  0.6142
 9115TIP3   OH248835   4.228   3.101   4.138 -0.2393  0.2384 -0.2665
 9115TIP3    H148836   4.164   3.155   4.091 -0.2594  1.5164  1.1456
 9115TIP3    H248837   4.277   3.163   4.192  1.6336 -0.8321 -0.6540
 9116TIP3   OH248838   1.847   4.054   3.792  0.4701 -0.1125  0.0325
 9116TIP3    H148839   1.890   4.139   3.796  0.9831 -0.3446 -0.3675
 9116TIP3    H248840   1.817   4.047   3.701  0.5421 -0.4072  0.0293
 9117TIP3   OH248841   4.066   5.156  12.018  0.5925  0.1135 -0.1339
 9117TIP3    H148842   3.988   5.183  12.066  0.5327 -0.8153  0.3162
 9117TIP3    H248843   4.138   5.205  12.059  0.2439  1.0213 -0.5973
 9118TIP3   OH248844   6.365   4.976   5.427 -0.5024 -0.0321 -0.4554
 9118TIP3    H148845   6.401   4.944   5.344  0.6583 -1.0767  0.4022
 9118TIP3    H248846   6.442   5.005   5.476 -1.0491 -0.4250  0.6598
 9119TIP3   OH248847   4.325   6.234  13.294  0.0754  0.1794  0.2611
 9119TIP3    H148848   4.303   6.151  13.336 -1.4380  0.2193 -0.3798
 9119TIP3    H248849   4.348   6.293  13.365 -0.5096 -0.3100  0.8623
 9120TIP3   OH248850   1.715   4.739  12.459  0.2366  0.1068 -0.0716
 9120TIP3    H148851   1.716   4.812  12.398 -0.0055  0.4494  0.3338
 9120TIP3    H248852   1.625   4.734  12.491 -0.8457 -2.8375 -3.0170
 9121TIP3   OH248853   4.725   5.400  12.903  0.1391  0.0277 -0.1428
 9121TIP3    H148854   4.686   5.385  12.817  0.7852 -2.1241 -0.1190
 9121TIP3    H248855   4.817   5.373  12.892  0.8850  2.1145  0.5839
 9122TIP3   OH248856   4.605   0.281   4.734 -0.6727 -1.0148 -0.6376
 9122TIP3    H148857   4.577   0.250   4.820  2.7031 -1.7930  0.3135
 9122TIP3    H248858   4.653   0.362   4.753 -0.0012 -1.1317 -1.8014
 9123TIP3   OH248859   0.125   6.787   0.693  0.3037 -0.1323  0.6007
 9123TIP3    H148860   0.044   6.836   0.682 -2.2778 -3.6963  1.8678
 9123TIP3    H248861   0.161   6.818   0.776 -0.8871  0.0820  1.0510
 9124TIP3   OH248862   6.151   1.457   2.285  0.0259  0.2414  0.1846
 9124TIP3    H148863   6.203   1.514   2.229 -0.8260  0.4414 -0.4090
 9124TIP3    H248864   6.090   1.414   2.226 -1.4374  1.0515  1.0548
 9125TIP3   OH248865   2.232   6.323  12.423 -0.7040  0.1293  0.0563
 9125TIP3    H148866   2.179   6.352  12.497 -0.2959 -0.1812  0.4782
 9125TIP3    H248867   2.253   6.232  12.443  1.4056  0.7147  0.7656
 9126TIP3   OH248868   5.712   1.199  14.364  0.2245 -0.1303  0.4919
 9126TIP3    H148869   5.730   1.155  14.280  0.9436 -0.8183  0.9909
 9126TIP3    H248870   5.699   1.127  14.426 -2.5452  0.3201  0.5739
 9127TIP3   OH248871   4.450   2.069  15.593  0.0932 -0.0936  0.7773
 9127TIP3    H148872   4.480   2.053  15.504 -0.8018  1.1549  0.2206
 9127TIP3    H248873   4.366   2.022  15.599  0.2900 -0.4147  1.0659
 9128TIP3   OH248874   3.410   5.760  16.252  0.2800 -0.4087 -0.0679
 9128TIP3    H148875   3.332   5.779  16.199 -0.1973 -0.4002  0.6338
 9128TIP3    H248876   3.483   5.769  16.190 -0.1716  0.7161 -0.4697
 9129TIP3   OH248877   0.012   3.995  15.401 -0.0982  0.0920 -0.7181
 9129TIP3    H148878   0.036   4.087  15.394 -1.7592  0.4869 -1.6862
 9129TIP3    H248879  -0.028   3.987  15.488  0.5524  0.1436 -0.4088
 9130TIP3   OH248880   3.456   4.463  17.019  0.1289  0.0005 -0.1057
 9130TIP3    H148881   3.363   4.457  16.999 -0.3764  3.2504  0.7250
 9130TIP3    H248882   3.491   4.520  16.951  1.3461 -0.3752  0.1786
 9131TIP3   OH248883   3.925   1.251  16.574 -0.3220  0.3295  0.4460
 9131TIP3    H148884   3.945   1.223  16.485 -1.1423  3.5554 -0.9013
 9131TIP3    H248885   4.008   1.247  16.620  0.2270 -0.8981 -0.5995
 9132TIP3   OH248886   3.852   6.748  16.439  0.2907 -0.4077  0.3818
 9132TIP3    H148887   3.889   6.757  16.351  0.1270  0.2717  0.3725
 9132TIP3    H248888   3.830   6.838  16.464 -2.1347 -0.8479  0.0434
 9133TIP3   OH248889   5.124   5.718  16.933  0.2020 -0.3066 -0.3052
 9133TIP3    H148890   5.072   5.769  16.870  1.8868  0.1909 -1.3381
 9133TIP3    H248891   5.144   5.636  16.888 -0.6074 -0.9868  0.5235
 9134TIP3   OH248892   2.955   4.763   5.701  0.1463  0.4650 -0.1390
 9134TIP3    H148893   3.045   4.774   5.732  0.1787 -1.0360  0.3475
 9134TIP3    H248894   2.910   4.717   5.772 -0.1802 -1.6231 -1.5985
 9135TIP3   OH248895   0.464   0.782  12.228  0.4580 -0.3494  0.3616
 9135TIP3    H148896   0.383   0.740  12.258  0.2472  1.4606  2.5844
 9135TIP3    H248897   0.467   0.763  12.134 -1.2231 -2.5834  0.6698
 9136TIP3   OH248898   3.769   3.460  13.460  0.5170 -0.4971 -0.5728
 9136TIP3    H148899   3.707   3.532  13.453 -1.1134 -1.4549  2.3726
 9136TIP3    H248900   3.724   3.386  13.419  0.7120 -0.6550 -0.5018
 9137TIP3   OH248901   2.462   0.990   1.152  0.4786 -0.2562 -0.1158
 9137TIP3    H148902   2.528   0.985   1.221 -0.1621 -1.6686  0.4347
 9137TIP3    H248903   2.391   1.041   1.191 -0.4682 -2.1911  0.8370
 9138TIP3   OH248904   2.509   6.718  11.070 -0.3964  0.3307  0.2731
 9138TIP3    H148905   2.594   6.741  11.034 -0.3134  1.3803  1.1061
 9138TIP3    H248906   2.460   6.683  10.996  0.9577 -0.9103 -0.0967
 9139TIP3   OH248907   3.123   1.163  11.709  1.4945 -0.2895  0.2479
 9139TIP3    H148908   3.066   1.090  11.687  0.2140  0.8330 -0.2584
 9139TIP3    H248909   3.210   1.123  11.718  1.0572 -1.6859 -1.2282
 9140TIP3   OH248910   4.377   4.703   1.584 -0.3883 -0.2466  0.1838
 9140TIP3    H148911   4.373   4.626   1.527  0.4725  0.4581 -0.8477
 9140TIP3    H248912   4.385   4.777   1.525  1.8455  0.4221  1.2162
 9141TIP3   OH248913   3.331   4.439   1.122 -0.3862  0.0549 -0.7490
 9141TIP3    H148914   3.371   4.355   1.143  0.5428  0.7875  0.5442
 9141TIP3    H248915   3.365   4.461   1.035 -0.2960 -0.6941 -0.9081
 9142TIP3   OH248916   1.898   2.272  12.164  0.4034  0.1853 -1.1385
 9142TIP3    H148917   1.862   2.224  12.089 -1.0491  1.7438 -1.4888
 9142TIP3    H248918   1.966   2.328  12.125  0.3768  0.2295 -1.1208
 9143TIP3   OH248919   3.610   5.166  11.729  0.3751 -0.3997  0.2614
 9143TIP3    H148920   3.651   5.253  11.726 -0.3172 -0.0261  1.2820
 9143TIP3    H248921   3.519   5.182  11.702 -0.0245 -0.6294  1.4463
 9144TIP3   OH248922   0.512   4.081  14.502  0.4385 -0.1607  0.6644
 9144TIP3    H148923   0.502   4.079  14.597 -0.7859 -1.8316  0.5457
 9144TIP3    H248924   0.581   4.146  14.486 -0.3292  1.2022  2.5805
 9145TIP3   OH248925   2.388   5.951  14.646 -0.3905 -0.2928 -0.8556
 9145TIP3    H148926   2.408   5.899  14.568  0.0079 -2.8871  0.8650
 9145TIP3    H248927   2.292   5.947  14.654 -0.3777 -0.5587 -0.8475
 9146TIP3   OH248928   6.645   2.853   4.418  0.8052 -0.2227  0.3440
 9146TIP3    H148929   6.718   2.904   4.455  0.3040  0.9773 -0.2624
 9146TIP3    H248930   6.648   2.873   4.325  0.5970 -1.3383  0.0955
 9147TIP3   OH248931   2.360   4.409  17.258 -0.1000  0.0258  1.0049
 9147TIP3    H148932   2.436   4.373  17.305  0.2933 -0.5943 -0.0816
 9147TIP3    H248933   2.395   4.436  17.173 -1.1613 -0.6285  0.3363
 9148TIP3   OH248934   2.316   0.022   3.362 -0.2727 -1.0250  0.5544
 9148TIP3    H148935   2.335  -0.063   3.320  0.1163 -0.7695  0.1966
 9148TIP3    H248936   2.362   0.085   3.307 -2.4482 -0.3218 -0.5515
 9149TIP3   OH248937   0.257   2.148   0.330  0.1126 -0.3989 -0.0615
 9149TIP3    H148938   0.204   2.138   0.410 -0.7561 -0.7165 -0.6584
 9149TIP3    H248939   0.317   2.220   0.350  0.8255 -1.3562  1.3546
 9150TIP3   OH248940   3.698   5.002   1.115  0.5393  0.0076  0.0381
 9150TIP3    H148941   3.624   4.948   1.141 -1.1721  1.0212 -2.3852
 9150TIP3    H248942   3.685   5.085   1.160 -1.2668  1.0306 -2.1540
 9151TIP3   OH248943   5.372   1.218   1.066  0.3788 -0.1417  0.2925
 9151TIP3    H148944   5.338   1.307   1.075  2.0347  0.4492  1.3204
 9151TIP3    H248945   5.413   1.200   1.151 -0.6708 -2.2394  0.4073
 9152TIP3   OH248946   4.860   4.823   6.066  0.0520 -0.2431 -0.2906
 9152TIP3    H148947   4.903   4.744   6.099 -0.1353  0.2911  1.3039
 9152TIP3    H248948   4.779   4.790   6.026 -0.0178 -0.8709  0.3426
 9153TIP3   OH248949   1.071   5.227  11.216  0.1099  0.3235 -0.3418
 9153TIP3    H148950   1.058   5.228  11.311 -0.0462  1.1127 -0.3668
 9153TIP3    H248951   1.018   5.153  11.186 -0.2854  0.4079  0.1247
 9154TIP3   OH248952   2.103   4.674  13.949 -0.4933 -0.1139 -0.0280
 9154TIP3    H148953   2.055   4.663  14.031  0.6432  0.3185  0.7279
 9154TIP3    H248954   2.070   4.605  13.892  0.4483 -2.0740  1.6648
 9155TIP3   OH248955   6.767   5.906   2.711  0.2750  0.1002 -0.0192
 9155TIP3    H148956   6.779   6.000   2.726 -1.1505  0.3429 -0.3394
 9155TIP3    H248957   6.771   5.868   2.799  0.3394  0.5162  0.1629
 9156TIP3   OH248958   2.009   1.784   1.004 -0.8816  0.3510  0.1515
 9156TIP3    H148959   1.986   1.806   0.914 -0.0625  1.7440  0.2529
 9156TIP3    H248960   2.018   1.689   1.004 -0.2042  0.3945 -1.4072
 9157TIP3   OH248961   2.853   2.608  16.207  0.4557 -0.2602  0.2030
 9157TIP3    H148962   2.937   2.653  16.220  0.4091 -0.3194  0.7616
 9157TIP3    H248963   2.876   2.516  16.204  0.5370 -0.2106 -0.8153
 9158TIP3   OH248964   6.601   6.419  12.865  0.4476  0.0147  0.1672
 9158TIP3    H148965   6.626   6.337  12.907  1.6618 -0.0617 -0.6707
 9158TIP3    H248966   6.681   6.451  12.825  0.4563  2.6188  2.0647
 9159TIP3   OH248967   1.850   1.710  16.583  0.2700 -0.0923  0.1658
 9159TIP3    H148968   1.901   1.707  16.502  0.8769  0.4406  0.5175
 9159TIP3    H248969   1.850   1.620  16.615  0.1973 -0.2680 -0.3287
 9160TIP3   OH248970   1.882   4.953   0.384 -0.2177 -0.1314 -0.2246
 9160TIP3    H148971   1.871   4.996   0.299 -2.0830 -1.0798 -0.5239
 9160TIP3    H248972   1.894   4.860   0.362 -1.2961 -0.4736  0.5325
 9161TIP3   OH248973   5.769   5.709   3.396 -1.2240 -0.2341  0.4777
 9161TIP3    H148974   5.758   5.766   3.320 -1.5671  0.4382  1.0245
 9161TIP3    H248975   5.681   5.700   3.432 -1.1039 -0.7645  0.6441
 9162TIP3   OH248976   5.322   6.495   5.372  0.0537  0.3078 -0.3712
 9162TIP3    H148977   5.304   6.520   5.281  0.3394  0.8218 -0.2849
 9162TIP3    H248978   5.388   6.426   5.365 -0.0787  0.1970 -0.5593
 9163TIP3   OH248979   4.659   3.978  12.658 -0.7638  0.3362 -0.0374
 9163TIP3    H148980   4.725   3.945  12.597 -3.3381 -0.2593 -2.6940
 9163TIP3    H248981   4.597   3.906  12.668 -1.4502  1.1095  1.7993
 9164TIP3   OH248982   0.095   5.862   1.131  0.1695  0.0732  0.3308
 9164TIP3    H148983   0.068   5.934   1.074 -2.0696 -0.1762  0.9716
 9164TIP3    H248984   0.134   5.798   1.072  1.1300  1.3008 -0.4069
 9165TIP3   OH248985   4.460   2.214   1.835  0.0493 -0.5390  0.1869
 9165TIP3    H148986   4.513   2.200   1.756  1.3939 -0.2090  1.0063
 9165TIP3    H248987   4.478   2.137   1.889 -2.2155 -1.6387 -0.5091
 9166TIP3   OH248988   0.027   2.093   5.377 -0.4451 -0.6372  0.2124
 9166TIP3    H148989  -0.064   2.116   5.362 -0.1484 -0.8442 -2.3335
 9166TIP3    H248990   0.040   2.107   5.471 -3.0308 -0.4870  0.6206
 9167TIP3   OH248991   2.136   5.104  12.240  0.5260  0.0262 -0.3760
 9167TIP3    H148992   2.146   5.190  12.281 -0.4956  0.7139 -1.5073
 9167TIP3    H248993   2.042   5.095  12.223  0.7855 -0.6679 -1.5972
 9168TIP3   OH248994   4.702   4.762   5.838  0.1352  0.2416 -0.1628
 9168TIP3    H148995   4.675   4.851   5.817 -0.4968  0.3523  1.0497
 9168TIP3    H248996   4.624   4.709   5.818  0.3410  0.0259 -0.3985
 9169TIP3   OH248997   1.522   0.312   1.163  0.1415  0.2994  0.1098
 9169TIP3    H148998   1.594   0.281   1.109  0.3131  0.0072  0.5013
 9169TIP3    H248999   1.553   0.302   1.253  0.0224  1.1761  0.2621
 9170TIP3   OH249000   3.142   2.419  16.132  0.2946 -0.5612  0.1346
 9170TIP3    H149001   3.067   2.363  16.152  0.4857 -0.5665  0.8824
 9170TIP3    H249002   3.137   2.489  16.197 -1.4564  1.8142 -2.3418
 9171TIP3   OH249003   1.795   6.818  12.576  0.4147 -0.2978 -0.1788
 9171TIP3    H149004   1.722   6.837  12.517 -0.7145  2.4962  1.8974
 9171TIP3    H249005   1.873   6.824  12.520 -0.6522  1.1789 -1.6268
 9172TIP3   OH249006   4.955   2.140  12.423 -0.4416  0.3439  0.2423
 9172TIP3    H149007   4.869   2.169  12.455 -0.4428 -0.1021  0.6491
 9172TIP3    H249008   5.001   2.221  12.402 -0.4767  0.6502  1.2995
 9173TIP3   OH249009   6.025   1.756  13.691 -0.2102 -0.4173 -0.3114
 9173TIP3    H149010   6.039   1.841  13.650 -0.9752  0.1291  0.5292
 9173TIP3    H249011   6.107   1.708  13.676  0.5499  0.7680 -0.0564
 9174TIP3   OH249012   5.443   3.734  15.420  0.0125 -0.1551  0.5968
 9174TIP3    H149013   5.364   3.742  15.366 -0.2621 -0.4629  0.9460
 9174TIP3    H249014   5.510   3.701  15.359 -0.5724 -1.5400  0.6643
 9175TIP3   OH249015   3.814   3.187  12.439  0.1124 -0.4423  0.3145
 9175TIP3    H149016   3.725   3.162  12.412  0.2410  0.5649 -1.1451
 9175TIP3    H249017   3.851   3.232  12.363  1.4917  0.1406  1.2794
 9176TIP3   OH249018   1.988   5.163  14.975  0.4389  0.2633  0.0063
 9176TIP3    H149019   1.989   5.212  15.057  0.8692  0.6536 -0.2204
 9176TIP3    H249020   1.920   5.206  14.922  0.5002  0.3247 -0.0230
 9177TIP3   OH249021   6.307   5.050   4.669 -0.5010  0.0038  0.1014
 9177TIP3    H149022   6.289   5.020   4.580 -1.0025 -0.6313  0.4065
 9177TIP3    H249023   6.358   4.979   4.708 -1.4969 -0.3785  0.7552
 9178TIP3   OH249024   2.237   6.678   2.922  0.2990  0.8275 -0.1717
 9178TIP3    H149025   2.145   6.658   2.905  0.0056  0.8542  1.2703
 9178TIP3    H249026   2.235   6.757   2.976  1.0015 -0.7069  2.2374
 9179TIP3   OH249027   4.557   0.294  17.108 -0.0995 -0.2905 -0.6755
 9179TIP3    H149028   4.644   0.313  17.146 -0.9509  2.7356  0.0428
 9179TIP3    H249029   4.556   0.342  17.025 -1.5712  1.0148  0.0467
 9180TIP3   OH249030   3.715   3.360   0.469 -0.3648 -0.3373 -0.6202
 9180TIP3    H149031   3.631   3.406   0.474 -0.7846 -0.9762 -1.5402
 9180TIP3    H249032   3.736   3.339   0.560 -0.2342  1.5116 -0.1733
 9181TIP3   OH249033   6.677   6.421   5.738  0.3464 -0.0771 -0.0355
 9181TIP3    H149034   6.749   6.474   5.774  0.4912 -0.8008  0.7767
 9181TIP3    H249035   6.616   6.412   5.811 -0.1145 -0.2732 -0.4432
 9182TIP3   OH249036   3.223   1.456  14.947 -0.1143  0.0803  0.4563
 9182TIP3    H149037   3.212   1.551  14.948 -0.3162  0.0554  1.5564
 9182TIP3    H249038   3.257   1.435  15.034  1.2989 -0.6998 -0.2451
 9183TIP3   OH249039   0.975   5.346   5.907  0.1463  0.0586 -0.3568
 9183TIP3    H149040   0.889   5.308   5.925 -1.4039  2.4605 -2.1793
 9183TIP3    H249041   1.000   5.309   5.822  0.9607 -0.6017  0.1469
 9184TIP3   OH249042   4.125   2.693  13.262 -0.0577 -0.1587  0.4601
 9184TIP3    H149043   4.102   2.785  13.275 -1.6432 -0.4627 -0.0196
 9184TIP3    H249044   4.065   2.645  13.319 -0.0124 -0.9576 -0.1460
 9185TIP3   OH249045   6.313   4.961  14.183 -0.1742 -0.1897  0.4074
 9185TIP3    H149046   6.226   4.923  14.176 -0.1598 -0.7002  2.4640
 9185TIP3    H249047   6.298   5.050  14.216  0.0926 -0.6862  1.9614
 9186TIP3   OH249048   1.456   3.248  13.835 -0.5298 -0.0157  0.3042
 9186TIP3    H149049   1.546   3.224  13.810 -0.3895  2.5643 -2.2377
 9186TIP3    H249050   1.418   3.167  13.868  2.3772 -1.4668  0.4391
 9187TIP3   OH249051   3.756   4.168   3.547  0.6669  0.2518  0.3063
 9187TIP3    H149052   3.809   4.095   3.580  3.4797  2.4597  1.0432
 9187TIP3    H249053   3.794   4.188   3.461 -0.4998  0.4937 -0.1727
 9188TIP3   OH249054   5.077   0.266   3.590  0.0478 -0.0520 -0.3340
 9188TIP3    H149055   5.017   0.340   3.602  2.1243  1.4829  1.2336
 9188TIP3    H249056   5.021   0.189   3.601 -1.8097  1.2751  0.0993
 9189TIP3   OH249057   4.514   1.369   2.907  0.1720  0.0588 -0.5855
 9189TIP3    H149058   4.494   1.451   2.863  1.1198  0.8032  0.3098
 9189TIP3    H249059   4.470   1.302   2.855 -0.9417  1.1609 -1.1103
 9190TIP3   OH249060   6.244   4.116   1.648 -0.3197 -0.1842  0.3101
 9190TIP3    H149061   6.329   4.101   1.689 -0.5133 -0.2481  0.6901
 9190TIP3    H249062   6.247   4.064   1.567  0.6005  1.0593 -0.4971
 9191TIP3   OH249063   2.880   5.256  11.805 -0.2234 -0.2609 -0.1332
 9191TIP3    H149064   2.785   5.249  11.807 -0.1251 -1.9383  0.9148
 9191TIP3    H249065   2.903   5.293  11.890  0.0178  1.7113 -1.0019
 9192TIP3   OH249066   0.036   4.847   0.305 -0.3411  0.2123  0.1215
 9192TIP3    H149067   0.106   4.883   0.359 -0.8379  0.7048  0.4561
 9192TIP3    H249068  -0.026   4.811   0.368 -2.2290  3.0993  0.1365
 9193TIP3   OH249069   4.368   3.907   2.325 -0.7940  0.2530  0.0913
 9193TIP3    H149070   4.379   3.870   2.413 -2.4402 -0.8381 -0.1192
 9193TIP3    H249071   4.442   3.967   2.315 -0.1355 -0.1857  1.9130
 9194TIP3   OH249072   4.607   0.069  14.077  0.1684  0.0766  0.3650
 9194TIP3    H149073   4.700   0.048  14.076  0.0061 -0.6581 -0.8860
 9194TIP3    H249074   4.568   0.001  14.132  0.3119  0.1175  0.5177
 9195TIP3   OH249075   2.727   1.441  13.868  0.1068  0.1913  0.5925
 9195TIP3    H149076   2.757   1.461  13.956  1.5144 -0.4125  0.2736
 9195TIP3    H249077   2.791   1.378  13.834 -1.4098 -0.9992 -0.2153
 9196TIP3   OH249078   5.008   0.073   4.570 -0.0436 -0.8648 -0.1849
 9196TIP3    H149079   5.079   0.138   4.576 -1.1485  0.5746 -1.6697
 9196TIP3    H249080   5.052  -0.011   4.577  1.6336  0.0023  0.3762
 9197TIP3   OH249081   5.636   2.404  10.825  0.3247 -0.2502  0.2624
 9197TIP3    H149082   5.702   2.460  10.784 -1.0873  0.2686 -1.4083
 9197TIP3    H249083   5.553   2.437  10.792 -0.7592 -1.2430  1.8801
 9198TIP3   OH249084   2.264   3.143  12.832 -0.3411 -0.1916  0.1916
 9198TIP3    H149085   2.206   3.203  12.785  0.0682 -1.3880 -1.9942
 9198TIP3    H249086   2.213   3.063  12.842 -0.6787  0.2597  2.5585
 9199TIP3   OH249087   1.098   5.939  16.406  0.0804  0.0696  0.1232
 9199TIP3    H149088   1.020   5.977  16.446  0.0331  0.5891 -0.4554
 9199TIP3    H249089   1.073   5.924  16.315  0.8901  0.9119 -0.2469
 9200TIP3   OH249090   6.620   2.779  10.427  0.2783 -0.4301  0.1939
 9200TIP3    H149091   6.597   2.723  10.353 -0.4256 -0.6150  0.5425
 9200TIP3    H249092   6.649   2.861  10.387 -1.2882 -0.0755 -0.2720
 9201TIP3   OH249093   6.115   4.263   1.270  0.8688  0.2662  0.0300
 9201TIP3    H149094   6.087   4.218   1.190 -0.4831  0.8219  0.1630
 9201TIP3    H249095   6.205   4.233   1.284  1.3641  0.6156 -2.0323
 9202TIP3   OH249096   2.799   1.332   0.683  0.2363  0.7400  0.6118
 9202TIP3    H149097   2.820   1.375   0.600 -2.1460  1.0272  0.0782
 9202TIP3    H249098   2.861   1.368   0.746  1.5897  1.1003 -0.8646
 9203TIP3   OH249099   6.148   5.401  12.972  0.0673  0.3513 -0.1921
 9203TIP3    H149100   6.130   5.456  12.896  0.6961 -0.2425 -0.7855
 9203TIP3    H249101   6.242   5.411  12.987 -0.2813  1.6010  1.4239
 9204TIP3   OH249102   3.523   3.934   1.146 -0.4212  0.5273  0.1435
 9204TIP3    H149103   3.566   3.855   1.112  1.2682  2.0690 -1.4727
 9204TIP3    H249104   3.441   3.901   1.184 -0.0272 -1.9368 -0.9206
 9205TIP3   OH249105   2.252   5.203  15.729 -0.2064  0.2031  0.7107
 9205TIP3    H149106   2.158   5.192  15.718  0.1214 -1.7408 -0.7615
 9205TIP3    H249107   2.271   5.288  15.691 -1.2206  0.1252 -0.0042
 9206TIP3   OH249108   1.232   4.123   6.268 -0.4941 -0.0411 -0.3607
 9206TIP3    H149109   1.145   4.082   6.261  0.1780 -1.4025 -1.0206
 9206TIP3    H249110   1.251   4.154   6.180  0.5061 -1.4994 -0.6850
 9207TIP3   OH249111   2.725   0.248  15.541 -0.8778 -0.1947  0.1389
 9207TIP3    H149112   2.684   0.189  15.478 -0.4223 -1.3463  0.8961
 9207TIP3    H249113   2.651   0.287  15.588 -1.1679 -0.9617  0.3385
 9208TIP3   OH249114   1.278   6.539   5.698  0.6500 -0.4338 -0.1943
 9208TIP3    H149115   1.250   6.488   5.773 -2.3540 -0.0301 -0.9020
 9208TIP3    H249116   1.302   6.474   5.632 -1.5975 -0.9951 -0.5446
 9209TIP3   OH249117   4.587   6.725  15.327 -0.2600  0.0044 -0.0008
 9209TIP3    H149118   4.519   6.783  15.361 -0.3459  0.8822 -1.5780
 9209TIP3    H249119   4.668   6.773  15.342 -0.1059 -0.4300  0.6079
 9210TIP3   OH249120   6.622   6.413  15.547 -0.6245 -0.0651 -0.5600
 9210TIP3    H149121   6.638   6.469  15.623 -1.6181  0.7687 -0.9458
 9210TIP3    H249122   6.707   6.374  15.528  0.6441  2.7940 -1.4413
 9211TIP3   OH249123   6.394   1.737  16.897  0.3495  0.0647  0.3567
 9211TIP3    H149124   6.396   1.811  16.837 -1.0632 -0.1675 -0.0192
 9211TIP3    H249125   6.416   1.661  16.843 -2.2299 -0.3403 -0.2571
 9212TIP3   OH249126   2.714   1.220  11.773  0.2269  0.8080 -0.0703
 9212TIP3    H149127   2.670   1.137  11.757 -3.5228  2.4518  0.4864
 9212TIP3    H249128   2.715   1.264  11.688 -0.8995  1.4415  0.2164
 9213TIP3   OH249129   6.192   5.894  12.476  1.3412  0.4771  0.5325
 9213TIP3    H149130   6.170   5.816  12.527 -0.8080 -0.3725 -1.5090
 9213TIP3    H249131   6.126   5.958  12.501  0.3122  0.0759 -1.0102
 9214TIP3   OH249132   1.335   2.150  12.954  0.0175  0.0095  0.0334
 9214TIP3    H149133   1.256   2.127  13.003  0.5268  0.2232  0.9759
 9214TIP3    H249134   1.315   2.235  12.915 -0.5017 -0.3019 -0.4004
 9215TIP3   OH249135   2.064   6.665  10.376  0.7824  0.1785 -0.2823
 9215TIP3    H149136   2.052   6.670  10.281  2.2060 -1.2596 -0.5692
 9215TIP3    H249137   2.130   6.598  10.389 -0.4033 -0.6970  1.8161
 9216TIP3   OH249138   1.173   4.615   0.050 -0.2561  0.3771 -0.0306
 9216TIP3    H149139   1.143   4.696   0.091 -3.3887 -1.2923  1.2404
 9216TIP3    H249140   1.100   4.587  -0.005  0.1121 -2.3362  0.7069
 9217TIP3   OH249141   1.466   5.358  15.348  0.2449  0.2049  0.9739
 9217TIP3    H149142   1.554   5.325  15.327  0.0304  0.6309 -0.7119
 9217TIP3    H249143   1.482   5.443  15.388  0.5857  1.0084 -0.7883
 9218TIP3   OH249144   3.412   1.641  14.400  0.0180  0.2013  0.3615
 9218TIP3    H149145   3.415   1.717  14.342 -0.5393  0.0145  0.0671
 9218TIP3    H249146   3.361   1.577  14.350 -1.3883  0.4037  1.4928
 9219TIP3   OH249147   4.991   4.465   1.953 -0.1662  1.1221  0.2139
 9219TIP3    H149148   5.083   4.437   1.957 -0.7162 -0.8456 -0.1045
 9219TIP3    H249149   4.986   4.537   2.016  1.2237  0.1410  1.5373
 9220TIP3   OH249150   1.832   5.605   0.367  0.5323 -0.4915 -0.0939
 9220TIP3    H149151   1.803   5.540   0.303  0.4148 -0.8518  0.3166
 9220TIP3    H249152   1.756   5.661   0.381  0.4902 -0.5464 -0.1031
 9221TIP3   OH249153   6.281   5.782  14.682 -0.4210 -0.6066 -0.3951
 9221TIP3    H149154   6.315   5.696  14.658 -0.0462 -1.2325  2.1275
 9221TIP3    H249155   6.258   5.774  14.774  0.9276  2.3818  0.3199
 9222TIP3   OH249156   6.062   0.466   0.341 -0.4664  0.8364  0.0672
 9222TIP3    H149157   6.051   0.372   0.352 -0.6744  0.9991  1.3100
 9222TIP3    H249158   6.027   0.484   0.254 -0.4591 -0.2210 -0.1637
 9223TIP3   OH249159   3.095   4.829  15.397 -0.6132 -0.4476 -0.5570
 9223TIP3    H149160   3.014   4.780  15.382 -0.3432 -0.5629 -1.7300
 9223TIP3    H249161   3.162   4.778  15.351  0.0800 -0.1933  0.1525
 9224TIP3   OH249162   4.407   1.537   3.145 -0.1586  0.7923  0.3847
 9224TIP3    H149163   4.452   1.535   3.230  1.7418  1.7546 -0.5157
 9224TIP3    H249164   4.440   1.460   3.098 -0.1196  1.0216  0.0297
 9225TIP3   OH249165   4.850   5.297  16.030  0.0929 -0.0212  0.5874
 9225TIP3    H149166   4.817   5.378  16.067 -0.0681  0.8525 -1.3426
 9225TIP3    H249167   4.784   5.232  16.052 -0.3621  0.6191  1.1469
 9226TIP3   OH249168   6.792   0.194   0.549  0.5586  0.1578 -0.4725
 9226TIP3    H149169   6.873   0.234   0.517  0.1568  0.6781 -0.8684
 9226TIP3    H249170   6.735   0.269   0.566  0.8275 -0.0831  1.7028
 9227TIP3   OH249171   2.862   5.709  16.684  0.1793  0.1872 -0.5041
 9227TIP3    H149172   2.772   5.739  16.671 -0.1404 -0.9572 -1.0215
 9227TIP3    H249173   2.868   5.694  16.779 -0.5711 -0.8858 -0.6034
 9228TIP3   OH249174   5.831   5.442   4.738 -1.0955 -0.3460 -0.0309
 9228TIP3    H149175   5.918   5.455   4.775 -0.5120 -0.4297 -1.2907
 9228TIP3    H249176   5.785   5.387   4.801 -0.6393  0.6713  1.2107
 9229TIP3   OH249177   5.870   2.813   2.907 -0.2521 -0.0366 -0.6973
 9229TIP3    H149178   5.829   2.744   2.958  0.8035  0.2641  0.6117
 9229TIP3    H249179   5.882   2.775   2.820  0.7307 -1.6753  0.1195
 9230TIP3   OH249180   3.296   2.515  15.911  0.3686 -0.3307  0.7956
 9230TIP3    H149181   3.252   2.473  15.985 -0.5917 -0.6064  0.0849
 9230TIP3    H249182   3.369   2.563  15.951 -0.1776 -0.4057  1.9307
 9231TIP3   OH249183   0.149   0.130  14.877  0.6556  0.2355  0.5446
 9231TIP3    H149184   0.133   0.102  14.968  1.9011 -1.6270  0.2540
 9231TIP3    H249185   0.069   0.176  14.852 -0.9035 -1.6392  1.7171
 9232TIP3   OH249186   6.689   4.217   1.451 -0.1120  0.1901  0.1860
 9232TIP3    H149187   6.655   4.130   1.472 -1.0960  0.5562  0.1649
 9232TIP3    H249188   6.708   4.214   1.357 -1.4497  0.4055 -0.1096
 9233TIP3   OH249189   5.080   5.748   2.701  0.1099  0.2874  0.3590
 9233TIP3    H149190   5.065   5.753   2.796 -0.7023  1.4939  0.1771
 9233TIP3    H249191   5.152   5.808   2.685  0.0170  0.3452  0.1612
 9234TIP3   OH249192   3.654   3.437   6.241 -0.2835  0.0771  0.1491
 9234TIP3    H149193   3.684   3.402   6.325  1.4293 -0.4341 -0.6343
 9234TIP3    H249194   3.590   3.373   6.209 -1.8605  0.8636  1.5547
 9235TIP3   OH249195   4.733   5.997  12.678 -0.3335 -0.2791  0.6097
 9235TIP3    H149196   4.792   5.923  12.686  0.5162 -0.0786 -2.4003
 9235TIP3    H249197   4.715   6.024  12.768 -0.8529 -4.1813  1.8485
 9236TIP3   OH249198   1.956   2.439   5.735 -0.3179 -0.4825  0.7414
 9236TIP3    H149199   1.930   2.529   5.718 -0.0922 -0.2748  1.4724
 9236TIP3    H249200   1.952   2.430   5.831  0.9534 -0.8537  0.7740
 9237TIP3   OH249201   0.117   6.525  11.129 -0.0643 -0.1771 -0.0001
 9237TIP3    H149202   0.103   6.611  11.168 -0.4993 -0.1440 -0.2177
 9237TIP3    H249203   0.065   6.527  11.049  2.8652  0.7553 -2.0800
 9238TIP3   OH249204   4.345   1.800   4.655 -0.0427 -0.3062  0.5743
 9238TIP3    H149205   4.327   1.888   4.622  2.1326  1.2175  2.9912
 9238TIP3    H249206   4.290   1.793   4.734  1.3477 -0.1673  1.5997
 9239TIP3   OH249207   1.415   3.893  14.166 -0.0816 -0.7197 -0.3556
 9239TIP3    H149208   1.453   3.957  14.226  0.0581  0.0742 -1.2557
 9239TIP3    H249209   1.335   3.935  14.134 -2.5777 -2.8523  2.4633
 9240TIP3   OH249210   4.465   3.068   3.354  0.0467 -0.2515 -0.0223
 9240TIP3    H149211   4.504   3.027   3.432 -2.2748 -1.0130  0.8261
 9240TIP3    H249212   4.500   3.157   3.353 -0.6308  0.1171  2.5294
 9241TIP3   OH249213   6.787   2.987  10.898  0.4579 -0.1897  0.1558
 9241TIP3    H149214   6.799   3.038  10.818 -0.1581 -0.5274 -0.1583
 9241TIP3    H249215   6.875   2.964  10.926  0.7379  0.8097  0.1541
 9242TIP3   OH249216   2.970   0.153  15.579  0.0619 -0.3306  0.4726
 9242TIP3    H149217   3.025   0.227  15.605  0.2793 -1.1720  2.5771
 9242TIP3    H249218   2.883   0.191  15.569  0.5851  0.6111 -0.7625
 9243TIP3   OH249219   0.836   6.140  12.338  0.1096 -0.0190 -0.1946
 9243TIP3    H149220   0.800   6.216  12.292  1.2330 -0.0916 -1.2225
 9243TIP3    H249221   0.795   6.143  12.424 -1.6793  0.3949 -1.0099
 9244TIP3   OH249222   5.685   5.253   5.981  0.2209 -0.2160  0.2149
 9244TIP3    H149223   5.689   5.334   5.931  1.4874  0.1418  0.8451
 9244TIP3    H249224   5.729   5.274   6.064 -1.7292 -0.8087  1.4684
 9245TIP3   OH249225   3.278   0.749  11.659 -0.6079 -0.2612 -0.1308
 9245TIP3    H149226   3.296   0.717  11.571  1.9501  0.5958 -0.0133
 9245TIP3    H249227   3.237   0.675  11.704 -0.0797 -1.4012 -1.4749
 9246TIP3   OH249228   0.450   5.226  12.029 -0.2433  0.1937  0.5214
 9246TIP3    H149229   0.527   5.201  12.079  0.4752  0.2328 -0.5376
 9246TIP3    H249230   0.389   5.260  12.095  0.8288  0.6459  1.3148
 9247TIP3   OH249231   3.475   0.965   5.848 -0.1477  0.1988 -0.0807
 9247TIP3    H149232   3.425   0.958   5.767 -1.4472 -1.3183  0.7997
 9247TIP3    H249233   3.410   0.980   5.915  0.7424 -0.1424  0.8871
 9248TIP3   OH249234   5.158   6.447   5.586 -0.5038  0.3979 -0.5232
 9248TIP3    H149235   5.241   6.437   5.539  0.1176  0.1074  0.6097
 9248TIP3    H249236   5.151   6.368   5.639 -2.5148 -0.5759 -2.0799
 9249TIP3   OH249237   0.748   5.392   5.306  0.0847 -0.1113  0.1133
 9249TIP3    H149238   0.768   5.306   5.343 -0.1586  0.9862  3.1155
 9249TIP3    H249239   0.672   5.422   5.357 -0.4672  1.4772 -1.5467
 9250TIP3   OH249240   4.065   3.246   2.577  0.5231 -0.3949 -0.6838
 9250TIP3    H149241   4.057   3.302   2.500  1.4204 -2.3275 -2.2462
 9250TIP3    H249242   4.035   3.301   2.649 -0.2121  1.5265 -2.3657
 9251TIP3   OH249243   2.493   5.026  13.811 -0.0368  0.3553  0.1324
 9251TIP3    H149244   2.557   4.989  13.872  0.3027 -1.5422 -1.2898
 9251TIP3    H249245   2.409   4.992  13.841  0.1779 -0.9374 -0.6480
 9252TIP3   OH249246   3.279   6.374  10.753  0.2455  0.1565  0.4746
 9252TIP3    H149247   3.371   6.363  10.730 -0.1133 -0.7752 -0.6177
 9252TIP3    H249248   3.252   6.289  10.786 -0.8289 -0.3748 -1.5786
 9253TIP3   OH249249   1.708   2.738   1.410 -0.0652 -0.3368 -0.1787
 9253TIP3    H149250   1.707   2.654   1.365 -0.3222 -1.8138  2.3930
 9253TIP3    H249251   1.646   2.728   1.482 -0.2812  2.1603  0.0716
 9254TIP3   OH249252   3.711   0.820   5.829  0.6034  0.1493 -0.3018
 9254TIP3    H149253   3.667   0.759   5.889 -0.3671  0.0237 -1.1108
 9254TIP3    H249254   3.654   0.897   5.828 -0.0650 -0.3334 -1.9898
 9255TIP3   OH249255   6.503   3.990   1.447  0.2914 -0.7998 -0.3554
 9255TIP3    H149256   6.477   3.918   1.504 -0.1174  0.3330  0.9506
 9255TIP3    H249257   6.434   3.995   1.381  0.5135 -1.8199 -0.6843
 9256TIP3   OH249258   2.973   0.509   5.240  0.1372  0.2147  0.3197
 9256TIP3    H149259   3.004   0.596   5.266  0.5010  0.6613 -1.4793
 9256TIP3    H249260   2.890   0.499   5.287 -0.5172  2.0637 -0.3276
 9257TIP3   OH249261   4.437   1.176   6.450 -0.0161  0.0141 -0.1773
 9257TIP3    H149262   4.501   1.110   6.476  1.9731  1.9081 -0.0257
 9257TIP3    H249263   4.406   1.213   6.533  1.4076  1.5313 -0.2773
 9258TIP3   OH249264   6.758   1.399  15.178  0.3622 -0.1309  0.4262
 9258TIP3    H149265   6.756   1.311  15.140 -1.7778 -0.1222  0.3911
 9258TIP3    H249266   6.812   1.450  15.117  0.5663 -1.1164 -0.2416
 9259TIP3   OH249267   2.262   0.791  13.071 -0.5443  0.2386  0.1554
 9259TIP3    H149268   2.281   0.747  13.154 -1.8495 -0.5408  0.0762
 9259TIP3    H249269   2.188   0.742  13.035 -0.2736  0.8431 -1.2628
 9260TIP3   OH249270   2.563   4.291  16.863  0.0979 -0.3056  0.4659
 9260TIP3    H149271   2.540   4.206  16.827 -0.9365 -0.2097  0.8715
 9260TIP3    H249272   2.654   4.304  16.837  0.2103 -1.4412  0.2409
 9261TIP3   OH249273   2.462   0.682   2.888  0.0229  0.0318  0.2937
 9261TIP3    H149274   2.531   0.665   2.824  0.2270  0.6636  0.3366
 9261TIP3    H249275   2.471   0.775   2.908 -0.7568  0.0881  0.4015
 9262TIP3   OH249276   1.041   3.493  13.219 -0.1062  0.4204 -0.1127
 9262TIP3    H149277   1.123   3.456  13.251  0.4197  1.5075 -0.1574
 9262TIP3    H249278   1.023   3.445  13.138  1.5586  1.4789 -1.1892
 9263TIP3   OH249279   3.662   0.494  16.880 -0.2888 -0.9648 -0.7867
 9263TIP3    H149280   3.585   0.544  16.854  0.9882  1.4067 -0.2498
 9263TIP3    H249281   3.669   0.508  16.974  2.4262  1.4769 -1.2145
 9264TIP3   OH249282   0.981   1.057   6.290  0.0736  0.6514  0.1660
 9264TIP3    H149283   0.964   0.971   6.252  0.3573  0.7528 -0.2007
 9264TIP3    H249284   0.900   1.105   6.278  0.1029  0.6249 -0.1622
 9265TIP3   OH249285   2.125   0.821   0.225  0.0202  0.3235  0.3785
 9265TIP3    H149286   2.034   0.842   0.247 -0.0816  1.0869 -0.6916
 9265TIP3    H249287   2.175   0.895   0.257 -0.0270  1.0140 -1.0531
 9266TIP3   OH249288   4.659   6.682   5.322  0.1444  0.2344  0.2337
 9266TIP3    H149289   4.572   6.724   5.320 -0.1588 -0.3303  1.1248
 9266TIP3    H249290   4.720   6.755   5.323 -0.3215  0.6448 -0.3260
 9267TIP3   OH249291   1.389   6.045  12.831  0.5675  0.1572  0.6360
 9267TIP3    H149292   1.305   6.000  12.843  0.8767 -0.8360 -0.6634
 9267TIP3    H249293   1.403   6.044  12.737  1.6148  1.1439  0.7644
 9268TIP3   OH249294   3.500   6.800   5.690  1.0535 -0.2327 -0.6464
 9268TIP3    H149295   3.437   6.860   5.732 -0.5565 -1.9129 -0.4938
 9268TIP3    H249296   3.551   6.765   5.763  3.0517  1.9876 -0.8786
 9269TIP3   OH249297   4.828   3.921  17.232  0.5243  0.4358 -0.3721
 9269TIP3    H149298   4.895   3.853  17.243  0.0942 -0.0168 -0.5129
 9269TIP3    H249299   4.844   3.957  17.145 -0.2319 -0.5831 -0.9494
 9270TIP3   OH249300   4.454   1.625  13.220 -0.4424  0.0301  0.3509
 9270TIP3    H149301   4.375   1.677  13.206 -1.0887 -1.0034  0.1063
 9270TIP3    H249302   4.480   1.597  13.133 -1.9196 -2.6697  0.6722
 9271TIP3   OH249303   3.386   6.130  10.525  0.1890  0.1682  0.2250
 9271TIP3    H149304   3.437   6.051  10.540  0.7329 -0.0083 -2.1035
 9271TIP3    H249305   3.320   6.131  10.595  0.8447 -1.7442  0.9154
 9272TIP3   OH249306   2.091   3.411  11.115  0.0520 -0.3211  0.0896
 9272TIP3    H149307   2.039   3.489  11.093 -1.1733 -0.9343  0.6914
 9272TIP3    H249308   2.151   3.440  11.183 -0.5606  0.0538  0.4782
 9273TIP3   OH249309   0.739   6.590  14.713 -0.2207  0.1931  0.2265
 9273TIP3    H149310   0.819   6.606  14.662 -0.2442 -1.4853 -0.3901
 9273TIP3    H249311   0.762   6.519  14.772 -0.8009  0.7884  1.1938
 9274TIP3   OH249312   6.534   6.053   6.324  0.3604 -0.4529  0.0510
 9274TIP3    H149313   6.557   5.976   6.375 -1.3651 -0.5939  0.7102
 9274TIP3    H249314   6.616   6.101   6.313  1.4247 -2.2609 -0.2161
 9275TIP3   OH249315   5.857   3.810  13.134 -0.4006  0.6126 -0.1875
 9275TIP3    H149316   5.917   3.884  13.119  0.3314  0.0650 -0.0330
 9275TIP3    H249317   5.910   3.733  13.115 -1.4893  0.1381 -1.4908
 9276TIP3   OH249318   1.788   5.824   1.642  0.1392 -0.1605  0.2690
 9276TIP3    H149319   1.784   5.864   1.555  0.2959  1.7265  1.0933
 9276TIP3    H249320   1.726   5.751   1.637 -1.5084  1.2231 -0.7929
 9277TIP3   OH249321   4.461   4.617  13.240  0.4150  0.2795  0.1350
 9277TIP3    H149322   4.369   4.625  13.213  0.7631  0.1423 -1.1721
 9277TIP3    H249323   4.476   4.523  13.246  0.6930  0.2861 -0.4625
 9278TIP3   OH249324   5.298   2.013   1.234 -0.1646  0.2029 -0.2121
 9278TIP3    H149325   5.317   1.949   1.303  0.1840 -0.0121 -0.5024
 9278TIP3    H249326   5.368   2.078   1.243 -3.3704  3.6406  3.6636
 9279TIP3   OH249327   6.251   6.309   2.940 -0.2787 -0.0276  0.1006
 9279TIP3    H149328   6.203   6.328   3.021 -0.1570  1.5323 -0.1711
 9279TIP3    H249329   6.198   6.242   2.897 -1.6219  0.8063  0.3692
 9280TIP3   OH249330   1.384   4.537  13.666  0.3303  0.8077  0.1137
 9280TIP3    H149331   1.290   4.522  13.659  0.6647 -1.0270 -0.8943
 9280TIP3    H249332   1.412   4.557  13.577  0.8849  1.5228  0.4340
 9281TIP3   OH249333   4.524   0.062   4.932 -0.1240 -0.6998  0.2445
 9281TIP3    H149334   4.524  -0.009   4.997 -0.0108 -0.9548 -0.0306
 9281TIP3    H249335   4.535   0.017   4.848 -1.4144 -0.4719 -0.0662
 9282TIP3   OH249336   4.529   1.884  13.267  0.3982 -0.2270 -0.1026
 9282TIP3    H149337   4.559   1.915  13.353  0.8640  1.0813 -0.7118
 9282TIP3    H249338   4.515   1.790  13.280 -2.4144  0.3554  2.2311
 9283TIP3   OH249339   5.258   6.151   0.412  0.7125 -0.1745  0.3645
 9283TIP3    H149340   5.335   6.133   0.465 -0.1567  0.7935  2.0594
 9283TIP3    H249341   5.186   6.152   0.475 -0.5215  0.0673 -0.9970
 9284TIP3   OH249342   4.884   4.289  13.716 -0.1786 -0.0691 -0.0997
 9284TIP3    H149343   4.966   4.326  13.747 -0.7672  2.9794 -1.7378
 9284TIP3    H249344   4.828   4.365  13.699 -1.5308 -1.6467 -3.9045
 9285TIP3   OH249345   5.725   3.738   3.005 -0.1356  0.0894 -0.3298
 9285TIP3    H149346   5.802   3.732   2.949  0.7452  0.6059  0.7815
 9285TIP3    H249347   5.695   3.647   3.014  0.5867 -0.1717 -0.4622
 9286TIP3   OH249348   6.458   6.366   1.824  0.5786 -0.2767  0.0610
 9286TIP3    H149349   6.431   6.368   1.732 -1.7778 -1.8668  0.6350
 9286TIP3    H249350   6.414   6.441   1.864 -0.2928 -0.9062  0.3153
 9287TIP3   OH249351   4.625   1.808  12.840  0.0898 -0.1371  0.3081
 9287TIP3    H149352   4.654   1.898  12.855 -0.0816 -0.0447  0.0951
 9287TIP3    H249353   4.571   1.786  12.916  0.1990 -0.0891  0.4001
 9288TIP3   OH249354   5.910   6.051  13.072  0.3607  0.6597  0.2389
 9288TIP3    H149355   6.005   6.044  13.075  0.3165 -0.3762 -0.1874
 9288TIP3    H249356   5.885   6.001  12.994 -0.5573  0.5804  0.5706
 9289TIP3   OH249357   3.312   1.472   6.347  0.5163  0.2621 -0.1997
 9289TIP3    H149358   3.249   1.431   6.407  2.0395  1.0399  2.0758
 9289TIP3    H249359   3.292   1.434   6.262 -2.3452 -0.2595  0.5906
 9290TIP3   OH249360   1.275   0.749  16.958 -0.2622 -0.7498 -0.0796
 9290TIP3    H149361   1.321   0.684  17.012  0.5012  0.1349  0.3488
 9290TIP3    H249362   1.327   0.757  16.879 -0.3669 -0.6736 -0.1416
 9291TIP3   OH249363   6.508   5.761  11.095  0.2760 -0.2277 -0.1781
 9291TIP3    H149364   6.447   5.780  11.025  0.9907  0.9483 -0.5118
 9291TIP3    H249365   6.454   5.759  11.174 -0.3999 -0.6918 -0.6389
 9292TIP3   OH249366   5.364   4.894  16.128 -0.4176  0.0884  0.2092
 9292TIP3    H149367   5.442   4.905  16.073  0.1347 -0.7846  0.7844
 9292TIP3    H249368   5.326   4.982  16.134  0.7512  0.6115  0.2427
 9293TIP3   OH249369   3.220   4.824   5.765  0.3250 -0.7473  0.0085
 9293TIP3    H149370   3.245   4.863   5.681  0.6592 -1.8866 -0.4429
 9293TIP3    H249371   3.253   4.886   5.831 -0.6711  0.5833 -0.6883
 9294TIP3   OH249372   6.656   1.339   5.129  0.0402 -0.4511 -0.0881
 9294TIP3    H149373   6.617   1.291   5.057  1.1241  0.4991 -1.3570
 9294TIP3    H249374   6.630   1.430   5.115  4.4022  0.7249 -2.4361
 9295TIP3   OH249375   5.836   4.467  11.538 -0.3622  0.2061 -0.7379
 9295TIP3    H149376   5.914   4.415  11.516 -0.4918 -0.9994  1.2821
 9295TIP3    H249377   5.771   4.401  11.562 -1.2694  1.2690 -0.2350
 9296TIP3   OH249378   3.723   6.571  15.316 -0.0899 -0.1877 -0.3523
 9296TIP3    H149379   3.682   6.650  15.351  0.0417  0.5514 -1.7788
 9296TIP3    H249380   3.657   6.503  15.327  0.0102 -0.0585  1.4354
 9297TIP3   OH249381   1.682   4.851  16.958 -0.3090 -0.9092 -0.1451
 9297TIP3    H149382   1.763   4.869  16.911  1.1741 -2.6409  1.5844
 9297TIP3    H249383   1.650   4.769  16.920 -0.4010 -1.0461  0.2237
 9298TIP3   OH249384   5.452   5.666   6.169  0.5493 -0.0944 -0.0147
 9298TIP3    H149385   5.399   5.634   6.242 -0.1855  1.3991  0.1645
 9298TIP3    H249386   5.541   5.668   6.203  0.6480 -1.9882 -0.0858
 9299TIP3   OH249387   3.902   3.940   1.620  0.2791  1.0124 -0.7611
 9299TIP3    H149388   3.988   3.982   1.616 -0.5583  2.6940 -2.4853
 9299TIP3    H249389   3.862   3.974   1.700  1.5303 -0.5260  0.5741
 9300TIP3   OH249390   4.704   3.226  15.808 -0.1454 -0.0371 -0.2288
 9300TIP3    H149391   4.791   3.245  15.843 -0.1848 -0.4970  0.1312
 9300TIP3    H249392   4.688   3.295  15.744  1.1155 -0.8050 -1.4284
 9301TIP3   OH249393   0.693   4.525  17.079  0.1083  0.6688  0.1192
 9301TIP3    H149394   0.757   4.468  17.122  0.3532  0.0535 -1.0344
 9301TIP3    H249395   0.639   4.465  17.028 -1.4549  1.1636  1.1057
 9302TIP3   OH249396   2.988   3.085   0.470  0.1258  0.3517  0.0546
 9302TIP3    H149397   3.055   3.096   0.402  2.5985 -1.8094  1.9238
 9302TIP3    H249398   2.976   2.990   0.476 -1.4849  0.6042  1.3272
 9303TIP3   OH249399   0.358   4.515   3.510 -0.5040  0.2845 -0.2884
 9303TIP3    H149400   0.441   4.538   3.553  0.3664  1.6133 -2.5334
 9303TIP3    H249401   0.300   4.589   3.529 -1.2543 -0.6467  1.2846
 9304TIP3   OH249402   6.400   4.455   4.396 -0.2675 -0.0378 -0.0644
 9304TIP3    H149403   6.471   4.392   4.406  1.7284  2.1105  0.2394
 9304TIP3    H249404   6.390   4.465   4.301 -0.5964 -0.7920 -0.1125
 9305TIP3   OH249405   3.929   6.769  12.917  0.2167 -0.1804 -0.1215
 9305TIP3    H149406   3.942   6.798  12.827 -0.6006 -0.9713 -0.5165
 9305TIP3    H249407   3.836   6.785  12.934  0.5336  0.7011  0.8658
 9306TIP3   OH249408   2.414   5.046   1.465 -0.4973 -0.3527 -0.2680
 9306TIP3    H149409   2.376   5.105   1.530  0.4803  1.1436 -0.9847
 9306TIP3    H249410   2.462   4.981   1.516 -2.0706 -0.9003  0.5627
 9307TIP3   OH249411   2.910   5.750  11.725 -0.6337 -0.1470  0.8692
 9307TIP3    H149412   2.965   5.694  11.671 -0.5722  0.9981 -0.3083
 9307TIP3    H249413   2.942   5.839  11.708 -2.9476  0.5809 -0.0040
 9308TIP3   OH249414   2.811   5.838  14.741  0.3832  0.1750  0.1569
 9308TIP3    H149415   2.769   5.763  14.783  0.2561 -0.3503 -0.8777
 9308TIP3    H249416   2.738   5.892  14.712  0.4323 -0.1229 -0.5428
 9309TIP3   OH249417   1.176   2.877   4.510 -0.1761 -0.3377 -0.6125
 9309TIP3    H149418   1.153   2.872   4.603 -0.1725 -3.8492 -0.6495
 9309TIP3    H249419   1.246   2.941   4.506 -2.1094  2.1094  1.2787
 9310TIP3   OH249420   3.283   4.826  13.409  0.5316  0.5968 -0.4837
 9310TIP3    H149421   3.256   4.836  13.318 -1.0058 -0.1494 -0.1463
 9310TIP3    H249422   3.341   4.749  13.408 -0.5174 -0.2152 -0.6608
 9311TIP3   OH249423   2.085   5.082  10.393  0.1714 -0.0545  0.2434
 9311TIP3    H149424   2.044   5.020  10.453  1.3144  0.4892  1.6526
 9311TIP3    H249425   2.033   5.075  10.313 -1.3879 -0.8429  1.2567
 9312TIP3   OH249426   5.620   3.203   0.201 -0.4552 -0.0547  0.0663
 9312TIP3    H149427   5.617   3.118   0.245  0.8594  0.1341  0.5658
 9312TIP3    H249428   5.679   3.190   0.127 -0.5247  0.3268 -0.0607
 9313TIP3   OH249429   3.433   0.672  10.758  0.2263  0.2602  0.1947
 9313TIP3    H149430   3.466   0.601  10.815 -1.8197 -0.7921  0.1616
 9313TIP3    H249431   3.450   0.752  10.808  2.5397 -0.2139  0.2648
 9314TIP3   OH249432   4.197   4.893   4.911  0.1168 -0.1786  0.1732
 9314TIP3    H149433   4.134   4.867   4.844 -0.4363 -1.4297  1.1448
 9314TIP3    H249434   4.209   4.987   4.897 -2.4029  0.2209  0.2950
 9315TIP3   OH249435   4.931   6.403  14.348 -0.5263 -0.1036  0.3716
 9315TIP3    H149436   4.931   6.400  14.443  0.4145 -0.5945  0.3642
 9315TIP3    H249437   4.973   6.486  14.326 -0.8198  0.0485  0.3879
 9316TIP3   OH249438   6.082   2.176  13.354 -0.1286 -0.3929  0.2355
 9316TIP3    H149439   6.077   2.216  13.441 -1.0806 -1.6127  0.7805
 9316TIP3    H249440   6.041   2.090  13.365 -0.8386 -0.3379 -1.5564
 9317TIP3   OH249441   3.104   1.689   5.271  0.8043 -0.2511 -0.5846
 9317TIP3    H149442   3.151   1.717   5.192  2.5382 -1.4278 -0.0454
 9317TIP3    H249443   3.101   1.767   5.326  0.1857  0.4015 -1.5192
 9318TIP3   OH249444   5.127   0.214   5.697  0.8594  0.1537 -0.2620
 9318TIP3    H149445   5.073   0.288   5.671  0.8474  0.8808  1.6350
 9318TIP3    H249446   5.205   0.253   5.736  2.0840 -0.8811 -1.5840
 9319TIP3   OH249447   5.986   6.720  11.210 -0.0753  0.6882  0.2423
 9319TIP3    H149448   6.003   6.812  11.229  0.0978  0.6732  0.1619
 9319TIP3    H249449   6.010   6.710  11.118  2.8545 -0.1359  1.0168
 9320TIP3   OH249450   5.747   6.491  14.434  0.2629 -0.2837  0.9185
 9320TIP3    H149451   5.793   6.567  14.397  0.5163 -0.7104  0.3277
 9320TIP3    H249452   5.678   6.473  14.371  0.4026 -0.7354  0.8964
 9321TIP3   OH249453   5.422   5.450   5.157 -0.1282  0.2316 -0.2995
 9321TIP3    H149454   5.468   5.455   5.074 -1.3000 -1.6264 -1.1301
 9321TIP3    H249455   5.341   5.403   5.137 -2.7529  3.7867  0.9321
 9322TIP3   OH249456   2.941   5.990   0.782  0.0267  0.6347  0.3897
 9322TIP3    H149457   2.874   5.990   0.850 -0.0975 -0.3689  0.2871
 9322TIP3    H249458   2.893   6.003   0.700  0.2826  2.9803  0.5368
 9323TIP3   OH249459   4.087   1.606  16.400 -0.2304 -0.0301  0.0655
 9323TIP3    H149460   4.078   1.532  16.340 -0.2772 -0.0892  0.1458
 9323TIP3    H249461   4.154   1.578  16.462  0.7850  0.5480 -0.7401
 9324TIP3   OH249462   0.632   5.183  11.508 -0.2999 -0.2105  0.3898
 9324TIP3    H149463   0.609   5.172  11.600 -1.8179 -0.2466  0.0295
 9324TIP3    H249464   0.609   5.100  11.467 -1.6097  0.4837 -0.3694
 9325TIP3   OH249465   1.119   2.462  12.274  0.7222  0.3778 -0.0083
 9325TIP3    H149466   1.198   2.486  12.225  0.7286  1.0388  0.3114
 9325TIP3    H249467   1.100   2.539  12.327  0.7029 -0.3152  1.0176
 9326TIP3   OH249468   3.844   1.798  12.729 -0.2427  0.7265 -0.2957
 9326TIP3    H149469   3.925   1.758  12.760  0.7894  1.9910 -1.2877
 9326TIP3    H249470   3.777   1.733  12.750  1.0025 -0.3539  0.5361
 9327TIP3   OH249471   0.831   1.495  12.679  0.2811  0.2534  0.2388
 9327TIP3    H149472   0.924   1.515  12.691  0.2852  0.8719 -0.7019
 9327TIP3    H249473   0.792   1.578  12.650 -0.4974 -0.0864  0.2782
 9328TIP3   OH249474   1.133   2.205   5.068  0.1086  0.9517 -0.3437
 9328TIP3    H149475   1.102   2.290   5.037  0.7101  0.3894 -2.6417
 9328TIP3    H249476   1.221   2.196   5.032  1.8691  1.1387  3.4228
 9329TIP3   OH249477   0.030   1.919   3.473  0.1622  0.4326 -0.6692
 9329TIP3    H149478  -0.021   1.848   3.512 -0.4900  1.6093  0.7178
 9329TIP3    H249479   0.064   1.882   3.392 -0.7209 -1.2354 -0.3297
 9330TIP3   OH249480   5.687   2.137  13.496  0.1130  0.2608  0.4089
 9330TIP3    H149481   5.718   2.145  13.586 -0.4528  0.8394  0.5679
 9330TIP3    H249482   5.751   2.081  13.452 -0.0596 -0.7322  1.3860
 9331TIP3   OH249483   6.084   4.158   5.331 -0.2342  0.0214  0.0981
 9331TIP3    H149484   6.065   4.103   5.408  0.2857  0.6151  0.6660
 9331TIP3    H249485   6.010   4.143   5.272 -1.6014  0.9025  1.4870
 9332TIP3   OH249486   3.028   4.944   4.066 -0.3878  0.2292  0.5204
 9332TIP3    H149487   2.939   4.932   4.033 -0.0291  0.7098 -0.6623
 9332TIP3    H249488   3.069   5.004   4.004  1.0788 -0.7694  0.4757
 9333TIP3   OH249489   5.830   4.306   4.427  0.4769 -0.2802  0.1800
 9333TIP3    H149490   5.771   4.373   4.461 -0.4221 -1.1937  0.4767
 9333TIP3    H249491   5.862   4.343   4.344 -1.7392 -0.3649 -0.8060
 9334TIP3   OH249492   1.321   2.599  15.935  0.2110  0.4958 -0.1542
 9334TIP3    H149493   1.398   2.639  15.976  0.6220 -1.0663  0.6826
 9334TIP3    H249494   1.271   2.563  16.009 -0.1566 -0.4683 -0.8502
 9335TIP3   OH249495   5.354   5.050   0.989  0.5065 -0.1125  0.0818
 9335TIP3    H149496   5.441   5.086   0.971  0.0693  0.7681 -0.3378
 9335TIP3    H249497   5.336   5.073   1.080 -1.9086  5.6513 -1.3903
 9336TIP3   OH249498   1.093   2.885  10.663  0.2519  0.0525  0.2128
 9336TIP3    H149499   1.083   2.980  10.662 -2.2161 -0.1439  0.8475
 9336TIP3    H249500   1.111   2.862  10.572 -4.4008  0.7804 -1.1577
 9337TIP3   OH249501   0.355   5.472  11.699 -0.4079  0.6266  0.5671
 9337TIP3    H149502   0.314   5.452  11.783  0.2937 -0.3687  0.6968
 9337TIP3    H249503   0.447   5.449  11.712 -0.5294 -0.8477 -0.8580
 9338TIP3   OH249504   1.179   0.539   0.795 -0.2031  0.0139 -0.2103
 9338TIP3    H149505   1.150   0.623   0.758  0.4332  0.2151 -0.2595
 9338TIP3    H249506   1.249   0.562   0.856 -0.7159 -0.3887  0.5556
 9339TIP3   OH249507   0.689   6.569  17.314 -0.2103  0.8560 -0.0054
 9339TIP3    H149508   0.634   6.619  17.254  0.5313  0.8636 -0.6949
 9339TIP3    H249509   0.637   6.492  17.336 -0.9062  1.3702  0.1740
 9340TIP3   OH249510   6.528   5.202  12.083  0.2983 -0.1361  0.4064
 9340TIP3    H149511   6.434   5.188  12.089  0.4972 -2.9295 -1.1279
 9340TIP3    H249512   6.546   5.275  12.142 -2.8663  0.8333  0.3213
 9341TIP3   OH249513   6.583   5.245  11.483  0.5163  0.4231  0.3569
 9341TIP3    H149514   6.615   5.233  11.394 -1.0465  1.6385 -0.3987
 9341TIP3    H249515   6.544   5.332  11.484 -0.0721  0.1870  2.0594
 9342TIP3   OH249516   0.900   3.525  12.299  0.0127  0.0040  0.0482
 9342TIP3    H149517   0.986   3.558  12.271 -0.3449 -0.0786 -1.2002
 9342TIP3    H249518   0.904   3.527  12.394  1.4985 -0.2393  0.0148
 9343TIP3   OH249519   2.894   3.891   2.548 -0.2210 -0.0271 -0.0501
 9343TIP3    H149520   2.942   3.935   2.479  0.2633  0.6085  0.6705
 9343TIP3    H249521   2.814   3.859   2.506  0.7583 -1.0197 -1.2462
 9344TIP3   OH249522   1.846   4.172  15.859  0.1534  0.4892  0.1454
 9344TIP3    H149523   1.850   4.254  15.809  2.7139 -0.7133 -1.8582
 9344TIP3    H249524   1.911   4.116  15.818  0.7582 -1.4742  3.4450
 9345TIP3   OH249525   0.419   1.962   1.906 -0.2352 -0.6482 -0.1049
 9345TIP3    H149526   0.449   1.968   1.996 -1.0587  1.5719  0.0831
 9345TIP3    H249527   0.327   1.936   1.912 -1.8313  4.0787  0.1639
 9346TIP3   OH249528   0.762   4.313  14.173  0.3816  0.2085  0.0643
 9346TIP3    H149529   0.742   4.312  14.267  2.1131  2.3244  0.5389
 9346TIP3    H249530   0.711   4.240  14.137 -2.2636  0.8204  2.2292
 9347TIP3   OH249531   4.581   1.005   3.678 -0.1336 -0.2389 -0.7119
 9347TIP3    H149532   4.620   0.919   3.661  0.1340 -0.6634  1.6059
 9347TIP3    H249533   4.656   1.063   3.694 -0.3165  0.4398 -2.1488
 9348TIP3   OH249534   4.620   4.378   2.860  0.2323 -0.2152 -0.2193
 9348TIP3    H149535   4.584   4.463   2.886 -1.3126 -0.7398 -0.5498
 9348TIP3    H249536   4.654   4.340   2.941 -1.6952 -0.4968  0.5121
 9349TIP3   OH249537   5.359   3.151  15.763 -0.0975  0.2270  0.1809
 9349TIP3    H149538   5.327   3.127  15.850  0.3414  0.5688  0.4414
 9349TIP3    H249539   5.280   3.178  15.715 -0.1328  1.9074  1.0927
 9350TIP3   OH249540   0.686   2.403   2.755 -0.3554  0.5924  0.8368
 9350TIP3    H149541   0.751   2.333   2.756  0.4617  1.3059  0.0148
 9350TIP3    H249542   0.613   2.368   2.703 -0.5841 -0.1673  1.6603
 9351TIP3   OH249543   2.877   2.276   2.729 -0.1326  0.6246  0.0913
 9351TIP3    H149544   2.814   2.335   2.772 -0.9694  1.4952 -2.1387
 9351TIP3    H249545   2.955   2.330   2.716 -0.5491  1.0002 -1.0606
 9352TIP3   OH249546   4.703   1.951  15.606  0.0987 -0.1472  0.5060
 9352TIP3    H149547   4.742   2.013  15.544  1.4349  0.1702  1.6133
 9352TIP3    H249548   4.617   1.988  15.626  0.3584  0.6618  0.1614
 9353TIP3   OH249549   3.338   5.840  13.896 -0.6465  0.8078  0.4573
 9353TIP3    H149550   3.307   5.803  13.813  0.3019  0.0749  0.4197
 9353TIP3    H249551   3.299   5.927  13.899  0.4949  1.4535 -1.4823
 9354TIP3   OH249552   6.556   3.107   2.261 -0.5239  0.4646  0.1203
 9354TIP3    H149553   6.631   3.136   2.314  0.8635 -3.5229  0.6987
 9354TIP3    H249554   6.589   3.104   2.171 -0.2439 -0.3580  0.2386
 9355TIP3   OH249555   1.153   3.742  11.724  0.3357  0.6232  0.0687
 9355TIP3    H149556   1.071   3.762  11.677  0.5753  3.2499  0.5847
 9355TIP3    H249557   1.125   3.697  11.803 -0.4834  0.3047 -0.3836
 9356TIP3   OH249558   0.733   4.176  16.065 -0.6342  0.1333  0.0653
 9356TIP3    H149559   0.725   4.221  16.149  1.0524  0.1797  0.2386
 9356TIP3    H249560   0.647   4.184  16.025 -1.1871  0.9745  1.3572
 9357TIP3   OH249561   3.561   1.799  11.742  0.1968 -0.3007 -0.2007
 9357TIP3    H149562   3.601   1.844  11.817  0.2085 -0.3338 -0.1871
 9357TIP3    H249563   3.592   1.849  11.666 -0.2390  0.0541 -0.1499
 9358TIP3   OH249564   1.364   4.629   0.813 -0.0443 -0.4092 -0.0442
 9358TIP3    H149565   1.371   4.589   0.726  0.4807 -0.4941  0.0377
 9358TIP3    H249566   1.453   4.655   0.835 -0.1582 -0.4829  0.5138
 9359TIP3   OH249567   5.484   5.766   4.458  0.4494 -0.2869  0.1453
 9359TIP3    H149568   5.522   5.790   4.374 -0.3761 -1.3218 -0.5413
 9359TIP3    H249569   5.469   5.672   4.452  1.8205 -0.7016  2.0469
 9360TIP3   OH249570   3.212   3.440  14.198 -0.3643  0.0195  0.0960
 9360TIP3    H149571   3.164   3.359  14.212 -0.9948  0.4517  0.5185
 9360TIP3    H249572   3.147   3.509  14.212 -0.6563  0.5821 -3.1909
 9361TIP3   OH249573   5.156   6.602  13.900 -0.7888 -0.3744 -0.3482
 9361TIP3    H149574   5.192   6.525  13.944 -1.3360 -0.4641 -0.0518
 9361TIP3    H249575   5.065   6.608  13.931 -0.6568  0.5864 -0.1114
 9362TIP3   OH249576   0.564   0.426   0.193 -0.8851 -0.4941  0.1669
 9362TIP3    H149577   0.512   0.391   0.266 -0.6488  0.9632  1.0635
 9362TIP3    H249578   0.621   0.354   0.168 -1.5710 -1.2988  0.8436
 9363TIP3   OH249579   0.060   4.857   3.396  0.1319 -0.0345 -0.1606
 9363TIP3    H149580   0.001   4.901   3.458  0.3838 -0.6259  0.5084
 9363TIP3    H249581   0.044   4.901   3.312 -0.8101  0.2277  0.1453
 9364TIP3   OH249582   2.941   3.190   3.879  0.5477 -0.4031 -0.2368
 9364TIP3    H149583   2.848   3.185   3.900  0.4923  2.2999  0.4934
 9364TIP3    H249584   2.977   3.255   3.939  2.4935  0.0755 -1.7782
 9365TIP3   OH249585   5.440   5.421   1.346 -0.9332  0.5717 -0.1515
 9365TIP3    H149586   5.492   5.441   1.268 -1.1184  4.8303  0.5789
 9365TIP3    H249587   5.502   5.379   1.405  0.3454  1.0480 -1.0914
 9366TIP3   OH249588   2.691   5.991   0.917  0.7432 -0.2417 -0.0365
 9366TIP3    H149589   2.715   5.945   0.997  0.0373  0.3745  0.5496
 9366TIP3    H249590   2.602   5.961   0.897 -0.5364  2.2409  1.4656
 9367TIP3   OH249591   5.133   6.678  14.794  0.1070 -0.0685  0.1368
 9367TIP3    H149592   5.117   6.735  14.869 -1.2752 -0.6983  0.3451
 9367TIP3    H249593   5.175   6.600  14.832  0.6097  0.1590  0.0593
 9368TIP3   OH249594   0.387   0.651   0.525 -0.5851  0.3650 -0.1736
 9368TIP3    H149595   0.438   0.571   0.513 -2.1404 -0.4378 -1.9348
 9368TIP3    H249596   0.415   0.709   0.454 -2.0659 -0.0925 -1.1700
 9369TIP3   OH249597   0.513   2.704  12.531 -0.5962  0.2807  0.1584
 9369TIP3    H149598   0.555   2.787  12.553  0.0930  0.5013 -1.7844
 9369TIP3    H249599   0.425   2.710  12.569  0.0653  1.1005  1.6337
 9370TIP3   OH249600   1.068   0.822  13.296 -0.1076 -0.4902 -0.6037
 9370TIP3    H149601   1.152   0.779  13.280 -0.3240 -0.4079 -2.2260
 9370TIP3    H249602   1.004   0.763  13.256 -0.6578  0.1556 -0.6917
 9371TIP3   OH249603   3.909   6.387   5.431 -0.2116  0.7145  0.0819
 9371TIP3    H149604   3.918   6.361   5.522  0.7264  2.1605  0.4454
 9371TIP3    H249605   3.941   6.478   5.429  2.0165 -0.0006 -2.0666
 9372TIP3   OH249606   1.685   5.621   4.558  0.2546 -0.2050  0.3336
 9372TIP3    H149607   1.728   5.700   4.525 -0.9916 -0.4610 -2.0798
 9372TIP3    H249608   1.750   5.552   4.547  0.6486  0.1173  0.5936
 9373TIP3   OH249609   0.478   5.510  14.825 -0.2135  0.4898  0.7801
 9373TIP3    H149610   0.542   5.479  14.888  0.2068  0.5606  0.3927
 9373TIP3    H249611   0.528   5.524  14.744 -0.8363 -0.1448  0.2679
 9374TIP3   OH249612   0.599   1.837  16.792 -0.4553 -0.2221 -0.3959
 9374TIP3    H149613   0.517   1.883  16.811  0.1034  0.3676  0.6855
 9374TIP3    H249614   0.578   1.744  16.800 -1.0657 -0.0835 -0.3538
 9375TIP3   OH249615   5.392   3.035  12.360 -0.1552 -0.1436  0.0556
 9375TIP3    H149616   5.430   3.022  12.273  0.5999 -0.3928  0.4161
 9375TIP3    H249617   5.448   3.101  12.401 -1.2824  0.9488 -0.1180
 9376TIP3   OH249618   1.356   0.133   4.452 -0.9012  0.0150  0.9742
 9376TIP3    H149619   1.434   0.165   4.406 -1.1831 -1.0758 -0.3544
 9376TIP3    H249620   1.295   0.207   4.450  0.0531  0.8463  1.9483
 9377TIP3   OH249621   2.874   2.259  13.376  0.7006 -0.3783 -0.1166
 9377TIP3    H149622   2.952   2.303  13.408  0.3292 -0.3355  0.7798
 9377TIP3    H249623   2.888   2.248  13.282  1.2173  0.7735 -0.1867
 9378TIP3   OH249624   4.495   4.119  11.165  0.4865 -0.1455 -0.3800
 9378TIP3    H149625   4.462   4.198  11.124  1.4845  0.1266 -0.6923
 9378TIP3    H249626   4.550   4.150  11.237  1.2982 -0.5237 -0.8185
 9379TIP3   OH249627   6.088   5.120  14.686  0.3953 -0.5588 -0.2962
 9379TIP3    H149628   6.182   5.137  14.692  0.2472  0.5127 -0.6893
 9379TIP3    H249629   6.062   5.165  14.605 -0.6185 -0.0058  0.3165
 9380TIP3   OH249630   1.358   6.685   1.385  0.2472  0.0176 -0.2851
 9380TIP3    H149631   1.279   6.735   1.410  0.3667 -0.6578  1.6465
 9380TIP3    H249632   1.430   6.736   1.422  0.7447  0.6029 -1.9977
 9381TIP3   OH249633   6.076   3.507  13.681 -0.2904  0.8369 -0.5562
 9381TIP3    H149634   6.000   3.461  13.646  0.2590 -0.9230  0.4804
 9381TIP3    H249635   6.041   3.593  13.707 -1.7291  0.3771 -0.8828
 9382TIP3   OH249636   6.359   2.430   2.424  0.1795  0.4354 -0.1619
 9382TIP3    H149637   6.409   2.511   2.423 -0.2899  0.7386  0.3569
 9382TIP3    H249638   6.350   2.406   2.332  0.2023  1.0505 -0.3284
 9383TIP3   OH249639   2.806   5.421  16.987 -0.6701 -0.3206  0.0079
 9383TIP3    H149640   2.733   5.483  16.997 -0.8310 -0.3767 -0.8148
 9383TIP3    H249641   2.836   5.432  16.897  1.5988  1.0811  0.8326
 9384TIP3   OH249642   3.429   0.932   1.687  0.5236 -0.2096 -0.0914
 9384TIP3    H149643   3.413   0.887   1.604  0.2455 -0.2211 -0.0299
 9384TIP3    H249644   3.363   0.898   1.747 -1.1930  1.9128 -0.6464
 9385TIP3   OH249645   0.246   0.076   1.801 -0.3818  0.2431  0.1997
 9385TIP3    H149646   0.245  -0.011   1.761 -0.6279  0.6276 -0.6736
 9385TIP3    H249647   0.294   0.066   1.883  0.9546 -0.3936 -0.6458
 9386TIP3   OH249648   5.595   5.656  13.542  0.3999 -0.1464 -0.1117
 9386TIP3    H149649   5.550   5.599  13.604  0.3677 -0.7820 -0.6976
 9386TIP3    H249650   5.546   5.738  13.545  0.1192 -0.3255  0.3584
 9387TIP3   OH249651   0.810   4.702   2.699  0.2519  0.5394  0.0162
 9387TIP3    H149652   0.846   4.734   2.617  0.3083 -1.6816 -0.9029
 9387TIP3    H249653   0.877   4.721   2.764  1.2597  0.2395 -0.9055
 9388TIP3   OH249654   1.344   2.604  13.002 -0.5366  0.3363  0.2427
 9388TIP3    H149655   1.358   2.664  13.076 -1.3738  2.5749 -1.2883
 9388TIP3    H249656   1.430   2.568  12.984 -0.0220  0.9417  1.3510
 9389TIP3   OH249657   5.625   4.750  12.221 -0.2559  0.1950  0.2431
 9389TIP3    H149658   5.593   4.839  12.231 -1.6023 -0.4476  2.2308
 9389TIP3    H249659   5.557   4.705  12.170  0.8233  0.4618 -1.5118
 9390TIP3   OH249660   5.464   0.733   1.973  0.0032  0.6087  0.1342
 9390TIP3    H149661   5.498   0.686   1.897 -1.5198  1.8444 -1.3805
 9390TIP3    H249662   5.539   0.783   2.006  0.7774 -0.2490 -0.2834
 9391TIP3   OH249663   3.121   1.148  16.566 -0.1698 -0.1923  0.3209
 9391TIP3    H149664   3.092   1.078  16.508 -1.1754  0.2585  0.2587
 9391TIP3    H249665   3.105   1.114  16.654 -3.3712  0.9697  0.3120
 9392TIP3   OH249666   6.141   5.053   0.915 -0.2814 -0.0331  0.6703
 9392TIP3    H149667   6.102   4.968   0.939 -2.1827  0.0463 -1.7311
 9392TIP3    H249668   6.213   5.030   0.856 -1.7158 -0.0193 -1.1660
 9393TIP3   OH249669   2.450   0.682   5.591  0.4385 -0.4194 -0.5133
 9393TIP3    H149670   2.372   0.727   5.624  1.4052  0.7179  0.3204
 9393TIP3    H249671   2.503   0.751   5.551  1.5463 -0.9589 -0.0208
 9394TIP3   OH249672   2.398   4.732   1.087 -0.2912 -0.0541 -0.1862
 9394TIP3    H149673   2.375   4.655   1.138 -0.8204 -0.0621 -0.4267
 9394TIP3    H249674   2.417   4.799   1.152 -0.4954 -0.1968  0.0230
 9395TIP3   OH249675   4.914   5.823   4.286 -0.8708  0.7889 -0.2300
 9395TIP3    H149676   4.863   5.742   4.288  1.1500 -0.5388  0.2363
 9395TIP3    H249677   4.930   5.844   4.378  0.6843  0.3144 -0.3688
 9396TIP3   OH249678   4.001   2.589   0.791  0.5131  0.2502  0.5017
 9396TIP3    H149679   3.995   2.661   0.854  0.1059 -0.9081  1.8626
 9396TIP3    H249680   4.053   2.522   0.837 -0.9084 -1.1512  0.1491
 9397TIP3   OH249681   5.807   1.716   2.605  0.2411 -0.3080  0.1603
 9397TIP3    H149682   5.846   1.718   2.518  0.4371  1.9007  0.2391
 9397TIP3    H249683   5.792   1.623   2.623  0.9289 -0.8606 -1.8813
 9398TIP3   OH249684   4.622   6.449  10.767  0.4412  0.3584  0.3780
 9398TIP3    H149685   4.694   6.417  10.821  0.0936 -0.0934  0.5796
 9398TIP3    H249686   4.552   6.385  10.779 -0.4166  1.3880  1.0986
 9399TIP3   OH249687   5.028   1.727  16.285 -0.3165 -0.3526 -0.3364
 9399TIP3    H149688   5.116   1.690  16.295 -0.5771 -0.5151  1.9466
 9399TIP3    H249689   4.993   1.686  16.206  1.8077  0.0792 -1.5768
 9400TIP3   OH249690   5.961   3.422   4.525  0.0664 -0.6049  0.0699
 9400TIP3    H149691   5.917   3.440   4.442 -0.7457 -2.0845  0.1439
 9400TIP3    H249692   5.904   3.360   4.570 -0.2247  1.2104  2.4044
 9401TIP3   OH249693   0.016   6.805   4.829  0.1940 -0.0909  0.0528
 9401TIP3    H149694   0.044   6.803   4.921  0.2701 -1.1103  0.0174
 9401TIP3    H249695  -0.069   6.849   4.832  1.2548  2.0822  0.2865
 9402TIP3   OH249696   3.210   4.223  13.235 -0.1168  0.3972 -0.9333
 9402TIP3    H149697   3.127   4.236  13.281 -1.1134 -0.2553 -2.4872
 9402TIP3    H249698   3.194   4.151  13.175  0.9206  1.6048 -2.7654
 9403TIP3   OH249699   0.393   3.587  15.305 -0.1087  0.2022 -0.3196
 9403TIP3    H149700   0.460   3.655  15.314  0.3857  0.0802 -2.5548
 9403TIP3    H249701   0.438   3.507  15.332 -0.8622  0.7230  2.8853
 9404TIP3   OH249702   4.746   3.400   4.757 -0.4819 -0.1498 -0.2484
 9404TIP3    H149703   4.693   3.362   4.687 -0.3475  0.9211 -0.9500
 9404TIP3    H249704   4.711   3.361   4.837 -0.0460 -2.1004 -0.9415
 9405TIP3   OH249705   1.395   5.674   0.821  0.1270 -0.6952  0.1786
 9405TIP3    H149706   1.445   5.651   0.899  1.5652 -2.5243 -1.2085
 9405TIP3    H249707   1.306   5.646   0.841  0.3806 -0.7520  1.3140
 9406TIP3   OH249708   5.571   0.648  14.645  0.6962  0.0946  0.5166
 9406TIP3    H149709   5.586   0.597  14.724 -3.3987 -3.5106 -0.6299
 9406TIP3    H249710   5.572   0.584  14.574 -0.1263  2.4135 -1.7632
 9407TIP3   OH249711   0.960   4.750   4.769  0.1324  0.0016 -0.3990
 9407TIP3    H149712   0.904   4.827   4.779 -0.8118 -0.7377  0.1271
 9407TIP3    H249713   1.049   4.785   4.772 -0.2717  1.0061  0.4504
 9408TIP3   OH249714   0.884   4.138  11.587 -0.7414  0.1436 -0.2644
 9408TIP3    H149715   0.913   4.153  11.497 -1.3731 -1.9785 -0.8631
 9408TIP3    H249716   0.938   4.065  11.618 -1.4697 -0.0444  0.5953
 9409TIP3   OH249717   2.193   6.308  11.653 -0.3972 -0.2842 -0.1964
 9409TIP3    H149718   2.105   6.289  11.620 -0.8175 -2.0692  1.7760
 9409TIP3    H249719   2.207   6.400  11.631 -2.6417 -0.0307 -0.7898
 9410TIP3   OH249720   4.243   6.785  12.857  0.6623 -0.4521  0.3366
 9410TIP3    H149721   4.170   6.825  12.810  1.1468 -0.4056 -0.3903
 9410TIP3    H249722   4.307   6.764  12.789  1.5740  0.0127  1.0206
 9411TIP3   OH249723   5.213   0.382  10.527  0.6505 -0.3678 -0.0925
 9411TIP3    H149724   5.205   0.411  10.436  1.0153  2.0564  0.5685
 9411TIP3    H249725   5.285   0.434  10.562 -0.0616 -0.5846  1.8058
 9412TIP3   OH249726   4.388   6.323  11.320  0.7055 -0.1979  0.0868
 9412TIP3    H149727   4.372   6.356  11.409 -1.4848 -0.7950 -0.0254
 9412TIP3    H249728   4.328   6.248  11.311  0.2998  0.3219 -2.1550
 9413TIP3   OH249729   1.493   1.255  13.715  0.5803  0.0265 -0.1058
 9413TIP3    H149730   1.454   1.261  13.627 -2.0921  1.0235  1.0350
 9413TIP3    H249731   1.462   1.172  13.750 -0.3020  0.6718  0.6981
 9414TIP3   OH249732   4.123   2.436  15.414 -0.0015  0.5092 -0.3791
 9414TIP3    H149733   4.141   2.457  15.322  0.2560 -0.2639 -0.5138
 9414TIP3    H249734   4.207   2.451  15.458  0.2551 -0.4471 -0.5215
 9415TIP3   OH249735   0.713   5.052   2.935  0.5852  0.1941 -0.3965
 9415TIP3    H149736   0.620   5.035   2.917  0.0589  2.4701 -0.1075
 9415TIP3    H249737   0.718   5.056   3.031  1.5373 -2.4012 -0.2493
 9416TIP3   OH249738   1.194   4.077   5.088 -0.2753  0.3367 -0.0589
 9416TIP3    H149739   1.121   4.129   5.121 -0.0417  0.6384 -0.0115
 9416TIP3    H249740   1.245   4.138   5.034 -0.9007 -0.2498 -1.3689
 9417TIP3   OH249741   3.826   5.208   4.341 -0.2070  0.4985  1.0666
 9417TIP3    H149742   3.816   5.303   4.336 -1.6821  0.3018 -0.6583
 9417TIP3    H249743   3.914   5.195   4.377 -0.4056  2.4899  2.4464
 9418TIP3   OH249744   1.363   0.115  16.876  0.3780 -0.3551 -0.4537
 9418TIP3    H149745   1.441   0.148  16.833  1.0018 -0.8022  0.2975
 9418TIP3    H249746   1.292   0.133  16.815  0.6891  2.1925 -0.1726
 9419TIP3   OH249747   4.875   6.265   5.180  0.4845  0.2260  0.2976
 9419TIP3    H149748   4.801   6.274   5.241  0.8103 -0.2851  0.7752
 9419TIP3    H249749   4.878   6.171   5.160 -0.1269  0.5002 -1.1524
 9420TIP3   OH249750   0.072   5.578   2.104 -0.1241  0.7470  0.6474
 9420TIP3    H149751   0.114   5.663   2.119  1.0871  0.3223 -0.2212
 9420TIP3    H249752   0.144   5.516   2.101 -1.0905 -0.7665  3.7245
 9421TIP3   OH249753   0.419   0.766   4.251 -0.1687  0.3104  0.0245
 9421TIP3    H149754   0.508   0.797   4.267  0.6328 -1.5148 -0.6626
 9421TIP3    H249755   0.374   0.776   4.336  0.7799  0.8939  0.4733
 9422TIP3   OH249756   3.666   6.302  15.689  0.0013 -0.1237  0.5539
 9422TIP3    H149757   3.599   6.369  15.702 -0.7758 -0.5551 -1.0397
 9422TIP3    H249758   3.741   6.350  15.653 -0.0646  0.0900  0.6988
 9423TIP3   OH249759   5.865   1.543  16.405  0.1123 -0.4750  0.0665
 9423TIP3    H149760   5.882   1.592  16.324 -1.7135  0.8242  0.4144
 9423TIP3    H249761   5.800   1.477  16.379  2.4824 -2.8224 -0.3809
 9424TIP3   OH249762   1.502   4.903  15.458 -0.4191  0.3392  0.4012
 9424TIP3    H149763   1.414   4.900  15.497  0.2022 -0.6213  1.7990
 9424TIP3    H249764   1.559   4.929  15.530  0.3683  1.8531 -0.7105
 9425TIP3   OH249765   0.063   1.171  16.935 -0.1711  0.1581 -0.7966
 9425TIP3    H149766   0.029   1.083  16.949 -0.0649 -0.2198 -2.5958
 9425TIP3    H249767   0.029   1.196  16.849 -0.8120  2.1907  0.0067
 9426TIP3   OH249768   4.049   3.003  12.187  0.0011  0.2383  0.8094
 9426TIP3    H149769   4.099   2.976  12.109 -3.4153 -1.7645 -0.9216
 9426TIP3    H249770   4.082   2.947  12.257  0.9413 -0.2387  0.0182
 9427TIP3   OH249771   6.392   3.700  12.997 -0.4078 -0.4225  0.5631
 9427TIP3    H149772   6.457   3.633  12.975 -1.1013 -0.9200  0.0173
 9427TIP3    H249773   6.444   3.781  13.006  0.4273 -1.0046  1.1857
 9428TIP3   OH249774   1.973   2.563   5.104  0.1612  0.8657  0.1047
 9428TIP3    H149775   1.988   2.554   5.010  0.9826  0.9288  0.2206
 9428TIP3    H249776   2.020   2.490   5.143 -0.1995  0.8216  0.4680
 9429TIP3   OH249777   1.956   0.398   1.934 -0.2366  0.0025  0.3388
 9429TIP3    H149778   1.989   0.359   1.853 -0.5617 -0.9948  0.6686
 9429TIP3    H249779   1.981   0.335   2.002 -0.6377  0.4549  0.9095
 9430TIP3   OH249780   6.142   4.255  15.813 -0.3187 -0.1970  0.1040
 9430TIP3    H149781   6.220   4.256  15.757  0.1584  0.8450  0.7432
 9430TIP3    H249782   6.109   4.345  15.809 -0.6967 -0.2954  0.9298
 9431TIP3   OH249783   5.622   3.799   1.066 -0.8531 -0.5791  0.0754
 9431TIP3    H149784   5.558   3.819   1.134 -0.5250 -1.5507  0.7021
 9431TIP3    H249785   5.663   3.883   1.045 -1.3320 -0.1853  0.6962
 9432TIP3   OH249786   2.124   5.967  14.706  0.1082  0.1179 -0.7306
 9432TIP3    H149787   2.127   6.005  14.794 -1.2879 -3.3972  1.0180
 9432TIP3    H249788   2.103   6.041  14.649  0.7141  2.4879  1.8773
 9433TIP3   OH249789   4.624   0.981   2.981 -0.0593 -0.3883 -0.1936
 9433TIP3    H149790   4.585   0.940   3.058  0.7942  0.6960  0.8420
 9433TIP3    H249791   4.679   0.913   2.943 -0.1872 -0.8092  0.3692
 9434TIP3   OH249792   2.808   5.292  14.879  0.1553  0.5152 -0.0354
 9434TIP3    H149793   2.902   5.286  14.891 -0.0001  0.3128  1.2107
 9434TIP3    H249794   2.776   5.202  14.885  0.1119  0.2432 -2.9615
 9435TIP3   OH249795   3.148   4.057  12.841 -0.7275  0.4988  0.4127
 9435TIP3    H149796   3.123   4.048  12.933  0.8196  0.3525  0.8424
 9435TIP3    H249797   3.243   4.058  12.842 -0.6812  0.2178 -1.2225
 9436TIP3   OH249798   3.600   5.914   2.984 -0.3245 -0.1036 -0.1646
 9436TIP3    H149799   3.665   5.918   3.054  0.3859  1.1929 -0.8465
 9436TIP3    H249800   3.647   5.945   2.906 -1.3371 -0.6549 -1.0214
 9437TIP3   OH249801   5.788   0.309  11.541  0.5182  0.4251  0.2629
 9437TIP3    H149802   5.846   0.383  11.558  0.4251  0.0743  2.2567
 9437TIP3    H249803   5.796   0.294  11.447  1.2158  2.3891 -0.0414
 9438TIP3   OH249804   4.058   5.308   1.762  0.5901 -0.0906  0.0397
 9438TIP3    H149805   4.150   5.286   1.746  0.3736 -2.1557  1.3058
 9438TIP3    H249806   4.015   5.290   1.678  1.1341 -0.3113 -0.1978
 9439TIP3   OH249807   2.035   5.635   4.197  0.0460  0.2661 -0.1187
 9439TIP3    H149808   2.008   5.671   4.113 -0.1858 -0.4029 -0.3382
 9439TIP3    H249809   2.129   5.619   4.188  0.1636  0.8697  0.0046
 9440TIP3   OH249810   3.921   2.245   3.284  0.6367 -0.1892 -0.2527
 9440TIP3    H149811   3.926   2.217   3.376  2.3844  0.4855 -0.0929
 9440TIP3    H249812   3.980   2.321   3.279  0.3131 -0.0050 -1.8600
 9441TIP3   OH249813   4.786   2.837   0.762  0.4291 -0.5305 -0.7978
 9441TIP3    H149814   4.694   2.833   0.735  0.5976 -0.8840 -1.3313
 9441TIP3    H249815   4.822   2.911   0.712 -0.2098  1.4126  1.4497
 9442TIP3   OH249816   6.112   0.170   1.688 -0.3797  0.1969  0.5252
 9442TIP3    H149817   6.069   0.234   1.631 -1.4465  0.2474  1.3473
 9442TIP3    H249818   6.044   0.103   1.704  0.0362 -0.0313  1.3789
 9443TIP3   OH249819   3.001   1.003  15.968 -0.2397 -0.0604  0.4095
 9443TIP3    H149820   2.921   1.048  15.941 -1.3810 -2.3907 -0.4021
 9443TIP3    H249821   3.048   1.067  16.021 -1.0529  2.4971 -1.7722
 9444TIP3   OH249822   2.492   3.794  12.800  0.3264 -0.5551 -0.3750
 9444TIP3    H149823   2.410   3.807  12.848  0.6656  0.2702 -0.0028
 9444TIP3    H249824   2.515   3.703  12.817 -0.4254 -0.7537 -0.3554
 9445TIP3   OH249825   2.162   2.963  14.453  0.1305 -0.2488 -0.1092
 9445TIP3    H149826   2.204   2.909  14.519  0.0350  1.0248  1.0552
 9445TIP3    H249827   2.186   3.053  14.477  0.7145  0.2330 -2.2627
 9446TIP3   OH249828   1.614   1.970   5.887  0.7261 -0.0534  0.0929
 9446TIP3    H149829   1.706   1.942   5.885  0.4984 -0.9022 -2.4415
 9446TIP3    H249830   1.597   1.991   5.979  2.9174 -1.6395  0.9481
 9447TIP3   OH249831   1.774   6.119  11.790  0.0019 -0.2700 -0.2569
 9447TIP3    H149832   1.815   6.064  11.723  0.7659  2.0544 -1.8258
 9447TIP3    H249833   1.708   6.169  11.742 -0.6009  0.2597  1.0907
 9448TIP3   OH249834   6.089   1.367   0.507 -0.5039 -0.5786  0.4849
 9448TIP3    H149835   6.181   1.384   0.484 -0.5544 -0.0247  0.6641
 9448TIP3    H249836   6.087   1.276   0.534 -0.1217 -0.7698 -0.1088
 9449TIP3   OH249837   1.367   2.844  10.500  0.3382 -0.5255 -0.2727
 9449TIP3    H149838   1.285   2.873  10.458  0.4494  1.0379  0.5259
 9449TIP3    H249839   1.436   2.887  10.449  0.4875  1.0589  1.1762
 9450TIP3   OH249840   2.680   3.469   3.814 -0.6557  0.0123  0.2188
 9450TIP3    H149841   2.755   3.513   3.855 -0.1500 -0.9401  0.3297
 9450TIP3    H249842   2.626   3.439   3.887 -0.5518 -0.3237  0.1567
 9451TIP3   OH249843   4.499   0.251  15.717 -0.0059  0.1800  0.0516
 9451TIP3    H149844   4.455   0.304  15.650 -0.1706 -0.1170 -0.0771
 9451TIP3    H249845   4.583   0.295  15.732  0.6270 -0.5049 -1.3352
 9452TIP3   OH249846   2.485   0.691   3.691  0.3799  0.1560 -0.6830
 9452TIP3    H149847   2.405   0.669   3.644  0.1768  1.3909 -0.9435
 9452TIP3    H249848   2.456   0.721   3.777  0.6778 -0.9615 -0.1758
 9453TIP3   OH249849   5.283   1.479  13.577 -0.3287  0.5291 -0.2235
 9453TIP3    H149850   5.296   1.464  13.484 -0.2068 -2.2124  0.1685
 9453TIP3    H249851   5.209   1.423  13.601 -0.2976  1.1099  1.3594
 9454TIP3   OH249852   3.033   5.995  11.802  0.1258 -0.7587 -0.0157
 9454TIP3    H149853   3.108   6.024  11.854 -1.4843  2.5228  0.6738
 9454TIP3    H249854   3.063   6.002  11.711  0.3330  1.8796  0.1795
 9455TIP3   OH249855   0.408   2.411  13.391 -0.0506 -0.5103 -0.3887
 9455TIP3    H149856   0.398   2.324  13.430  0.5004 -1.0273 -1.3656
 9455TIP3    H249857   0.456   2.396  13.309  1.6620  0.9120  0.2668
 9456TIP3   OH249858   4.773   5.974   6.283 -0.4106 -0.1995 -0.0302
 9456TIP3    H149859   4.829   5.960   6.359 -1.1893 -0.5849  0.4885
 9456TIP3    H249860   4.831   5.965   6.208 -0.2068 -3.1974  0.3686
 9457TIP3   OH249861   5.386   4.629   3.925  0.0006  0.1611  0.1580
 9457TIP3    H149862   5.348   4.650   3.839 -0.5449  0.3778  0.4469
 9457TIP3    H249863   5.336   4.553   3.955 -1.0235  1.1675  1.0654
 9458TIP3   OH249864   6.228   0.337   0.754 -0.0167 -0.2501 -0.3123
 9458TIP3    H149865   6.144   0.361   0.714 -0.6015 -0.2359  0.8853
 9458TIP3    H249866   6.216   0.248   0.785  1.3458 -1.3101 -2.5409
 9459TIP3   OH249867   3.144   2.082   0.126  0.5116  0.4046 -0.0637
 9459TIP3    H149868   3.130   2.153   0.063  1.9836  0.1282 -0.7529
 9459TIP3    H249869   3.234   2.093   0.156  0.7525 -1.1012 -0.1250
 9460TIP3   OH249870   6.523   5.152   0.599  0.0904  0.6778 -0.5920
 9460TIP3    H149871   6.485   5.238   0.612 -0.6793  0.5886 -2.0473
 9460TIP3    H249872   6.617   5.168   0.588  0.5520  0.9235  2.7291
 9461TIP3   OH249873   5.817   4.188  11.602 -0.4088  0.3852 -0.3934
 9461TIP3    H149874   5.848   4.188  11.693 -1.5999  1.9788  0.0724
 9461TIP3    H249875   5.896   4.182  11.549  0.4625  1.3220  0.7530
 9462TIP3   OH249876   0.206   3.696   5.630  0.1708  0.6044 -0.3186
 9462TIP3    H149877   0.205   3.601   5.639 -1.5909  0.4495 -1.5865
 9462TIP3    H249878   0.118   3.718   5.599  0.4779  2.6730  0.1294
 9463TIP3   OH249879   4.695   2.009  17.280 -0.3773  0.5891 -0.1604
 9463TIP3    H149880   4.660   1.984  17.194  1.6310  1.6511 -1.3659
 9463TIP3    H249881   4.775   1.958  17.289 -0.3287  0.8360  0.8881
 9464TIP3   OH249882   2.582   2.659   0.416 -0.4032 -0.0286  0.0688
 9464TIP3    H149883   2.521   2.641   0.487  0.4767  2.0790  1.4405
 9464TIP3    H249884   2.664   2.618   0.443 -0.9609 -2.3614 -1.5028
 9465TIP3   OH249885   0.779   2.684  17.252 -0.2205  0.5709 -1.3725
 9465TIP3    H149886   0.841   2.757  17.247 -0.5984  1.0455  0.3348
 9465TIP3    H249887   0.724   2.695  17.175  0.0601  1.7814 -1.4230
 9466TIP3   OH249888   0.771   6.341   3.628 -0.0795  0.0561  0.1061
 9466TIP3    H149889   0.735   6.421   3.665 -0.3110 -0.7604  1.7231
 9466TIP3    H249890   0.731   6.334   3.541 -2.5823  0.0291  1.1933
 9467TIP3   OH249891   4.179   0.395   4.151  0.0035 -0.1552  0.0139
 9467TIP3    H149892   4.167   0.386   4.057 -0.5330 -0.1629  0.0799
 9467TIP3    H249893   4.110   0.455   4.179  0.1096 -0.2141  0.4133
 9468TIP3   OH249894   0.004   5.517   2.667 -1.0823 -0.3301  0.1671
 9468TIP3    H149895  -0.058   5.513   2.740  0.2236 -1.3140  1.2852
 9468TIP3    H249896   0.057   5.438   2.677  0.0789  0.2777 -0.9897
 9469TIP3   OH249897   6.293   4.427   6.119  0.1484 -0.0099 -0.2979
 9469TIP3    H149898   6.231   4.492   6.087  0.6439  0.2252 -0.7884
 9469TIP3    H249899   6.355   4.476   6.174 -0.6776 -0.3997  1.0465
 9470TIP3   OH249900   2.587   3.460  13.764 -0.5208  0.8240 -0.3638
 9470TIP3    H149901   2.516   3.525  13.768 -1.2884  0.0538 -1.0118
 9470TIP3    H249902   2.546   3.379  13.794  0.2022  0.4483 -0.3722
 9471TIP3   OH249903   3.783   0.687  14.949  0.4193  0.3183 -0.2982
 9471TIP3    H149904   3.751   0.714  15.035 -1.6272 -0.5707 -0.7348
 9471TIP3    H249905   3.772   0.764  14.894  1.0984  0.6767  0.0459
 9472TIP3   OH249906   4.090   2.039  12.017 -0.5270  0.1520  0.3717
 9472TIP3    H149907   4.021   1.993  12.064  0.4460 -1.0890  0.6635
 9472TIP3    H249908   4.071   2.132  12.030 -1.0523 -0.1604  2.0622
 9473TIP3   OH249909   5.522   5.066  13.959 -0.1420  0.0423 -0.2334
 9473TIP3    H149910   5.590   4.999  13.964 -0.6294 -0.4819 -0.5268
 9473TIP3    H249911   5.461   5.034  13.892 -0.8534  0.3414  0.2534
 9474TIP3   OH249912   1.360   4.568   3.527  0.4174  0.7098  0.3946
 9474TIP3    H149913   1.417   4.514   3.581  0.3380  0.5986  0.3677
 9474TIP3    H249914   1.347   4.648   3.578  0.8550  0.8717  0.2620
 9475TIP3   OH249915   3.372   2.614   0.763  0.4522  0.8395 -0.5217
 9475TIP3    H149916   3.411   2.689   0.809 -0.5056  1.7544 -1.1520
 9475TIP3    H249917   3.441   2.581   0.707  1.3969  0.2043  0.9531
 9476TIP3   OH249918   6.385   0.152   2.447 -0.3108  0.7715 -0.1800
 9476TIP3    H149919   6.323   0.079   2.450  0.6183 -0.0521 -0.4660
 9476TIP3    H249920   6.406   0.164   2.354  1.5724 -0.4053  0.0298
 9477TIP3   OH249921   5.092   3.260  15.206 -0.2507  0.5525 -0.5238
 9477TIP3    H149922   5.021   3.262  15.142  0.1742 -0.2707 -1.0459
 9477TIP3    H249923   5.160   3.208  15.164 -0.1669 -0.4594  0.8032
 9478TIP3   OH249924   3.028   6.409  15.893 -0.0434  0.4860 -0.0398
 9478TIP3    H149925   3.046   6.503  15.896  0.7524  0.3542 -0.4969
 9478TIP3    H249926   2.934   6.403  15.912 -0.3095  1.4421 -0.9320
 9479TIP3   OH249927   0.889   5.274  15.385  0.0597  0.0752 -0.1754
 9479TIP3    H149928   0.802   5.243  15.411 -0.4911  1.5338 -0.2282
 9479TIP3    H249929   0.894   5.254  15.291 -0.1029 -0.2727 -0.1128
 9480TIP3   OH249930   1.281   6.141  13.334  0.1675  0.2735  0.3159
 9480TIP3    H149931   1.188   6.120  13.333  0.4276 -0.9702  1.0276
 9480TIP3    H249932   1.325   6.058  13.350  1.3991  0.8677  0.1489
 9481TIP3   OH249933   6.634   5.833   1.170 -0.9387  0.3183 -0.3698
 9481TIP3    H149934   6.593   5.899   1.225 -2.3252 -0.8635  0.0631
 9481TIP3    H249935   6.728   5.843   1.185 -1.2684  0.0688  2.1918
 9482TIP3   OH249936   2.775   4.803   0.915 -0.4752 -0.4312  0.1044
 9482TIP3    H149937   2.846   4.833   0.859 -1.9019  0.6888 -1.1737
 9482TIP3    H249938   2.777   4.863   0.990  0.9613 -1.4746  0.9610
 9483TIP3   OH249939   0.167   0.993  15.009 -0.3914  0.1020  0.4385
 9483TIP3    H149940   0.240   0.967  15.067  0.1027  2.0497  0.7507
 9483TIP3    H249941   0.206   0.995  14.922 -0.0432  1.1152  0.6017
 9484TIP3   OH249942   6.555   0.057  17.020 -0.4343 -0.1632 -0.3097
 9484TIP3    H149943   6.561   0.027  17.111  0.7830  2.1945  0.4837
 9484TIP3    H249944   6.594  -0.013  16.968  2.2707 -0.0723  1.4100
 9485TIP3   OH249945   1.443   5.653   3.449  0.1235  0.1549  0.6423
 9485TIP3    H149946   1.514   5.603   3.409 -1.1979  1.0980 -3.4681
 9485TIP3    H249947   1.367   5.595   3.441 -0.2545  0.5170  1.5879
 9486TIP3   OH249948   4.551   2.928  13.144  0.0096 -0.1405  0.0666
 9486TIP3    H149949   4.465   2.932  13.102  0.6912 -0.0251 -1.3590
 9486TIP3    H249950   4.549   2.846  13.194 -0.4870 -0.7933 -0.9742
 9487TIP3   OH249951   1.791   0.336   0.817 -0.8000 -0.3066 -0.8875
 9487TIP3    H149952   1.773   0.351   0.724 -0.3351  1.3710 -0.7393
 9487TIP3    H249953   1.764   0.417   0.860  0.3682 -0.4831  0.2509
 9488TIP3   OH249954   0.564   4.236   5.228  0.0495  0.2278 -0.1415
 9488TIP3    H149955   0.638   4.223   5.288 -0.7269 -1.6013  0.5144
 9488TIP3    H249956   0.560   4.154   5.179 -1.4642  0.3514 -0.2465
 9489TIP3   OH249957   5.145   1.348  14.937  0.0755  0.7596 -0.0580
 9489TIP3    H149958   5.050   1.356  14.946  0.1564  0.6131  1.0033
 9489TIP3    H249959   5.163   1.257  14.960  0.3175  0.3053 -1.8392
 9490TIP3   OH249960   0.043   3.227   5.807 -0.0922  0.5409  0.6258
 9490TIP3    H149961   0.101   3.164   5.763 -0.4280 -0.5203  1.6721
 9490TIP3    H249962  -0.042   3.215   5.764 -0.6823 -1.2266  2.1832
 9491TIP3   OH249963   1.771   3.628  10.904 -0.3550 -0.0405  0.8082
 9491TIP3    H149964   1.726   3.584  10.832 -1.1851  0.2789  1.1197
 9491TIP3    H249965   1.794   3.714  10.869  0.3745 -0.3465  0.5227
 9492TIP3   OH249966   4.477   3.800   2.583  0.5300 -0.1960  0.3877
 9492TIP3    H149967   4.541   3.871   2.587 -1.0440  1.2567  0.7162
 9492TIP3    H249968   4.530   3.720   2.586  2.3055  0.9463  0.8906
 9493TIP3   OH249969   5.806   5.163  15.300  0.3923 -0.0145 -0.1848
 9493TIP3    H149970   5.760   5.111  15.366  1.6959 -0.0913  0.7026
 9493TIP3    H249971   5.854   5.229  15.350  2.5695 -0.9697 -0.8909
 9494TIP3   OH249972   3.501   3.993  13.179  0.3982  0.5622  0.1934
 9494TIP3    H149973   3.596   3.995  13.183  0.4162 -0.6211  0.8451
 9494TIP3    H249974   3.479   3.903  13.152 -0.5186  1.0223 -0.6800
 9495TIP3   OH249975   0.715   6.319  16.982 -0.2276 -0.4467 -0.1755
 9495TIP3    H149976   0.638   6.335  16.927  1.4666 -0.2468 -2.6601
 9495TIP3    H249977   0.769   6.397  16.970  0.6783 -0.8645  0.9972
 9496TIP3   OH249978   6.691   1.199   1.387  0.0671  0.0289  0.2904
 9496TIP3    H149979   6.606   1.164   1.362 -0.0760  0.9628 -0.5940
 9496TIP3    H249980   6.694   1.286   1.347  1.3744  0.0740  0.4449
 9497TIP3   OH249981   1.231   5.913  16.738  0.0875 -0.0300 -0.2729
 9497TIP3    H149982   1.212   5.984  16.800  0.0738 -1.4683  1.4169
 9497TIP3    H249983   1.167   5.927  16.668 -1.5410  0.2522  1.1880
 9498TIP3   OH249984   5.196   3.999   2.040 -0.6088 -0.2036 -0.1305
 9498TIP3    H149985   5.157   3.995   2.128 -0.1906 -0.5500  0.0419
 9498TIP3    H249986   5.127   4.038   1.985 -1.3767 -1.2282  0.0746
 9499TIP3   OH249987   6.655   5.593   0.993 -0.4631  0.2107 -0.2363
 9499TIP3    H149988   6.671   5.664   1.055  0.3029  1.0212 -1.3498
 9499TIP3    H249989   6.687   5.515   1.038 -2.1506  0.3690  1.3787
 9500TIP3   OH249990   2.192   0.883  14.459 -0.7083 -0.1003 -0.0351
 9500TIP3    H149991   2.160   0.896  14.548 -1.0810  0.1036 -0.1993
 9500TIP3    H249992   2.270   0.939  14.453 -0.4202 -0.4619  0.3061
 9501TIP3   OH249993   4.393   5.046  14.362 -0.1647 -0.0442 -1.1294
 9501TIP3    H149994   4.422   4.963  14.326 -0.4809 -0.8133  0.3375
 9501TIP3    H249995   4.438   5.112  14.309  1.4449 -1.1564 -1.1959
 9502TIP3   OH249996   2.620   5.240   5.048 -0.2193  0.3077  0.2602
 9502TIP3    H149997   2.711   5.235   5.020  0.2173 -0.1491  1.6837
 9502TIP3    H249998   2.571   5.200   4.977  0.8746 -1.0802  0.2405
 9503TIP3   OH249999   6.461   3.415   6.280  0.2480  0.1414 -0.4214
 9503TIP3    H150000   6.505   3.366   6.210 -1.6190 -0.2810 -1.3418
 9503TIP3    H250001   6.495   3.504   6.270  1.8435 -0.4064 -0.2752
 9504TIP3   OH250002   3.485   4.036  10.945 -0.3902  1.0344  0.5984
 9504TIP3    H150003   3.487   4.107  10.882 -0.7018 -1.0510 -1.9589
 9504TIP3    H250004   3.577   4.015  10.960 -0.3118  0.5005 -0.5101
 9505TIP3   OH250005   0.109   4.149   1.985 -0.4206  0.4308 -0.1929
 9505TIP3    H150006   0.065   4.071   1.952  0.7238 -0.2784 -0.1017
 9505TIP3    H250007   0.067   4.222   1.940 -1.5436 -0.2333 -0.2367
 9506TIP3   OH250008   2.608   0.971   5.030  0.2956  0.3229 -0.4061
 9506TIP3    H150009   2.642   1.061   5.025 -2.7798  1.6637  0.3573
 9506TIP3    H250010   2.684   0.916   5.016  2.1179  3.0459 -2.2781
 9507TIP3   OH250011   3.530   5.005  10.058 -0.2744 -0.3333 -0.2869
 9507TIP3    H150012   3.464   4.935  10.067 -1.5469  0.9659  1.3415
 9507TIP3    H250013   3.498   5.074  10.116  1.2971  1.3414 -1.3301
 9508TIP3   OH250014   6.422   4.937  13.931  0.7851  1.2457 -0.1598
 9508TIP3    H150015   6.397   5.007  13.871 -1.2581 -0.0478 -0.9259
 9508TIP3    H250016   6.372   4.953  14.011 -0.2987  0.2936 -0.6156
 9509TIP3   OH250017   2.693   2.628   4.295 -0.1983  0.0994 -0.0806
 9509TIP3    H150018   2.719   2.642   4.386 -0.6715 -0.3808  0.1287
 9509TIP3    H250019   2.775   2.609   4.250 -0.1632 -1.4247  0.5816
 9510TIP3   OH250020   5.165   3.424  15.395 -0.4065 -0.1666  0.2487
 9510TIP3    H150021   5.092   3.458  15.446  0.0658 -0.9690  1.5034
 9510TIP3    H250022   5.126   3.357  15.338 -0.9112  0.6300 -0.3617
 9511TIP3   OH250023   5.985   4.971   1.904  0.4239  0.3929 -0.1296
 9511TIP3    H150024   5.920   4.992   1.837 -0.6203  1.9595  1.2908
 9511TIP3    H250025   5.996   5.053   1.953  2.5599 -0.1884  0.4546
 9512TIP3   OH250026   0.930   4.687   0.510  0.0456  0.3063 -0.0270
 9512TIP3    H150027   0.974   4.633   0.444  1.8553  1.0714  0.4993
 9512TIP3    H250028   0.997   4.703   0.577 -1.4775  0.2895  1.5847
 9513TIP3   OH250029   2.434   0.302  14.959 -0.0862 -0.8648  0.3454
 9513TIP3    H150030   2.415   0.230  14.899  0.5901 -0.9874  0.2633
 9513TIP3    H250031   2.350   0.343  14.976 -0.1399 -0.0011 -1.7329
 9514TIP3   OH250032   3.468   1.351   0.339 -0.2420 -0.1100 -0.5521
 9514TIP3    H150033   3.450   1.437   0.376  1.7734  0.3926 -0.6254
 9514TIP3    H250034   3.538   1.366   0.275  1.2362 -2.0057  0.5210
 9515TIP3   OH250035   6.327   3.502  16.623  0.5706 -0.4959  0.0019
 9515TIP3    H150036   6.340   3.506  16.718 -1.4619 -1.0948  0.3565
 9515TIP3    H250037   6.292   3.415  16.607  1.4408 -0.6209 -1.4000
 9516TIP3   OH250038   5.388   2.559   2.844  0.4453 -1.1044  0.4943
 9516TIP3    H150039   5.451   2.506   2.796  2.0388 -0.5391  1.8652
 9516TIP3    H250040   5.317   2.498   2.865 -0.4557 -1.3217 -2.6601
 9517TIP3   OH250041   4.035   1.729  12.914  0.3090 -0.2378 -0.4342
 9517TIP3    H150042   4.005   1.702  13.001  1.2057 -1.2003 -0.4018
 9517TIP3    H250043   4.130   1.740  12.924  0.6007 -1.4507 -1.5298
 9518TIP3   OH250044   6.074   2.527   0.238  0.0847 -0.0443  0.0934
 9518TIP3    H150045   6.161   2.509   0.274  0.1995  0.9772  0.3756
 9518TIP3    H250046   6.091   2.553   0.148  0.2712  1.6959  0.5821
 9519TIP3   OH250047   4.464   4.969   2.054 -0.1925  0.5099  0.5542
 9519TIP3    H150048   4.474   5.019   1.973 -0.9047 -0.6411 -0.2771
 9519TIP3    H250049   4.523   5.012   2.116  0.5240  1.3005 -0.6243
 9520TIP3   OH250050   4.309   1.105  14.523  1.1294 -0.3221 -0.3906
 9520TIP3    H150051   4.332   1.081  14.613  0.1883 -0.4955 -0.1778
 9520TIP3    H250052   4.290   1.199  14.528  1.4044 -0.2602 -0.4839
 9521TIP3   OH250053   4.481   0.241  15.267  0.2381 -0.3146  0.4621
 9521TIP3    H150054   4.503   0.208  15.354 -0.9834 -1.3322  0.4077
 9521TIP3    H250055   4.407   0.300  15.282  0.3602 -0.0849  0.1742
 9522TIP3   OH250056   1.029   1.598   5.770 -0.1025  0.1333 -0.4002
 9522TIP3    H150057   1.030   1.517   5.719  0.2434 -0.6419  0.7790
 9522TIP3    H250058   0.979   1.660   5.717  0.6406 -0.4818 -1.8652
 9523TIP3   OH250059   1.773   1.451   0.685 -0.1154 -0.1270 -0.2620
 9523TIP3    H150060   1.737   1.473   0.599 -0.2512  1.1305  0.0966
 9523TIP3    H250061   1.698   1.457   0.744  0.1887  0.0544  0.1064
 9524TIP3   OH250062   2.003   6.242  16.496 -0.0181 -0.4160  0.0846
 9524TIP3    H150063   1.985   6.206  16.583  1.7182 -0.9860  0.2557
 9524TIP3    H250064   2.094   6.217  16.479 -0.5078 -0.8788 -2.1664
 9525TIP3   OH250065   2.466   3.916  16.175  0.3077  0.5862  0.2101
 9525TIP3    H150066   2.544   3.936  16.123  0.6180 -0.4641  0.2412
 9525TIP3    H250067   2.439   4.000  16.212  1.4607  0.9543  0.2477
 9526TIP3   OH250068   3.040   3.176  11.918 -0.4112  0.2246  0.0441
 9526TIP3    H150069   3.048   3.080  11.912  0.9310  0.3001  0.4456
 9526TIP3    H250070   2.957   3.189  11.964 -1.2871 -0.7065 -1.1879
 9527TIP3   OH250071   1.733   6.717  12.908  0.2103 -0.0260  0.0770
 9527TIP3    H150072   1.726   6.781  12.838 -0.8702 -0.5496 -0.3144
 9527TIP3    H250073   1.732   6.769  12.989 -0.3908  0.4727 -0.2402
 9528TIP3   OH250074   3.225   3.177  13.971 -0.4502 -0.2993  0.0799
 9528TIP3    H150075   3.165   3.251  13.955 -2.1952 -1.3053  1.5591
 9528TIP3    H250076   3.311   3.210  13.943 -1.3505  1.8686 -0.4022
 9529TIP3   OH250077   3.348   0.687  15.488  0.2718 -0.2458 -0.5196
 9529TIP3    H150078   3.333   0.638  15.407 -2.2786 -0.4209 -0.0474
 9529TIP3    H250079   3.264   0.730  15.506  0.4771 -0.8100  2.3849
 9530TIP3   OH250080   5.506   4.359  11.362 -0.2892  0.3296 -0.0015
 9530TIP3    H150081   5.489   4.326  11.451  0.1597 -0.2532 -0.1240
 9530TIP3    H250082   5.590   4.319  11.338  0.1443  1.3760 -0.2608
 9531TIP3   OH250083   3.765   4.475  14.211  0.8638  0.3059 -0.3350
 9531TIP3    H150084   3.731   4.543  14.153  0.1693  0.1420 -0.1347
 9531TIP3    H250085   3.814   4.523  14.278 -0.1094  0.6691  0.1371
 9532TIP3   OH250086   2.919   2.216  13.088 -0.4525 -0.2742  0.0685
 9532TIP3    H150087   2.984   2.203  13.019 -0.5813 -1.2563  0.1234
 9532TIP3    H250088   2.920   2.310  13.105  0.9544 -0.2750  0.0674
 9533TIP3   OH250089   1.059   3.116  15.702  0.2734 -0.6099  0.0805
 9533TIP3    H150090   0.969   3.108  15.734  0.3016 -0.0174  0.3312
 9533TIP3    H250091   1.112   3.112  15.781  0.5115 -1.5695 -0.1237
 9534TIP3   OH250092   0.897   3.221   3.063 -0.1166  0.2874 -0.1894
 9534TIP3    H150093   0.952   3.143   3.069 -2.2882 -1.2344  1.2547
 9534TIP3    H250094   0.935   3.281   3.127  0.9998  0.0811 -0.6219
 9535TIP3   OH250095   6.438   4.157   2.565 -0.0127 -0.1111 -0.1437
 9535TIP3    H150096   6.402   4.181   2.480 -3.5316  0.4508  1.3476
 9535TIP3    H250097   6.467   4.240   2.603  0.7646 -0.2444 -0.4314
 9536TIP3   OH250098   0.409   2.213  11.311 -0.5361 -0.1178 -0.6636
 9536TIP3    H150099   0.343   2.147  11.291  1.7090 -1.6036 -3.8685
 9536TIP3    H250100   0.365   2.296  11.292 -1.7368 -1.0162 -2.0120
 9537TIP3   OH250101   6.403   0.890   4.485 -0.1619 -0.4091 -0.1949
 9537TIP3    H150102   6.472   0.941   4.441  0.0637  0.3590  1.0102
 9537TIP3    H250103   6.336   0.878   4.417  0.7999 -0.4888 -1.1571
 9538TIP3   OH250104   2.853   2.363   6.628 -0.0900 -0.3649  0.0730
 9538TIP3    H150105   2.852   2.336   6.536  1.2809 -1.8751  0.4513
 9538TIP3    H250106   2.828   2.284   6.677 -2.4555  0.8369  0.9824
 9539TIP3   OH250107   2.949   5.020   5.288  0.3145 -0.0350  0.6342
 9539TIP3    H150108   2.899   5.071   5.352  0.6160  2.5505 -1.0513
 9539TIP3    H250109   3.040   5.033   5.313  0.4101  0.5514 -0.0077
 9540TIP3   OH250110   1.753   3.132  13.032 -0.1219  0.6084 -0.5812
 9540TIP3    H150111   1.755   3.165  13.122  0.0478  1.2818 -0.8208
 9540TIP3    H250112   1.776   3.208  12.978  0.6765 -0.0007 -1.1356
 9541TIP3   OH250113   2.764   6.815   0.610 -0.3153 -0.1119 -0.4022
 9541TIP3    H150114   2.708   6.738   0.610 -0.3913 -0.1261  1.6631
 9541TIP3    H250115   2.845   6.786   0.567  0.4550 -2.0593  2.1066
 9542TIP3   OH250116   5.615   2.062  14.990 -0.1288 -0.3740  0.2850
 9542TIP3    H150117   5.692   2.116  14.971 -0.3660 -0.0679  0.1793
 9542TIP3    H250118   5.622   2.043  15.083 -0.1790  0.0598  0.3794
 9543TIP3   OH250119   2.746   2.350   0.259  0.2316 -0.3130  0.1609
 9543TIP3    H150120   2.785   2.380   0.341  0.9250 -0.9269  0.0708
 9543TIP3    H250121   2.723   2.430   0.212  1.3475  0.0739  0.2516
 9544TIP3   OH250122   6.688   2.667  12.647  0.8411 -0.1023  0.3491
 9544TIP3    H150123   6.738   2.719  12.709  2.7453 -0.7467 -0.5687
 9544TIP3    H250124   6.691   2.578  12.682 -2.2602  0.2399  1.8270
 9545TIP3   OH250125   0.688   1.867  13.935  0.4379  0.3194  0.4602
 9545TIP3    H150126   0.783   1.851  13.938  0.2886 -0.6721  0.2773
 9545TIP3    H250127   0.657   1.813  13.862 -0.2291  0.8879  0.3110
 9546TIP3   OH250128   1.637   1.063   5.042  0.2141 -0.1406 -0.0828
 9546TIP3    H150129   1.699   1.035   4.975 -0.2479  1.0026 -1.0267
 9546TIP3    H250130   1.691   1.095   5.114  0.7151 -0.0695 -0.4878
 9547TIP3   OH250131   0.099   2.766   0.442 -0.3695 -0.3035  0.2514
 9547TIP3    H150132   0.099   2.859   0.422 -0.1644 -0.7008 -1.8497
 9547TIP3    H250133   0.191   2.740   0.436 -0.4389 -0.6675  0.6969
 9548TIP3   OH250134   5.779   2.712  15.464 -0.1611  0.2454 -0.2783
 9548TIP3    H150135   5.776   2.622  15.432  1.1955  0.3461 -0.7254
 9548TIP3    H250136   5.851   2.713  15.527 -2.2185  0.2604  2.2156
 9549TIP3   OH250137   2.441   6.664  10.128  0.2255  0.1330  0.5850
 9549TIP3    H150138   2.456   6.606  10.203  0.7464 -0.0110  0.3709
 9549TIP3    H250139   2.443   6.606  10.052 -0.1255  0.3076  0.4391
 9550TIP3   OH250140   2.453   0.950   2.964  0.1084  0.5800 -0.3801
 9550TIP3    H150141   2.483   0.969   2.875 -1.8028  1.2171 -0.9308
 9550TIP3    H250142   2.417   1.033   2.995 -0.5374 -0.0026  0.4575
 9551TIP3   OH250143   5.055   6.032   3.010 -0.0705 -0.1116  0.9273
 9551TIP3    H150144   5.052   6.071   3.098 -0.0628  0.2210  0.7824
 9551TIP3    H250145   5.000   6.090   2.957  0.1125 -0.1816  0.6619
 9552TIP3   OH250146   3.370   4.759   3.049  0.1993 -0.3438  0.1509
 9552TIP3    H150147   3.462   4.750   3.025  0.0708  2.1666 -1.6760
 9552TIP3    H250148   3.325   4.773   2.966 -1.8833 -1.6897  0.9936
 9553TIP3   OH250149   0.253   1.491  12.927 -1.0675  0.0553  0.2631
 9553TIP3    H150150   0.158   1.485  12.934 -1.1269  0.0912 -0.4582
 9553TIP3    H250151   0.283   1.501  13.018 -1.6840 -0.7943  0.5717
 9554TIP3   OH250152   1.249   5.018  12.584  0.2501  0.1454 -0.3842
 9554TIP3    H150153   1.207   4.966  12.516  0.6790  0.7254 -1.1064
 9554TIP3    H250154   1.285   5.094  12.538  2.1600 -0.3566  0.1881
 9555TIP3   OH250155   4.791   3.963   1.129  0.0049 -0.0038  0.1173
 9555TIP3    H150156   4.843   3.901   1.078  1.0870 -0.7284  1.9925
 9555TIP3    H250157   4.857   4.017   1.173 -0.9010  0.8278  0.4804
 9556TIP3   OH250158   6.068   5.767   2.709 -0.3477  0.8272 -0.9861
 9556TIP3    H150159   6.052   5.726   2.794  0.0749  1.0182 -0.8133
 9556TIP3    H250160   5.985   5.809   2.686 -0.5835  0.4396 -0.8555
 9557TIP3   OH250161   6.748   4.980  12.953  0.1299 -0.4155 -0.1120
 9557TIP3    H150162   6.742   4.888  12.928 -0.5777 -1.0676  2.2371
 9557TIP3    H250163   6.657   5.010  12.955  0.4223  0.9502 -2.6939
 9558TIP3   OH250164   3.639   2.595  13.726 -0.0946  0.3279 -0.3294
 9558TIP3    H150165   3.726   2.555  13.730 -0.0690  0.4573  0.6713
 9558TIP3    H250166   3.618   2.616  13.817 -1.1819  0.2838 -0.5544
 9559TIP3   OH250167   5.308   0.116   3.021 -0.1321 -0.1150  0.2179
 9559TIP3    H150168   5.348   0.087   2.939 -0.4373 -1.2321  0.4463
 9559TIP3    H250169   5.304   0.038   3.075  3.0901  1.1527  2.6563
 9560TIP3   OH250170   2.345   0.339   5.281 -0.1555 -0.1943  0.3188
 9560TIP3    H150171   2.397   0.414   5.252 -0.5624 -0.3887 -0.9478
 9560TIP3    H250172   2.393   0.307   5.358  1.2586  0.0257 -0.4223
 9561TIP3   OH250173   2.489   3.817  14.486  0.0620 -0.0173 -0.1264
 9561TIP3    H150174   2.518   3.841  14.575 -1.5626 -0.1732  0.4740
 9561TIP3    H250175   2.563   3.769  14.450  0.5235 -0.5062  1.3794
 9562TIP3   OH250176   4.808   6.397   4.621 -0.4376 -0.0378  0.0829
 9562TIP3    H150177   4.794   6.489   4.647 -4.0055 -0.7868  1.3160
 9562TIP3    H250178   4.821   6.351   4.704 -1.0285 -0.9577 -0.3186
 9563TIP3   OH250179   5.381   1.805  14.104 -0.2828  0.2197 -0.1060
 9563TIP3    H150180   5.462   1.767  14.070 -0.0019  0.6952  0.0297
 9563TIP3    H250181   5.409   1.879  14.158 -0.7044 -0.5228  1.2079
 9564TIP3   OH250182   2.639   4.678  12.719 -0.0049  0.6409  0.9313
 9564TIP3    H150183   2.570   4.717  12.665 -0.5243 -1.0406  0.3188
 9564TIP3    H250184   2.709   4.656  12.657 -0.0180 -0.0153  1.1395
 9565TIP3   OH250185   4.398   4.269  10.913  0.2462  0.2932 -0.1282
 9565TIP3    H150186   4.433   4.183  10.893  1.2845  0.9387 -1.2338
 9565TIP3    H250187   4.307   4.266  10.882  0.4758 -0.2059 -0.7678
 9566TIP3   OH250188   4.674   4.491  14.116  0.0899 -0.2929 -0.1859
 9566TIP3    H150189   4.640   4.402  14.104  0.1206 -0.2619 -0.5206
 9566TIP3    H250190   4.596   4.547  14.110  0.2724 -0.1475 -1.8220
 9567TIP3   OH250191   0.395   3.322  12.487 -0.0044  0.0825  0.3772
 9567TIP3    H150192   0.413   3.369  12.568 -0.3276  0.3704  0.2837
 9567TIP3    H250193   0.467   3.347  12.428 -0.3616  0.7448  0.2088
 9568TIP3   OH250194   3.939   3.771  15.642  0.0844  0.3642  0.1519
 9568TIP3    H150195   3.998   3.793  15.570  2.8469 -0.1221  2.1032
 9568TIP3    H250196   3.884   3.848  15.652  0.6696  1.0398 -1.4838
 9569TIP3   OH250197   3.884   0.396   3.901  0.0825 -0.0484  0.3192
 9569TIP3    H150198   3.977   0.383   3.882  0.1105 -1.9226  1.4350
 9569TIP3    H250199   3.840   0.326   3.853 -0.7303  0.6609  0.0174
 9570TIP3   OH250200   4.571   2.422   5.074  0.1843  0.0407 -0.0324
 9570TIP3    H150201   4.614   2.392   5.154  0.3971 -0.4342 -0.3229
 9570TIP3    H250202   4.639   2.471   5.028 -0.6113  2.4865  1.2266
 9571TIP3   OH250203   5.796   4.590   0.170  0.1596 -0.4835 -0.1051
 9571TIP3    H150204   5.858   4.522   0.147  1.2094  0.0139  1.1064
 9571TIP3    H250205   5.740   4.550   0.236  0.6264 -0.2736  0.4322
 9572TIP3   OH250206   4.488   0.888  13.749  0.3466  0.0062  0.1555
 9572TIP3    H150207   4.508   0.972  13.707  1.1499 -1.3220 -2.3507
 9572TIP3    H250208   4.404   0.861  13.710  0.4815 -0.7078  0.3431
 9573TIP3   OH250209   3.536   2.674  13.097 -0.2571 -0.8120  0.1918
 9573TIP3    H150210   3.624   2.659  13.062  0.2013 -0.5929  1.2249
 9573TIP3    H250211   3.487   2.709  13.023  1.1534  1.2736  0.1670
 9574TIP3   OH250212   6.205   6.729  11.012 -0.0486  0.4492  0.1590
 9574TIP3    H150213   6.174   6.751  10.925  1.2986  1.9514  0.0005
 9574TIP3    H250214   6.199   6.634  11.017 -2.4362  0.4887 -0.6360
 9575TIP3   OH250215   2.295   4.789   4.781 -0.4714 -0.8016 -0.2911
 9575TIP3    H150216   2.261   4.860   4.726  0.5442 -0.2153 -0.1810
 9575TIP3    H250217   2.241   4.714   4.757 -0.0702 -0.5734 -2.1099
 9576TIP3   OH250218   3.763   4.996   0.467  0.3496  0.1715 -0.1700
 9576TIP3    H150219   3.692   4.983   0.405  0.3671 -0.1755 -0.1198
 9576TIP3    H250220   3.785   5.089   0.459  0.1011  0.2117 -0.4087
 9577TIP3   OH250221   0.098   4.243  15.426 -0.1987  0.3877  0.9757
 9577TIP3    H150222   0.109   4.213  15.516 -1.2548  0.2785  1.0877
 9577TIP3    H250223   0.064   4.332  15.435  0.0400  0.5077  0.6812
 9578TIP3   OH250224   0.715   3.554  15.532 -0.2387  0.4291  0.2202
 9578TIP3    H150225   0.770   3.588  15.462 -0.7572 -0.0089 -0.4155
 9578TIP3    H250226   0.660   3.488  15.489 -1.3813  0.9855  0.7969
 9579TIP3   OH250227   3.360   5.875  15.162 -0.2810 -0.4001 -0.9172
 9579TIP3    H150228   3.343   5.920  15.245 -0.9052 -1.8873 -0.2022
 9579TIP3    H250229   3.274   5.869  15.120 -0.3456 -1.5900 -0.6362
 9580TIP3   OH250230   6.698   6.750  11.864  0.6718  0.4860  0.5179
 9580TIP3    H150231   6.617   6.785  11.826  0.5201  0.3875  0.7484
 9580TIP3    H250232   6.765   6.815  11.842  0.9456 -0.4151 -1.4452
 9581TIP3   OH250233   4.250   4.246  10.700  0.5057  0.2983  0.5041
 9581TIP3    H150234   4.229   4.153  10.709 -3.1174  0.9558  0.4768
 9581TIP3    H250235   4.246   4.263  10.606  1.6990  0.4052  0.4643
 9582TIP3   OH250236   5.050   4.285   2.479 -0.0158 -0.2617 -0.0912
 9582TIP3    H150237   4.971   4.333   2.503 -0.5900 -1.1129 -0.2123
 9582TIP3    H250238   5.072   4.234   2.557  0.1113 -0.4154 -0.2242
 9583TIP3   OH250239   4.136   3.439  13.961  0.2717 -0.2273 -0.2810
 9583TIP3    H150240   4.081   3.513  13.989 -2.9099 -2.6499  0.4603
 9583TIP3    H250241   4.164   3.463  13.872 -1.3179  1.5231 -0.3861
 9584TIP3   OH250242   1.645   0.711  12.696  0.5689 -0.3893  0.2519
 9584TIP3    H150243   1.566   0.694  12.646  0.5236  1.1237 -0.2285
 9584TIP3    H250244   1.716   0.706  12.632  0.7334 -0.5546  0.4453
 9585TIP3   OH250245   3.408   0.795   0.172  0.1209 -0.0645 -0.6618
 9585TIP3    H150246   3.407   0.724   0.237 -1.6351  0.7339  0.2709
 9585TIP3    H250247   3.380   0.872   0.221  2.9544  1.5681 -1.4118
 9586TIP3   OH250248   4.905   5.986   5.132 -0.6979  0.2854 -0.4308
 9586TIP3    H150249   4.984   5.953   5.088 -0.3407 -0.7582  0.9456
 9586TIP3    H250250   4.834   5.932   5.097 -0.5121 -0.1158 -0.1820
 9587TIP3   OH250251   2.045   1.321  13.720 -0.0706  0.7676  0.5115
 9587TIP3    H150252   2.003   1.390  13.771  0.2827 -0.1072  2.0564
 9587TIP3    H250253   2.130   1.308  13.762  1.3357  1.7127 -1.8673
 9588TIP3   OH250254   2.314   3.130   1.888  0.5051  0.3847  0.2832
 9588TIP3    H150255   2.312   3.202   1.952 -0.5887 -0.0822  0.7874
 9588TIP3    H250256   2.227   3.092   1.891  1.3101 -1.5348  0.6597
 9589TIP3   OH250257   1.117   0.322  15.684  0.5334  0.1564 -0.1399
 9589TIP3    H150258   1.182   0.372  15.634  0.3491  2.1250  1.4802
 9589TIP3    H250259   1.143   0.334  15.775 -1.3746 -0.0505  0.4701
 9590TIP3   OH250260   0.662   0.814  14.722  0.3313 -0.0723  0.3971
 9590TIP3    H150261   0.650   0.807  14.627  2.1212 -0.5224  0.1707
 9590TIP3    H250262   0.627   0.900  14.744 -0.1948  0.0039 -0.6484
 9591TIP3   OH250263   4.400   3.041  10.912 -0.7855  0.1715  0.3338
 9591TIP3    H150264   4.413   3.135  10.899  0.4505  0.0917  0.8116
 9591TIP3    H250265   4.309   3.026  10.890 -0.7075  1.2920 -0.8663
 9592TIP3   OH250266   2.372   0.033  16.834 -0.7171 -0.1098  0.0212
 9592TIP3    H150267   2.336  -0.052  16.810 -2.6944  0.5673  0.4749
 9592TIP3    H250268   2.383   0.079  16.751 -1.1814 -0.2080 -0.0930
 9593TIP3   OH250269   3.860   1.386  12.957 -0.8080 -0.1836  0.4409
 9593TIP3    H150270   3.922   1.440  13.006  1.0546 -1.3104 -0.5392
 9593TIP3    H250271   3.824   1.444  12.891 -1.6548  0.7716  1.7053
 9594TIP3   OH250272   2.640   3.638  15.702  0.4872  0.0743  0.0338
 9594TIP3    H150273   2.562   3.590  15.728 -0.1294  1.1454  0.2287
 9594TIP3    H250274   2.612   3.690  15.626  0.7569  1.0983  0.6137
 9595TIP3   OH250275   0.794   6.377  12.209 -0.2153 -0.2699 -0.6420
 9595TIP3    H150276   0.705   6.402  12.232  0.1194  0.9185 -0.5279
 9595TIP3    H250277   0.836   6.460  12.184 -0.2003 -1.2590 -4.4273
 9596TIP3   OH250278   2.816   0.518  14.085  0.6393  0.2489 -0.2054
 9596TIP3    H150279   2.779   0.453  14.145  1.3631 -0.8910 -0.9441
 9596TIP3    H250280   2.820   0.473  14.001  0.1652  1.6307 -0.9878
 9597TIP3   OH250281   0.514   6.763  12.897  0.2566 -0.7196 -0.2307
 9597TIP3    H150282   0.587   6.727  12.848  0.6402 -0.5717  0.2239
 9597TIP3    H250283   0.489   6.842  12.849  0.2653 -0.8802 -0.4975
 9598TIP3   OH250284   2.037   1.849  15.937  0.0611  0.3616 -0.0300
 9598TIP3    H150285   1.982   1.805  16.001 -1.6487  1.8865 -0.3748
 9598TIP3    H250286   2.064   1.931  15.980  0.7940  0.3527 -0.4425
 9599TIP3   OH250287   4.509   4.937  13.453 -0.1485 -0.4111  0.3076
 9599TIP3    H150288   4.574   4.884  13.408  0.5686 -2.0369  3.0568
 9599TIP3    H250289   4.478   4.999  13.386  2.5967 -1.0035 -1.6624
 9600TIP3   OH250290   2.503   0.805  15.222 -0.1130  0.3158 -0.0963
 9600TIP3    H150291   2.503   0.888  15.270  1.7430  1.0193 -1.1800
 9600TIP3    H250292   2.413   0.772  15.229 -0.3698  1.3649  2.1132
 9601TIP3   OH250293   4.283   6.125   3.449 -0.7990 -0.1582 -0.2835
 9601TIP3    H150294   4.371   6.099   3.422 -0.3771 -1.4623  2.0320
 9601TIP3    H250295   4.298   6.195   3.513 -1.3978 -0.6842  0.4468
 9602TIP3   OH250296   6.310   2.177   0.336  0.2980 -0.6094 -0.7173
 9602TIP3    H150297   6.246   2.196   0.404  1.5830  1.4351  0.0040
 9602TIP3    H250298   6.259   2.139   0.264 -1.4820 -0.2691  0.3158
 9603TIP3   OH250299   6.572   2.224   5.320  0.3517  0.1693 -0.1933
 9603TIP3    H150300   6.575   2.315   5.350 -0.1058 -0.6944  2.8645
 9603TIP3    H250301   6.499   2.186   5.368 -1.8461 -1.0590 -4.0550
 9604TIP3   OH250302   0.102   6.266   0.305  0.2056 -0.0850  0.1081
 9604TIP3    H150303   0.127   6.185   0.349  1.9346 -0.2980 -1.1737
 9604TIP3    H250304   0.108   6.333   0.372 -0.0250 -0.8226  0.8823
 9605TIP3   OH250305   0.639   1.598  10.949  0.4857 -0.0515 -0.1724
 9605TIP3    H150306   0.665   1.507  10.935 -0.8340 -0.2629 -1.4816
 9605TIP3    H250307   0.614   1.630  10.863  0.7732  1.5317  0.2885
 9606TIP3   OH250308   3.844   0.538  16.666 -0.0509  0.1012 -0.0619
 9606TIP3    H150309   3.782   0.541  16.739 -0.3129 -0.6058 -0.2444
 9606TIP3    H250310   3.803   0.478  16.603  0.6108 -0.0212 -0.3792
 9607TIP3   OH250311   2.219   5.057   5.411 -0.2428 -0.7711 -0.1164
 9607TIP3    H150312   2.298   5.065   5.357 -0.9495  1.1349 -0.9425
 9607TIP3    H250313   2.251   5.062   5.501  0.5561  0.4185 -0.4442
 9608TIP3   OH250314   0.936   4.516   6.228 -0.1410 -0.0060 -0.0101
 9608TIP3    H150315   0.865   4.453   6.218 -0.4214  0.0470  1.4486
 9608TIP3    H250316   1.011   4.464   6.256 -1.0150  0.4762  3.7716
 9609TIP3   OH250317   2.433   4.007  12.622  0.2685 -0.3052  0.0727
 9609TIP3    H150318   2.420   3.955  12.543  1.5319 -0.3611 -0.1149
 9609TIP3    H250319   2.434   3.943  12.693  2.7367 -0.7216 -0.2411
 9610TIP3   OH250320   0.936   3.488   0.377  0.1101  0.3463  0.0444
 9610TIP3    H150321   0.894   3.408   0.411  1.7915 -0.3960  0.4707
 9610TIP3    H250322   0.991   3.519   0.449  0.7587  0.9524 -0.6944
 9611TIP3   OH250323   0.019   4.507   5.519 -0.5181 -0.1977 -0.2182
 9611TIP3    H150324   0.040   4.523   5.611 -1.7078 -0.6096  0.1390
 9611TIP3    H250325  -0.060   4.454   5.521  0.4272 -1.7645 -1.4365
 9612TIP3   OH250326   1.798   2.774   0.248  0.2325 -0.1038 -0.0108
 9612TIP3    H150327   1.783   2.684   0.278 -0.3259 -0.9885 -2.6579
 9612TIP3    H250328   1.888   2.793   0.276  0.8027 -1.9643 -0.3621
 9613TIP3   OH250329   6.060   6.762  12.483 -0.6154 -0.5321  0.0093
 9613TIP3    H150330   5.985   6.787  12.430 -1.0910  0.0471  0.9240
 9613TIP3    H250331   6.029   6.767  12.574  0.9161  1.2305  0.5207
 9614TIP3   OH250332   3.754   1.883  11.136 -0.1948 -0.1196  0.1642
 9614TIP3    H150333   3.831   1.929  11.169 -0.0784  1.0702 -1.6045
 9614TIP3    H250334   3.700   1.952  11.096 -1.6070 -1.0954  0.2909
 9615TIP3   OH250335   2.903   3.446   0.775 -0.5909 -0.3342 -0.1733
 9615TIP3    H150336   2.822   3.423   0.730 -1.1877  0.8605  0.2464
 9615TIP3    H250337   2.963   3.374   0.755 -1.9665 -1.6016  0.0722
 9616TIP3   OH250338   0.659   1.119   3.779  0.4321  0.1321  0.1517
 9616TIP3    H150339   0.685   1.127   3.687 -1.0036  0.7345 -0.2313
 9616TIP3    H250340   0.565   1.138   3.779  0.2657 -0.5381  1.6542
 9617TIP3   OH250341   1.399   3.904  13.613 -0.1870  0.3951  0.2421
 9617TIP3    H150342   1.337   3.831  13.607 -0.5647  0.7361 -0.1091
 9617TIP3    H250343   1.484   3.865  13.592 -0.4184  0.1024 -0.1721
 9618TIP3   OH250344   3.369   2.213   3.567  0.1779 -0.6421  0.0663
 9618TIP3    H150345   3.376   2.247   3.477 -1.3293 -0.9980 -0.2168
 9618TIP3    H250346   3.428   2.137   3.568  2.4388  1.0341  0.2728
 9619TIP3   OH250347   0.933   4.106  13.349  0.3257  0.6532  0.4169
 9619TIP3    H150348   0.886   4.185  13.324  1.4014  1.6337  1.4205
 9619TIP3    H250349   0.871   4.057  13.403 -1.0673 -0.2096 -1.8000
 9620TIP3   OH250350   2.650   6.229   3.284 -0.1289  0.1532 -0.2760
 9620TIP3    H150351   2.616   6.168   3.349  0.0657  0.4570  0.1135
 9620TIP3    H250352   2.703   6.174   3.226 -0.2818 -0.1156 -0.1646
 9621TIP3   OH250353   5.570   5.522   5.386  0.6097 -0.0435 -0.5873
 9621TIP3    H150354   5.531   5.609   5.381 -0.2516 -0.4141 -0.3666
 9621TIP3    H250355   5.524   5.471   5.319 -0.4652 -0.9323  0.7889
 9622TIP3   OH250356   4.376   5.299  11.862 -0.0631 -0.6733  0.0615
 9622TIP3    H150357   4.401   5.217  11.905 -2.0699 -2.3538 -1.7423
 9622TIP3    H250358   4.401   5.286  11.770 -0.8476  0.5314 -0.3418
 9623TIP3   OH250359   0.979   3.975  11.808 -0.0522 -0.1515 -0.0744
 9623TIP3    H150360   1.063   4.021  11.806 -0.3052  0.5193  1.9461
 9623TIP3    H250361   0.983   3.914  11.734  0.6949  2.4168 -2.3479
 9624TIP3   OH250362   3.239   5.702   0.452  0.1019  0.2697 -0.4247
 9624TIP3    H150363   3.185   5.623   0.453  0.0495  0.3081  0.6376
 9624TIP3    H250364   3.215   5.748   0.532  2.7126 -0.4200  0.8761
 9625TIP3   OH250365   4.209   2.749   0.991  0.2860 -0.2312 -0.4736
 9625TIP3    H150366   4.288   2.803   0.984  0.4768 -0.1403  1.8364
 9625TIP3    H250367   4.242   2.659   0.997  0.0207 -0.5587 -2.8532
 9626TIP3   OH250368   6.470   1.342   3.743 -0.3110  0.4406 -0.2894
 9626TIP3    H150369   6.528   1.346   3.819  1.3970  1.1081 -1.5427
 9626TIP3    H250370   6.517   1.287   3.680 -1.4820  0.2438 -1.0207
 9627TIP3   OH250371   3.063   3.454  15.978 -0.5434 -0.8198 -1.0134
 9627TIP3    H150372   3.110   3.530  16.012 -0.4488 -1.2499 -0.1637
 9627TIP3    H250373   3.113   3.379  16.009 -1.4905 -1.2759 -0.5418
 9628TIP3   OH250374   5.470   4.420  16.670 -0.0370 -0.8963 -0.1415
 9628TIP3    H150375   5.438   4.503  16.633  0.1362 -0.6460  0.2648
 9628TIP3    H250376   5.563   4.436  16.686 -0.7016  0.2292  3.6443
 9629TIP3   OH250377   6.436   5.736   1.662 -0.0201 -0.4772  0.2955
 9629TIP3    H150378   6.406   5.672   1.727 -0.9280  0.6563  1.0216
 9629TIP3    H250379   6.515   5.774   1.702 -1.4096  1.2977  1.4972
 9630TIP3   OH250380   2.381   1.462  10.934  0.1773  0.3003  0.7048
 9630TIP3    H150381   2.462   1.476  10.984 -0.1359  1.8960  0.8469
 9630TIP3    H250382   2.381   1.533  10.869  0.4844 -1.6303 -1.5046
 9631TIP3   OH250383   4.167   2.408   0.583  0.7856  0.1538  0.7319
 9631TIP3    H150384   4.187   2.501   0.570  1.3617  0.0688  1.0019
 9631TIP3    H250385   4.148   2.400   0.676 -1.5442  0.4161  0.3494
 9632TIP3   OH250386   6.423   1.307   6.819 -0.6090 -0.8823  0.0547
 9632TIP3    H150387   6.411   1.217   6.787 -0.0485 -1.4050  1.2779
 9632TIP3    H250388   6.360   1.316   6.890  0.8451 -1.0758  1.4167
 9633TIP3   OH250389   3.822   1.325  16.136  0.2532  0.4947  0.2958
 9633TIP3    H150390   3.767   1.256  16.099  0.7245  1.2029 -1.8499
 9633TIP3    H250391   3.837   1.297  16.226 -1.8883 -0.7533  0.3514
 9634TIP3   OH250392   2.625   6.662  11.461 -0.3437 -0.2757 -0.0365
 9634TIP3    H150393   2.647   6.581  11.508 -1.3991  0.4469  1.7624
 9634TIP3    H250394   2.710   6.706  11.450  0.0079 -0.7896  0.5360
 9635TIP3   OH250395   1.302   1.855   4.439  0.1108  0.1969 -0.0845
 9635TIP3    H150396   1.289   1.760   4.443  0.0068  0.2440  3.5188
 9635TIP3    H250397   1.217   1.890   4.414 -0.1437 -0.5824 -0.3340
 9636TIP3   OH250398   6.581   3.367  11.020 -0.3963  0.5372  0.0566
 9636TIP3    H150399   6.538   3.306  10.960  2.0703  1.3563 -2.7753
 9636TIP3    H250400   6.521   3.441  11.025 -1.5407 -0.3629  0.2487
 9637TIP3   OH250401   5.572   1.245   0.904 -0.4086 -0.6571  0.6796
 9637TIP3    H150402   5.489   1.251   0.952 -0.6640  0.3373  0.1474
 9637TIP3    H250403   5.597   1.336   0.888  1.4056 -0.9142  1.8546
 9638TIP3   OH250404   5.545   6.130   3.722  0.2144 -0.3224  0.3890
 9638TIP3    H150405   5.541   6.205   3.782  0.3940  1.2313 -1.4252
 9638TIP3    H250406   5.622   6.146   3.669  0.0482 -1.6372 -0.2899
 9639TIP3   OH250407   1.205   0.807   0.761 -0.1531  0.0504 -0.0589
 9639TIP3    H150408   1.205   0.820   0.666  0.6213  1.8923  0.1563
 9639TIP3    H250409   1.294   0.831   0.788 -0.8981  1.3428  1.3385
 9640TIP3   OH250410   5.246   3.736  15.863  0.0708 -0.6771 -0.0412
 9640TIP3    H150411   5.254   3.829  15.886 -1.6608 -0.4224 -0.3018
 9640TIP3    H250412   5.232   3.736  15.768 -0.0314 -1.1978 -0.0285
 9641TIP3   OH250413   6.327   5.754  12.276 -0.3629  0.4404  0.2431
 9641TIP3    H150414   6.376   5.816  12.222 -1.2047  1.2102  0.3274
 9641TIP3    H250415   6.279   5.809  12.337 -2.5721 -0.1537 -0.8532
 9642TIP3   OH250416   3.321   6.730   0.105 -0.0905 -0.1701  0.0647
 9642TIP3    H150417   3.331   6.763   0.195  0.3400  2.5176 -0.8604
 9642TIP3    H250418   3.291   6.640   0.116 -0.4593  0.1851  2.9007
 9643TIP3   OH250419   4.327   5.298   3.465  0.0006  0.0954 -0.4453
 9643TIP3    H150420   4.285   5.356   3.529  0.3437 -0.2468  0.1003
 9643TIP3    H250421   4.339   5.353   3.387  1.6855  1.2195  0.5509
 9644TIP3   OH250422   3.919   4.183   5.979  0.3348 -0.1009 -0.3676
 9644TIP3    H150423   3.958   4.270   5.988  1.9089 -0.8393  0.2608
 9644TIP3    H250424   3.839   4.199   5.929  0.2803  1.7789  0.2307
 9645TIP3   OH250425   0.999   1.543   2.276  0.1648 -0.4522  0.5796
 9645TIP3    H150426   1.010   1.453   2.247 -0.5204  0.1685 -1.8486
 9645TIP3    H250427   1.072   1.559   2.336 -0.4499 -2.9647  2.1127
 9646TIP3   OH250428   0.400   4.575  17.233 -0.0237  0.3890  0.2570
 9646TIP3    H150429   0.433   4.549  17.147  0.8994 -1.9883  1.2574
 9646TIP3    H250430   0.376   4.667  17.222 -1.9815 -0.3436 -3.1098
 9647TIP3   OH250431   5.360   2.650   5.445 -0.5735  0.0301 -0.2246
 9647TIP3    H150432   5.360   2.729   5.390 -0.7950  0.6131  0.5897
 9647TIP3    H250433   5.450   2.618   5.441 -0.8588 -0.6947 -1.9594
 9648TIP3   OH250434   2.550   4.792   0.531 -0.0386 -0.7162  0.2399
 9648TIP3    H150435   2.484   4.760   0.469  1.1219 -0.6044 -1.1117
 9648TIP3    H250436   2.616   4.835   0.476 -0.1835  1.6443  1.7549
 9649TIP3   OH250437   0.178   5.210   2.191  0.2462 -0.1687 -0.5265
 9649TIP3    H150438   0.138   5.295   2.208 -1.3952 -1.1142  0.5530
 9649TIP3    H250439   0.227   5.190   2.270 -1.5737 -1.3796  0.3676
 9650TIP3   OH250440   5.882   0.777  14.087  0.5917 -0.0893  0.0946
 9650TIP3    H150441   5.959   0.826  14.058  1.0244  0.3163  1.8413
 9650TIP3    H250442   5.827   0.841  14.131  0.3003 -0.8184  0.8247
 9651TIP3   OH250443   4.495   0.777   4.618  0.5172  0.0605 -0.0438
 9651TIP3    H150444   4.414   0.828   4.608 -0.2140 -0.8267  1.0223
 9651TIP3    H250445   4.555   0.837   4.662 -0.1889  0.1735  0.8130
 9652TIP3   OH250446   2.812   0.754   1.251  0.2486  0.1292  0.0426
 9652TIP3    H150447   2.887   0.724   1.302  1.5025  1.8594 -0.6794
 9652TIP3    H250448   2.796   0.844   1.282  1.0908  1.2619 -2.5252
 9653TIP3   OH250449   2.483   0.403   1.154 -0.0273  0.2764 -0.5676
 9653TIP3    H150450   2.531   0.327   1.187 -2.1854 -0.6481  0.6578
 9653TIP3    H250451   2.538   0.438   1.084  1.7081 -1.5371 -0.1942
 9654TIP3   OH250452   0.698   6.310   3.969 -0.5099  0.2570  0.2449
 9654TIP3    H150453   0.727   6.275   4.053 -1.2919 -2.2765 -0.4613
 9654TIP3    H250454   0.778   6.337   3.925  0.0869 -0.2450  1.0117
 9655TIP3   OH250455   6.648   2.828  13.254  0.6797  0.3966 -0.1297
 9655TIP3    H150456   6.731   2.822  13.206 -0.1295 -2.9226 -1.4436
 9655TIP3    H250457   6.671   2.811  13.345  1.6507  1.5281 -0.1485
 9656TIP3   OH250458   4.122   2.835  12.369 -0.1480  0.0273 -0.1908
 9656TIP3    H150459   4.118   2.810  12.461  2.3123  1.1212  0.3247
 9656TIP3    H250460   4.171   2.764  12.327 -0.9097 -0.2728 -0.5778
 9657TIP3   OH250461   0.695   2.994   2.144 -0.3270  0.3965 -0.4769
 9657TIP3    H150462   0.734   2.995   2.232 -3.4934 -1.6469  1.1251
 9657TIP3    H250463   0.670   3.085   2.128  3.7470  1.6131 -1.1464
 9658TIP3   OH250464   1.049   3.604  14.087  0.2929 -0.9249 -0.3262
 9658TIP3    H150465   0.973   3.598  14.145  0.4812 -1.0482 -0.0897
 9658TIP3    H250466   1.014   3.637  14.004  0.2624  0.9228  0.3590
 9659TIP3   OH250467   5.942   0.069   5.168 -0.7207  0.6514 -0.3010
 9659TIP3    H150468   5.936  -0.025   5.184  0.6550  0.3392 -1.4036
 9659TIP3    H250469   5.859   0.104   5.200 -1.1737 -0.9007  0.3237
 9660TIP3   OH250470   3.549   2.850  11.227  0.2627 -0.3119 -0.3045
 9660TIP3    H150471   3.614   2.811  11.168  0.1152  0.3896 -0.9514
 9660TIP3    H250472   3.510   2.920  11.175 -0.3170 -0.0904  0.4246
 9661TIP3   OH250473   6.705   6.159  16.688 -0.3241 -0.0865  0.0242
 9661TIP3    H150474   6.614   6.165  16.657 -0.8080 -1.0413  1.1799
 9661TIP3    H250475   6.718   6.239  16.738  0.1775  1.0475 -1.8299
 9662TIP3   OH250476   2.864   1.710   5.181  0.3953  0.2889  0.0649
 9662TIP3    H150477   2.947   1.702   5.229 -0.0122  0.7554  0.8599
 9662TIP3    H250478   2.861   1.802   5.154  0.1898  0.2444 -0.0593
 9663TIP3   OH250479   6.473   1.901   0.981  0.0289  0.0507  0.1901
 9663TIP3    H150480   6.475   1.808   1.004  0.2029 -0.3032 -1.1684
 9663TIP3    H250481   6.520   1.906   0.897 -0.7042  1.2350 -0.1780
 9664TIP3   OH250482   1.301   6.430  15.711 -0.3886 -0.4358 -0.3426
 9664TIP3    H150483   1.370   6.438  15.777 -0.6793 -0.7693  0.0005
 9664TIP3    H250484   1.324   6.352  15.661 -0.8920 -0.9576  0.2200
 9665TIP3   OH250485   3.623   6.394   0.066  0.4652 -0.0989  0.0768
 9665TIP3    H150486   3.693   6.445   0.107  1.3041 -0.7933 -0.4307
 9665TIP3    H250487   3.627   6.419  -0.027 -0.1543  0.0738  0.0973
 9666TIP3   OH250488   2.100   3.136  15.936  0.1149 -0.9177 -0.2853
 9666TIP3    H150489   2.052   3.074  15.992 -1.7719 -0.5536 -1.4062
 9666TIP3    H250490   2.068   3.222  15.963 -1.5751 -0.7705 -2.4631
 9667TIP3   OH250491   1.975   6.806  14.527  0.1098 -0.2827 -0.0129
 9667TIP3    H150492   1.882   6.825  14.541  0.3020  0.3519  0.4292
 9667TIP3    H250493   1.990   6.725  14.577  0.2725  0.7615  1.6995
 9668TIP3   OH250494   0.493   6.500   3.232 -0.2295  0.3937  0.2351
 9668TIP3    H150495   0.546   6.515   3.311  0.6900  1.2197 -0.5093
 9668TIP3    H250496   0.556   6.472   3.166 -0.9039  0.2776 -0.3688
 9669TIP3   OH250497   1.283   4.164   0.951 -0.2422  0.1179  0.0732
 9669TIP3    H150498   1.226   4.118   1.014  0.4467  0.9797  1.3584
 9669TIP3    H250499   1.356   4.195   1.003  0.6163  0.4225 -1.2735
 9670TIP3   OH250500   3.533   1.200   5.642 -0.4035  0.3719  0.8812
 9670TIP3    H150501   3.626   1.178   5.639 -0.3905 -0.1178 -4.3928
 9670TIP3    H250502   3.531   1.296   5.640  0.0892  0.3767 -0.0558
 9671TIP3   OH250503   6.687   2.823  16.253 -0.4972 -0.1712  0.1060
 9671TIP3    H150504   6.745   2.883  16.300  0.3129 -1.2111  0.4812
 9671TIP3    H250505   6.746   2.768  16.202 -1.2369 -0.5009 -0.4080
 9672TIP3   OH250506   4.688   0.750  12.464 -0.2813  0.3716  0.2454
 9672TIP3    H150507   4.719   0.701  12.388 -1.7266  2.0616 -1.5483
 9672TIP3    H250508   4.620   0.694  12.502  1.1148 -0.9126  0.9030
 9673TIP3   OH250509   4.614   2.163   2.476  0.2212  0.3721 -0.3778
 9673TIP3    H150510   4.671   2.144   2.550  0.2171 -2.0439 -0.9231
 9673TIP3    H250511   4.663   2.225   2.423  1.8443 -0.7509 -0.2394
 9674TIP3   OH250512   4.628   4.336   5.290  0.1227  0.4499 -0.2860
 9674TIP3    H150513   4.568   4.352   5.217 -1.4152  1.0201  1.0334
 9674TIP3    H250514   4.677   4.418   5.299  0.9420  0.0817 -1.1867
 9675TIP3   OH250515   0.330   3.583   2.298  0.4403  0.3022 -0.0208
 9675TIP3    H150516   0.375   3.584   2.213  0.1078  0.6049 -0.1944
 9675TIP3    H250517   0.342   3.493   2.330  0.2419  0.0759 -0.5655
 9676TIP3   OH250518   5.822   6.736  13.674 -0.5027  0.0211 -0.3180
 9676TIP3    H150519   5.865   6.710  13.755 -1.0060  1.3124  0.4031
 9676TIP3    H250520   5.790   6.825  13.692 -1.2912  0.0360 -1.6692
 9677TIP3   OH250521   4.866   6.252  11.612 -0.6601 -0.2728  0.0193
 9677TIP3    H150522   4.902   6.309  11.545  1.6008  0.6586  1.9050
 9677TIP3    H250523   4.856   6.167  11.568  2.0485 -0.0678 -1.2070
 9678TIP3   OH250524   0.439   2.821  13.963  0.2994 -0.1006 -0.0662
 9678TIP3    H150525   0.450   2.730  13.988 -2.3454 -0.3217  0.6337
 9678TIP3    H250526   0.363   2.822  13.905 -0.6648  1.7678  1.0987
 9679TIP3   OH250527   4.480   1.696   2.928 -0.5552 -0.3147  0.4351
 9679TIP3    H150528   4.436   1.667   3.007 -0.1688  0.5183  0.9740
 9679TIP3    H250529   4.546   1.758   2.959  0.0765 -0.5134 -0.4793
 9680TIP3   OH250530   5.557   5.938   4.687 -0.1192 -0.1976  0.0741
 9680TIP3    H150531   5.557   5.889   4.604  0.2893 -1.9581  1.0614
 9680TIP3    H250532   5.649   5.961   4.701 -0.1015 -0.4472  0.3536
 9681TIP3   OH250533   2.843   0.098  12.953 -0.5855  0.2987 -0.3724
 9681TIP3    H150534   2.876   0.113  12.864 -0.1420  0.9027 -0.1162
 9681TIP3    H250535   2.914   0.127  13.010 -0.7298 -0.4184  0.1797
 9682TIP3   OH250536   5.327   1.067  15.314 -0.8935 -0.2570  0.5327
 9682TIP3    H150537   5.397   1.006  15.289  2.0798  2.5995  1.2347
 9682TIP3    H250538   5.292   1.031  15.395  0.6880 -1.1203  0.8702
 9683TIP3   OH250539   2.687   5.703   1.323  0.0508  0.5660 -0.5959
 9683TIP3    H150540   2.716   5.612   1.333 -0.9401  0.2862 -0.0825
 9683TIP3    H250541   2.723   5.748   1.399 -1.4805  0.0321  0.5092
 9684TIP3   OH250542   5.837   0.409  14.601 -0.4094  0.5824  0.5762
 9684TIP3    H150543   5.784   0.346  14.551  0.3260 -0.1490  0.6944
 9684TIP3    H250544   5.837   0.375  14.690  2.0649 -0.7205  0.1804
 9685TIP3   OH250545   3.558   4.567   2.272  0.7351 -0.5749  0.7079
 9685TIP3    H150546   3.594   4.626   2.206 -0.1080 -1.4737 -0.5962
 9685TIP3    H250547   3.464   4.585   2.273  0.6419 -1.0371  1.1952
 9686TIP3   OH250548   5.022   6.376   1.434  0.2618 -0.1684 -0.2297
 9686TIP3    H150549   5.020   6.338   1.522  1.3454 -0.3460 -0.2725
 9686TIP3    H250550   5.109   6.414   1.426  0.4091 -0.6987 -1.4479
 9687TIP3   OH250551   1.858   4.553  14.542 -0.2952 -0.0058  0.4566
 9687TIP3    H150552   1.802   4.575  14.467  0.2645 -0.7463 -0.1857
 9687TIP3    H250553   1.913   4.481  14.511  1.6852  1.3192  0.7683
 9688TIP3   OH250554   2.347   5.089   6.466  0.2430  0.3512 -0.1133
 9688TIP3    H150555   2.269   5.142   6.484  0.4170 -0.3026  3.2464
 9688TIP3    H250556   2.351   5.083   6.370 -4.6575 -0.7589 -0.4998
 9689TIP3   OH250557   5.965   2.928  14.240 -0.2648 -0.3023  0.3049
 9689TIP3    H150558   5.966   3.011  14.192 -1.3329 -0.6328 -0.3275
 9689TIP3    H250559   5.878   2.892  14.222  0.5143 -2.0166 -0.2114
 9690TIP3   OH250560   1.025   5.875  16.135  0.4400 -0.0262 -0.0281
 9690TIP3    H150561   0.974   5.874  16.054  1.6534 -3.0428 -0.8972
 9690TIP3    H250562   0.998   5.796  16.182  1.9887  0.0175  1.0047
 9691TIP3   OH250563   5.199   6.573  15.524  0.0037 -0.0758  0.1538
 9691TIP3    H150564   5.135   6.531  15.581  0.1185  0.0888  0.4050
 9691TIP3    H250565   5.146   6.623  15.462 -0.1059  0.2239  0.4882
 9692TIP3   OH250566   2.248   2.268  14.741  0.2442  0.3412  0.4286
 9692TIP3    H150567   2.197   2.286  14.661  1.5180 -0.2683 -0.5627
 9692TIP3    H250568   2.241   2.173  14.753  2.5757 -0.0588 -0.8012
 9693TIP3   OH250569   5.670   2.897  16.298  0.9949 -0.6202 -0.0703
 9693TIP3    H150570   5.626   2.886  16.214  0.5810  0.5758 -0.0143
 9693TIP3    H250571   5.600   2.898  16.363  0.8944  2.6452 -0.0968
 9694TIP3   OH250572   2.896   0.036  11.315 -0.4809  0.0073  0.0330
 9694TIP3    H150573   2.853   0.108  11.270 -1.0942  0.4721  1.3085
 9694TIP3    H250574   2.987   0.064  11.325 -0.5416  0.2685 -0.1624
 9695TIP3   OH250575   2.609   6.233  11.197  0.2261 -0.2185  0.3887
 9695TIP3    H150576   2.580   6.214  11.107 -0.3384  1.7454  0.1053
 9695TIP3    H250577   2.608   6.329  11.202  1.8803 -0.2451  1.9806
 9696TIP3   OH250578   6.715   2.405   2.920 -0.0139 -0.5263  0.5099
 9696TIP3    H150579   6.805   2.398   2.950  0.4960 -0.7953 -0.9656
 9696TIP3    H250580   6.714   2.482   2.864 -0.6724 -0.5908  0.4228
 9697TIP3   OH250581   0.334   6.000  10.217 -0.0584 -0.5510  0.3597
 9697TIP3    H150582   0.318   6.018  10.309  1.3355 -0.5404  0.6192
 9697TIP3    H250583   0.251   5.964  10.185 -1.3068  1.5651  1.0350
 9698TIP3   OH250584   4.760   5.668   1.067  0.0307  0.0532 -0.1287
 9698TIP3    H150585   4.840   5.710   1.098 -0.8805  1.2633  0.6746
 9698TIP3    H250586   4.780   5.643   0.976  1.3334  0.2366  0.0807
 9699TIP3   OH250587   6.073   4.492  17.230 -0.1174  0.5990 -0.2903
 9699TIP3    H150588   6.047   4.412  17.184 -1.7406  0.3195  1.0317
 9699TIP3    H250589   6.066   4.469  17.323  1.5798  1.6187  0.1375
 9700TIP3   OH250590   4.366   5.265   3.161  0.1573 -0.0698  0.3478
 9700TIP3    H150591   4.308   5.189   3.157 -0.9213  0.7175  0.5068
 9700TIP3    H250592   4.430   5.243   3.228 -2.0451  0.3954  2.7751
 9701TIP3   OH250593   5.611   5.113  16.745  0.7281 -0.2055 -0.2424
 9701TIP3    H150594   5.518   5.129  16.734  0.4423 -1.2298  0.5356
 9701TIP3    H250595   5.654   5.183  16.695 -0.4334  1.0433  0.4627
 9702TIP3   OH250596   2.596   6.185  11.717  0.2408  0.4202  0.3021
 9702TIP3    H150597   2.520   6.237  11.740 -0.3483 -0.4184  0.2874
 9702TIP3    H250598   2.590   6.107  11.772  1.6432  0.7937  1.0574
 9703TIP3   OH250599   6.014   6.352   6.316  0.0525 -0.0417  1.0135
 9703TIP3    H150600   5.939   6.348   6.376  0.6328  1.8036  1.9190
 9703TIP3    H250601   6.085   6.390   6.368  0.7668  1.0164 -0.6648
 9704TIP3   OH250602   4.568   4.728  13.682  0.1479  0.3560 -0.3510
 9704TIP3    H150603   4.489   4.675  13.670  1.0066 -0.8334 -0.9939
 9704TIP3    H250604   4.548   4.785  13.756 -0.8545 -0.7995  0.3019
 9705TIP3   OH250605   4.386   5.430  16.917  0.3506  0.2952 -0.0635
 9705TIP3    H150606   4.478   5.436  16.945 -0.1965  0.8830  1.7345
 9705TIP3    H250607   4.363   5.338  16.931  0.1101  0.5596  1.4497
 9706TIP3   OH250608   0.216   3.010   1.936 -0.3873  0.0991  0.3581
 9706TIP3    H150609   0.210   2.971   2.023 -1.3778 -1.3255 -0.3161
 9706TIP3    H250610   0.179   3.098   1.946 -2.5954 -0.8424  0.9175
 9707TIP3   OH250611   3.061   3.873  14.228 -0.0695  0.3337  0.1936
 9707TIP3    H150612   3.150   3.899  14.203  0.9175 -1.5912  1.4842
 9707TIP3    H250613   3.070   3.784  14.261 -2.5045  0.0720  0.3534
 9708TIP3   OH250614   1.713   1.395   1.133  0.3968  0.3470  0.6546
 9708TIP3    H150615   1.690   1.316   1.183 -1.3374  0.3400 -0.0855
 9708TIP3    H250616   1.750   1.455   1.198 -1.8646  0.3593  2.0114
 9709TIP3   OH250617   5.255   6.104   0.114  0.4521 -0.0456 -0.0356
 9709TIP3    H150618   5.223   6.095   0.204 -2.2758 -2.4835 -1.1051
 9709TIP3    H250619   5.241   6.197   0.094  0.2375  0.3526  1.7353
 9710TIP3   OH250620   3.302   5.812  13.615 -0.0091  0.1624  0.6639
 9710TIP3    H150621   3.296   5.906  13.631  0.5048  0.3430 -0.1265
 9710TIP3    H250622   3.221   5.790  13.570  0.0033  0.2903  0.5778
 9711TIP3   OH250623   3.520   1.261  12.951 -0.0797 -0.0339 -0.0840
 9711TIP3    H150624   3.493   1.339  12.903  1.1882 -0.4039 -1.4553
 9711TIP3    H250625   3.615   1.268  12.956 -0.0056 -1.1806  0.3483
 9712TIP3   OH250626   2.883   1.405   1.859  0.8714  0.1470  0.1459
 9712TIP3    H150627   2.977   1.421   1.847  0.9645 -0.6095 -0.2081
 9712TIP3    H250628   2.878   1.312   1.882  0.0386 -0.4125 -2.0304
 9713TIP3   OH250629   2.462   3.385   1.567  0.6676 -0.2144 -0.3515
 9713TIP3    H150630   2.516   3.311   1.593 -1.1308 -1.0281  1.3877
 9713TIP3    H250631   2.372   3.352   1.573 -0.1237  1.6259 -1.2048
 9714TIP3   OH250632   3.157   0.710  12.532 -0.2000  0.3211  0.1507
 9714TIP3    H150633   3.131   0.707  12.624 -2.4109 -1.0663 -0.4392
 9714TIP3    H250634   3.077   0.735  12.486  0.2299 -1.2627 -1.5655
 9715TIP3   OH250635   2.385   0.437   3.023 -0.6781 -0.1281 -0.0700
 9715TIP3    H150636   2.431   0.480   2.951 -1.2008 -0.7887 -0.8109
 9715TIP3    H250637   2.375   0.505   3.090 -1.5753  0.9419 -1.2598
 9716TIP3   OH250638   6.261   1.554  13.613 -0.4895 -0.0265  0.0475
 9716TIP3    H150639   6.329   1.586  13.554 -0.8176 -0.1292 -0.3944
 9716TIP3    H250640   6.299   1.562  13.700 -0.9956  2.7684  0.1070
 9717TIP3   OH250641   6.483   0.540   2.724 -0.3801  0.2309  0.1248
 9717TIP3    H150642   6.575   0.534   2.752 -0.7503 -1.4713  1.0825
 9717TIP3    H250643   6.446   0.454   2.746 -2.6464  1.4389  1.3031
 9718TIP3   OH250644   5.983   5.289  10.676 -0.3220  0.2031 -0.1675
 9718TIP3    H150645   6.041   5.365  10.668 -0.1260  0.2303  1.2470
 9718TIP3    H250646   5.983   5.249  10.588  1.8606  0.1917 -0.2126
 9719TIP3   OH250647   1.591   2.371   4.836 -0.4253  0.3454 -0.0807
 9719TIP3    H150648   1.608   2.283   4.804 -1.4206 -0.0912  0.5298
 9719TIP3    H250649   1.553   2.417   4.761  1.3944  0.7100 -0.8212
 9720TIP3   OH250650   6.728   5.284   4.767  0.2584 -0.2691  0.3190
 9720TIP3    H150651   6.766   5.250   4.848  0.5408 -0.1053  0.2528
 9720TIP3    H250652   6.738   5.213   4.704 -1.8233 -1.2130  0.9642
 9721TIP3   OH250653   3.830   1.938  15.865 -0.6805 -0.3760  0.1477
 9721TIP3    H150654   3.823   1.908  15.956  2.7246 -1.1365  0.2722
 9721TIP3    H250655   3.912   1.987  15.862 -0.1574 -1.2744 -2.7272
 9722TIP3   OH250656   3.159   1.602   2.843  0.1369 -0.3341  0.0379
 9722TIP3    H150657   3.150   1.552   2.762  1.0242 -0.4915  0.0196
 9722TIP3    H250658   3.151   1.693   2.816  2.2943 -0.2637 -0.5701
 9723TIP3   OH250659   5.197   4.580   6.003 -0.0798  0.1141  0.1900
 9723TIP3    H150660   5.141   4.534   5.940  1.1516  0.4596 -1.2361
 9723TIP3    H250661   5.143   4.588   6.082 -1.9266  0.1932 -1.0052
 9724TIP3   OH250662   3.494   0.412  15.668  0.0957  0.8480 -0.7470
 9724TIP3    H150663   3.542   0.339  15.708  0.1004  1.8182  1.1300
 9724TIP3    H250664   3.402   0.393  15.687 -0.0806  0.3993 -1.9344
 9725TIP3   OH250665   1.286   0.173  14.988 -0.3018 -0.2427 -0.4464
 9725TIP3    H150666   1.247   0.169  14.900 -1.7705  1.5709  0.0504
 9725TIP3    H250667   1.269   0.088  15.026 -0.9426 -0.5666 -1.4178
 9726TIP3   OH250668   1.417   2.928   4.004 -0.1549  0.3271 -0.0068
 9726TIP3    H150669   1.383   2.872   4.073 -2.2519  0.1089 -1.1295
 9726TIP3    H250670   1.422   2.871   3.927  1.5582  0.7055 -0.2016
 9727TIP3   OH250671   3.610   5.344  15.473  0.3195 -0.2429  0.2436
 9727TIP3    H150672   3.632   5.291  15.549 -0.1310 -0.1873  0.4182
 9727TIP3    H250673   3.521   5.316  15.449  0.2807  0.0625  0.0227
 9728TIP3   OH250674   1.917   0.879   3.082 -0.6102  0.2983  0.2060
 9728TIP3    H150675   1.839   0.888   3.137 -0.4769 -0.9358  0.6299
 9728TIP3    H250676   1.960   0.964   3.089 -1.5252  0.7547  0.5634
 9729TIP3   OH250677   0.539   2.568  15.451  0.2534 -0.0049  0.3666
 9729TIP3    H150678   0.502   2.625  15.383  0.3747 -0.9589 -0.5190
 9729TIP3    H250679   0.471   2.502  15.466  0.4583 -0.1204  0.7847
 9730TIP3   OH250680   0.377   4.498   2.144  0.9281 -0.0211 -0.0379
 9730TIP3    H150681   0.413   4.514   2.057 -0.5981  2.1341 -0.3399
 9730TIP3    H250682   0.386   4.403   2.156  1.6820 -0.2992 -2.2999
 9731TIP3   OH250683   4.965   5.062   1.714  0.0869 -0.0833  0.0172
 9731TIP3    H150684   4.981   5.009   1.635  2.1544  0.6022 -0.1043
 9731TIP3    H250685   4.870   5.074   1.717 -0.6363 -4.4270  0.5121
 9732TIP3   OH250686   6.666   0.792  16.588 -0.5222 -0.3377  0.5244
 9732TIP3    H150687   6.628   0.878  16.605 -0.0540  0.3202 -1.5380
 9732TIP3    H250688   6.616   0.732  16.643 -1.8053  1.0538  0.9194
 9733TIP3   OH250689   6.498   2.087  13.255 -0.5003  0.2835 -0.1261
 9733TIP3    H150690   6.512   2.128  13.341 -0.2524 -0.9037  0.4138
 9733TIP3    H250691   6.415   2.122  13.225 -1.9832 -1.3264  1.8497
 9734TIP3   OH250692   0.385   2.671  15.239  0.0762 -0.5179 -0.6233
 9734TIP3    H150693   0.311   2.618  15.264  0.7524 -1.2968 -0.2453
 9734TIP3    H250694   0.402   2.647  15.147  0.6823 -1.3356 -0.3100
 9735TIP3   OH250695   3.003   3.556  14.833 -0.1289  0.1819 -0.9879
 9735TIP3    H150696   2.935   3.508  14.784 -1.1847 -2.6766  2.7495
 9735TIP3    H250697   3.070   3.576  14.768 -3.6462  1.6565 -4.6097
 9736TIP3   OH250698   1.260   2.029   4.178  0.8431 -0.1493 -0.6347
 9736TIP3    H150699   1.180   2.023   4.230  0.3717  2.1927 -0.9435
 9736TIP3    H250700   1.235   1.992   4.093  0.1048  0.4123 -0.6785
 9737TIP3   OH250701   4.882   3.420   3.138 -0.2871 -0.5511 -0.3338
 9737TIP3    H150702   4.893   3.486   3.069  0.2481  0.5624  0.7856
 9737TIP3    H250703   4.792   3.432   3.168 -0.7064 -1.4151 -1.1878
 9738TIP3   OH250704   3.227   0.807   4.355 -0.0226 -0.5375  0.1544
 9738TIP3    H150705   3.182   0.783   4.273  0.2959 -0.6290  0.0053
 9738TIP3    H250706   3.278   0.730   4.378 -1.3796 -1.1302  1.3339
 9739TIP3   OH250707   4.808   5.748   5.301  0.5659 -0.2823 -0.2921
 9739TIP3    H150708   4.869   5.682   5.269 -0.9961 -1.3444 -1.2441
 9739TIP3    H250709   4.761   5.778   5.223  0.3466  1.0386  0.3040
 9740TIP3   OH250710   1.894   5.979   3.562 -0.2404  0.2171 -0.2443
 9740TIP3    H150711   1.962   5.938   3.510  1.1676 -0.9147  2.2953
 9740TIP3    H250712   1.818   5.921   3.552  0.3788 -0.6301 -0.1463
 9741TIP3   OH250713   3.245   2.360  11.559  0.6346 -0.0492  0.2237
 9741TIP3    H150714   3.227   2.444  11.600  0.0424 -0.6202  1.1595
 9741TIP3    H250715   3.339   2.347  11.572  1.1295  1.3035 -1.5703
 9742TIP3   OH250716   2.202   3.374   2.834 -0.0325 -0.8090  0.3212
 9742TIP3    H150717   2.221   3.459   2.795  0.3458  0.4398  3.0047
 9742TIP3    H250718   2.169   3.321   2.761  2.0718  0.8045 -1.9592
 9743TIP3   OH250719   1.655   2.140  11.902  0.2015  0.3653  0.2190
 9743TIP3    H150720   1.629   2.067  11.847  0.0599  0.6925 -0.1573
 9743TIP3    H250721   1.580   2.153  11.961  0.1686  0.2932  0.1935
 9744TIP3   OH250722   4.550   3.767   0.313 -0.4701 -0.2570  0.7505
 9744TIP3    H150723   4.526   3.797   0.400 -0.2886 -2.2945  1.5564
 9744TIP3    H250724   4.644   3.749   0.318 -0.7387 -1.8289  0.6252
 9745TIP3   OH250725   4.315   2.880  13.982  0.3398  0.4048 -0.9428
 9745TIP3    H150726   4.278   2.892  14.069  0.4075 -0.8087 -0.7272
 9745TIP3    H250727   4.247   2.834  13.933  0.1670  1.3883 -1.6451
 9746TIP3   OH250728   1.117   1.521  16.590  0.7314  0.0703  0.2143
 9746TIP3    H150729   1.130   1.554  16.678  1.1252  1.8368 -0.4648
 9746TIP3    H250730   1.045   1.458  16.598 -0.8356  1.9028  1.4197
 9747TIP3   OH250731   6.054   2.463   1.913  0.3213  0.0239  0.2560
 9747TIP3    H150732   6.005   2.483   1.993 -0.6014 -1.8831  0.2133
 9747TIP3    H250733   5.987   2.432   1.851  1.3156 -0.6449 -0.5136
 9748TIP3   OH250734   6.246   5.588  13.816  0.2553 -0.1926 -0.0113
 9748TIP3    H150735   6.323   5.596  13.760 -1.8090 -0.4058 -3.2046
 9748TIP3    H250736   6.194   5.666  13.796 -1.9008 -1.7068 -0.7302
 9749TIP3   OH250737   0.965   0.452  11.910  0.1862  0.3349  0.3194
 9749TIP3    H150738   0.999   0.428  11.824  0.2415 -0.9813  0.6840
 9749TIP3    H250739   0.947   0.368  11.952 -1.8351  0.9569  0.8036
 9750TIP3   OH250740   2.465   3.377   4.553  0.7787 -0.0506  0.0023
 9750TIP3    H150741   2.503   3.458   4.586 -0.5086  0.7587 -0.4194
 9750TIP3    H250742   2.490   3.373   4.461  0.7099 -0.0475 -0.0173
 9751TIP3   OH250743   2.434   0.592  17.237 -0.5312 -0.5767 -0.1462
 9751TIP3    H150744   2.378   0.617  17.311 -0.1014  0.9191 -0.2837
 9751TIP3    H250745   2.381   0.613  17.159 -0.2106 -0.2072 -0.2669
 9752TIP3   OH250746   0.159   0.367  14.011 -0.0939 -0.6323  0.2796
 9752TIP3    H150747   0.080   0.359  13.958  0.4021  1.5053 -0.9156
 9752TIP3    H250748   0.230   0.346  13.951  0.4305  0.9742  0.2918
 9753TIP3   OH250749   2.428   4.781  17.283  0.3679  0.4284 -0.4479
 9753TIP3    H150750   2.521   4.763  17.275  0.1795 -0.6647 -0.3788
 9753TIP3    H250751   2.393   4.708  17.334 -0.4897  0.9257 -0.2964
 9754TIP3   OH250752   3.620   0.521   5.149  0.4619 -0.3274 -0.4861
 9754TIP3    H150753   3.708   0.484   5.141  0.1526 -0.8665 -1.6625
 9754TIP3    H250754   3.577   0.468   5.217  1.6488  1.2378  1.6096
 9755TIP3   OH250755   5.701   5.369  16.212  0.0671 -0.2951 -0.4210
 9755TIP3    H150756   5.629   5.366  16.149 -0.1352  0.6766 -0.2579
 9755TIP3    H250757   5.683   5.297  16.272  0.2487 -1.2211 -1.4475
 9756TIP3   OH250758   0.121   1.660  15.360 -0.1420 -0.3053 -0.2979
 9756TIP3    H150759   0.203   1.639  15.315 -0.6264 -1.1189 -0.8347
 9756TIP3    H250760   0.082   1.575  15.381 -0.7312  0.0689  0.1704
 9757TIP3   OH250761   3.689   2.655  16.388  0.4238  0.1456  0.1970
 9757TIP3    H150762   3.710   2.706  16.310 -0.7098  1.7497  0.8715
 9757TIP3    H250763   3.705   2.564  16.363  2.6748  0.8186 -1.0059
 9758TIP3   OH250764   0.888   1.943  13.656 -0.5065 -0.0628 -0.5475
 9758TIP3    H150765   0.909   1.910  13.743 -1.1324  0.1551 -0.3118
 9758TIP3    H250766   0.845   1.869  13.612  0.3351 -0.3668 -0.8821
 9759TIP3   OH250767   5.196   1.053  14.304 -0.5501 -0.3288  0.1874
 9759TIP3    H150768   5.124   1.018  14.251  0.5445 -1.0670 -0.8483
 9759TIP3    H250769   5.249   0.976  14.326  1.0222  0.4328 -0.7781
 9760TIP3   OH250770   6.002   0.645   3.882 -0.1122  0.0663  0.0393
 9760TIP3    H150771   5.911   0.656   3.855  0.0907  1.3659 -0.1698
 9760TIP3    H250772   6.000   0.577   3.950 -1.0334 -0.9956 -1.0102
 9761TIP3   OH250773   2.512   1.754  11.988 -0.1036 -0.5420 -0.5643
 9761TIP3    H150774   2.532   1.661  11.978  0.6056 -0.4408 -0.1880
 9761TIP3    H250775   2.495   1.765  12.082  1.0014 -0.0876 -0.3954
 9762TIP3   OH250776   1.820   5.122   3.287 -0.0761  0.5285 -0.4605
 9762TIP3    H150777   1.841   5.056   3.221 -1.0786 -0.4115  0.1167
 9762TIP3    H250778   1.777   5.072   3.357  2.1870  1.2367  1.5661
 9763TIP3   OH250779   5.449   6.270  14.642  0.1540  0.2076  0.0308
 9763TIP3    H150780   5.377   6.320  14.680 -0.9288 -0.8066 -0.6174
 9763TIP3    H250781   5.528   6.321  14.663 -0.8968  2.2177 -0.6861
 9764TIP3   OH250782   5.556   4.690   6.647 -1.0595  0.2338 -0.6160
 9764TIP3    H150783   5.534   4.705   6.555  1.6247 -0.5038 -1.4374
 9764TIP3    H250784   5.529   4.600   6.664 -2.3277  0.6331 -0.3877
 9765TIP3   OH250785   6.714   6.152  11.917 -0.4051 -0.4239  0.5840
 9765TIP3    H150786   6.788   6.157  11.857 -0.6901 -1.1761  0.1398
 9765TIP3    H250787   6.663   6.077  11.884 -2.1135  0.9265  0.0091
 9766TIP3   OH250788   5.781   6.788   3.246 -0.4583  0.0723 -0.1641
 9766TIP3    H150789   5.852   6.729   3.274 -1.1443 -0.4170  0.5875
 9766TIP3    H250790   5.708   6.730   3.227 -1.1619  0.6808  0.6324
 9767TIP3   OH250791   0.930   1.458   0.615 -0.3044 -0.3068  0.1783
 9767TIP3    H150792   1.008   1.433   0.664 -0.4764  0.2091  0.7346
 9767TIP3    H250793   0.963   1.490   0.531  0.0640 -0.3090  0.3218
 9768TIP3   OH250794   1.632   2.889  13.182  0.1712  0.0900  0.0664
 9768TIP3    H150795   1.675   2.960  13.135 -2.4926  1.3456 -0.6624
 9768TIP3    H250796   1.632   2.815  13.121 -0.9219  0.8932 -0.9553
 9769TIP3   OH250797   2.816   4.377  14.999  0.1502  0.2890  0.0089
 9769TIP3    H150798   2.876   4.361  14.925 -1.5769  2.3188 -1.9817
 9769TIP3    H250799   2.840   4.464  15.030  0.0968 -0.0839  1.1363
 9770TIP3   OH250800   1.658   1.703   4.584  0.9233 -0.2481  0.7434
 9770TIP3    H150801   1.651   1.766   4.512  1.2818  0.0643  0.9758
 9770TIP3    H250802   1.658   1.757   4.663  0.0328 -0.6215  1.0073
 9771TIP3   OH250803   0.773   6.573  11.432  0.5347  0.0570 -0.1841
 9771TIP3    H150804   0.777   6.485  11.470 -0.5688  0.0686 -0.0348
 9771TIP3    H250805   0.689   6.577  11.388 -0.0236  1.4971  0.9291
 9772TIP3   OH250806   3.430   3.306   6.579  0.2561  0.9615 -0.2855
 9772TIP3    H150807   3.420   3.337   6.669 -1.3311 -0.6479  0.1393
 9772TIP3    H250808   3.490   3.232   6.585 -1.4570 -0.4768 -0.1815
 9773TIP3   OH250809   2.715   1.414  14.724 -0.2045 -0.0372  0.6011
 9773TIP3    H150810   2.761   1.431  14.642 -1.1873 -0.5860 -0.0813
 9773TIP3    H250811   2.753   1.476  14.786  1.1111 -0.1520 -0.0546
 9774TIP3   OH250812   1.826   3.763  12.371 -0.0274  0.4327 -0.0105
 9774TIP3    H150813   1.877   3.718  12.304 -0.5501  0.6393 -0.5591
 9774TIP3    H250814   1.794   3.693  12.428 -0.8539  0.0889 -0.8685
 9775TIP3   OH250815   0.709   5.969   2.199 -0.3206 -0.1432 -0.3431
 9775TIP3    H150816   0.803   5.959   2.185 -0.3967 -0.2796 -0.7693
 9775TIP3    H250817   0.677   6.008   2.118 -0.3933  1.4070  0.4009
 9776TIP3   OH250818   3.115   2.724   3.210  0.0394  0.2713 -0.6474
 9776TIP3    H150819   3.121   2.796   3.273 -1.5048  0.0397 -0.1837
 9776TIP3    H250820   3.206   2.703   3.188  0.5513  1.4395  0.2661
 9777TIP3   OH250821   1.436   6.022  14.851  0.8135 -0.4461  0.5345
 9777TIP3    H150822   1.504   5.965  14.815 -0.1913 -0.7050 -1.0821
 9777TIP3    H250823   1.371   5.962  14.887 -1.0106 -0.5730 -2.5482
 9778TIP3   OH250824   5.286   4.669  13.909  0.0363  0.3625  0.4509
 9778TIP3    H150825   5.380   4.673  13.891  0.3252  1.1355  1.9675
 9778TIP3    H250826   5.253   4.755  13.884 -0.0847  0.4400  0.8735
 9779TIP3   OH250827   1.018   6.096   5.187  0.1895 -0.3319 -0.0106
 9779TIP3    H150828   1.039   6.007   5.158 -1.0479 -0.6723  0.0965
 9779TIP3    H250829   0.983   6.139   5.108  0.8706  0.0974 -0.0863
 9780TIP3   OH250830   1.995   3.948  14.953  0.1776  0.2417 -0.9082
 9780TIP3    H150831   1.954   3.898  14.882  0.7623 -0.7232 -0.5815
 9780TIP3    H250832   1.921   3.977  15.007 -0.2156  0.3089 -1.4721
 9781TIP3   OH250833   1.061   2.158  16.580 -0.2707  0.2693  0.2951
 9781TIP3    H150834   1.138   2.130  16.629 -0.0045  1.9016  0.8628
 9781TIP3    H250835   1.037   2.081  16.528  1.7881 -0.2378  0.0028
 9782TIP3   OH250836   4.410   0.818   5.246 -0.0842  0.0137  0.0362
 9782TIP3    H150837   4.399   0.806   5.340 -0.8658 -3.3299 -0.3514
 9782TIP3    H250838   4.503   0.805   5.230 -0.2701 -1.7156  0.1680
 9783TIP3   OH250839   5.241   5.401   3.879 -0.2033 -0.1947  0.5764
 9783TIP3    H150840   5.333   5.409   3.906 -0.3741 -1.5040  1.6598
 9783TIP3    H250841   5.192   5.453   3.943 -0.1145  2.3528 -1.2622
 9784TIP3   OH250842   2.826   6.586   1.240 -0.4769  0.2471 -0.1306
 9784TIP3    H150843   2.884   6.552   1.308 -1.3727 -0.9636  0.0749
 9784TIP3    H250844   2.876   6.580   1.159  0.1185  0.4207  0.2198
 9785TIP3   OH250845   4.448   0.056  17.207  0.3290 -0.1428  0.7540
 9785TIP3    H150846   4.512  -0.014  17.199  1.4232  0.6954  1.7530
 9785TIP3    H250847   4.478   0.123  17.145 -0.3905 -0.3163  0.2089
 9786TIP3   OH250848   2.846   3.131  14.336 -0.7286 -0.8540  0.4952
 9786TIP3    H150849   2.756   3.135  14.365 -0.8856 -0.7677  0.0145
 9786TIP3    H250850   2.842   3.083  14.253 -0.5046  0.2094 -0.1499
 9787TIP3   OH250851   6.279   0.024  15.325 -0.1115 -0.2696  0.3172
 9787TIP3    H150852   6.347  -0.031  15.366 -0.0939 -0.0047  0.6500
 9787TIP3    H250853   6.215  -0.039  15.291 -1.7242 -0.5229  3.4386
 9788TIP3   OH250854   6.349   0.730  16.302  0.9369  0.5068  0.2557
 9788TIP3    H150855   6.309   0.736  16.389  0.3470 -1.1574  0.1415
 9788TIP3    H250856   6.443   0.734  16.317  0.8178  0.7520  0.9238
 9789TIP3   OH250857   5.170   1.037  15.545 -0.2593  0.6854  0.2422
 9789TIP3    H150858   5.179   1.034  15.641  1.9507 -1.9997  0.0794
 9789TIP3    H250859   5.120   0.958  15.524  3.3753 -1.5372 -0.9702
 9790TIP3   OH250860   5.709   3.021  14.495 -0.2469  0.2544 -0.1480
 9790TIP3    H150861   5.689   3.057  14.581 -0.6638 -2.9720  1.2434
 9790TIP3    H250862   5.802   2.999  14.499  0.1924  1.7502 -1.2555
 9791TIP3   OH250863   1.009   4.350  14.318 -0.1239 -0.7769  0.3608
 9791TIP3    H150864   0.968   4.413  14.378 -0.2149  0.3688 -0.8683
 9791TIP3    H250865   0.943   4.334  14.251  0.7615 -0.2728 -0.6692
 9792TIP3   OH250866   6.664   3.552   1.905 -0.5115 -0.3323 -0.0548
 9792TIP3    H150867   6.596   3.502   1.859  0.1031 -1.1509 -0.0956
 9792TIP3    H250868   6.643   3.542   1.998 -1.2164  0.5473 -0.1047
 9793TIP3   OH250869   4.026   1.868   2.123 -0.0779 -0.5690 -0.0352
 9793TIP3    H150870   4.078   1.860   2.204  1.8257  1.4845 -0.9496
 9793TIP3    H250871   3.996   1.959   2.123  1.5479  0.0550 -2.4581
 9794TIP3   OH250872   4.386   2.267  15.977 -0.0213 -0.0350  0.7826
 9794TIP3    H150873   4.439   2.328  16.027 -1.7640  0.8794  1.5865
 9794TIP3    H250874   4.341   2.321  15.912 -0.0017 -0.7843  0.1278
 9795TIP3   OH250875   4.478   4.657  14.691  0.5983 -0.5027  0.1202
 9795TIP3    H150876   4.519   4.579  14.653  2.3259 -0.4114  1.6393
 9795TIP3    H250877   4.528   4.730  14.655  1.0088 -0.3078  1.0475
 9796TIP3   OH250878   2.853   2.007   5.369 -0.3030  0.4559  0.2478
 9796TIP3    H150879   2.775   1.957   5.390 -0.0069 -0.8773 -1.5089
 9796TIP3    H250880   2.834   2.048   5.284  0.5080  0.9749  0.2965
 9797TIP3   OH250881   5.911   0.508  10.532 -0.4079 -0.7179 -0.3971
 9797TIP3    H150882   5.935   0.415  10.536  0.2184 -0.5404  0.0498
 9797TIP3    H250883   5.934   0.542  10.618  0.3161  0.0847 -0.9019
 9798TIP3   OH250884   5.781   2.058  15.422  0.6727 -0.0394  0.4187
 9798TIP3    H150885   5.724   1.997  15.375 -2.3001  1.3466  1.9328
 9798TIP3    H250886   5.798   2.128  15.359  1.0885 -0.6650 -0.1782
 9799TIP3   OH250887   3.483   6.235   0.245 -0.4264  0.0117  0.2474
 9799TIP3    H150888   3.544   6.269   0.180 -0.3392 -0.0549  0.2945
 9799TIP3    H250889   3.433   6.168   0.199  0.1388 -0.5576  0.4500
 9800TIP3   OH250890   0.379   3.267  16.822 -0.4790 -0.2051 -0.6236
 9800TIP3    H150891   0.475   3.277  16.818 -0.4243 -1.0469 -2.1302
 9800TIP3    H250892   0.358   3.278  16.915  1.3215 -2.0731  0.0862
 9801TIP3   OH250893   3.207   5.462  16.149 -0.0938  0.1263  0.1855
 9801TIP3    H150894   3.199   5.557  16.142 -0.5253  0.0765 -0.0088
 9801TIP3    H250895   3.298   5.444  16.129  0.2173  0.5851  1.1262
 9802TIP3   OH250896   2.066   0.996   4.700 -0.0591 -0.4490 -0.5965
 9802TIP3    H150897   2.034   0.973   4.613  0.8065  0.6128 -1.2231
 9802TIP3    H250898   2.020   0.936   4.759 -2.1237  0.0897 -1.5716
 9803TIP3   OH250899   1.067   1.492  15.213  0.0440  0.2715  0.0901
 9803TIP3    H150900   1.159   1.516  15.222  0.3029 -0.6822  0.0430
 9803TIP3    H250901   1.019   1.568  15.247  0.8523  0.5451  0.6435
 9804TIP3   OH250902   5.342   2.383   1.291 -1.0095  0.1941 -0.3778
 9804TIP3    H150903   5.377   2.330   1.363  1.3361 -0.0033 -1.5689
 9804TIP3    H250904   5.298   2.456   1.333  1.5077  0.8527  1.3224
 9805TIP3   OH250905   1.467   4.775   2.789 -0.6100  0.1100 -0.4913
 9805TIP3    H150906   1.506   4.855   2.756 -1.5831  0.3549 -1.0726
 9805TIP3    H250907   1.376   4.797   2.806 -0.7807 -0.7476 -0.2068
 9806TIP3   OH250908   2.099   1.608   5.770  0.2582 -0.4443 -0.4815
 9806TIP3    H150909   2.073   1.548   5.839  1.1161 -1.8201 -1.3039
 9806TIP3    H250910   2.194   1.598   5.764  0.4316  1.0299 -0.6329
 9807TIP3   OH250911   0.244   0.991   2.992 -0.0652 -0.2092 -0.5383
 9807TIP3    H150912   0.271   1.015   2.903  0.7588 -0.8869 -0.4855
 9807TIP3    H250913   0.165   1.042   3.008  0.8959  1.4930 -0.9138
 9808TIP3   OH250914   1.923   3.090  10.596 -0.0096 -0.6717  0.2669
 9808TIP3    H150915   2.015   3.114  10.599  0.0963 -1.0013 -0.1711
 9808TIP3    H250916   1.920   3.014  10.537 -0.6643 -0.1444 -0.4087
 9809TIP3   OH250917   5.579   6.373  12.284 -0.0095 -0.3230  0.2039
 9809TIP3    H150918   5.499   6.336  12.322 -0.8265  2.5787  1.5749
 9809TIP3    H250919   5.562   6.373  12.190 -0.1459 -2.8143  0.1462
 9810TIP3   OH250920   4.491   5.717   3.775  0.0781 -0.4484  0.2035
 9810TIP3    H150921   4.582   5.703   3.750 -0.6601 -2.4410 -1.6697
 9810TIP3    H250922   4.455   5.773   3.707 -0.2624 -0.1652  0.6063
 9811TIP3   OH250923   5.096   1.852   6.160 -0.2819  0.0009 -0.2489
 9811TIP3    H150924   5.074   1.759   6.155 -2.6288  0.5377 -1.3132
 9811TIP3    H250925   5.030   1.890   6.217  0.2148  1.1253 -0.3934
 9812TIP3   OH250926   0.566   1.627  15.518  0.5569 -0.1941  0.0913
 9812TIP3    H150927   0.655   1.631  15.551  0.4644 -0.3694  0.3692
 9812TIP3    H250928   0.524   1.706  15.551  0.3427 -0.5758  0.7716
 9813TIP3   OH250929   2.665   4.718   2.438  0.2623  0.0277  0.4343
 9813TIP3    H150930   2.609   4.642   2.456  0.6339 -0.3529  0.0304
 9813TIP3    H250931   2.646   4.739   2.346  1.1086 -0.3911  0.1551
 9814TIP3   OH250932   1.144   5.761   1.383 -0.7379 -0.6405  0.2587
 9814TIP3    H150933   1.087   5.745   1.458 -1.3796 -0.2416 -0.1308
 9814TIP3    H250934   1.224   5.712   1.403  0.2605  1.7144  2.5167
 9815TIP3   OH250935   2.200   5.291  17.249 -0.1832 -0.2147 -0.0966
 9815TIP3    H150936   2.226   5.246  17.329  2.0494 -0.3706 -0.8570
 9815TIP3    H250937   2.262   5.261  17.182 -1.7114  0.2388 -1.8063
 9816TIP3   OH250938   4.964   5.325  13.722  0.9255 -0.1476 -0.5256
 9816TIP3    H150939   4.953   5.420  13.711 -0.3430 -0.2516 -0.2688
 9816TIP3    H250940   4.986   5.293  13.635 -1.0433  0.0919 -1.1682
 9817TIP3   OH250941   4.676   1.941  14.276  1.1053  0.6062  0.0457
 9817TIP3    H150942   4.768   1.935  14.304  0.6514  0.4101  1.5530
 9817TIP3    H250943   4.641   1.853  14.292  0.1463  1.2091  1.3366
 9818TIP3   OH250944   5.656   3.982   0.268  0.3540 -0.0803  0.1213
 9818TIP3    H150945   5.647   3.921   0.341  0.6877 -0.1469  0.1077
 9818TIP3    H250946   5.710   4.053   0.301  1.8943 -0.8965 -0.5261
 9819TIP3   OH250947   2.943   0.226   5.085  0.1312  0.2621 -0.0133
 9819TIP3    H150948   2.959   0.197   4.995  3.2872 -1.6383  0.9974
 9819TIP3    H250949   2.879   0.296   5.076 -0.4054 -0.4674 -3.6289
 9820TIP3   OH250950   6.451   5.334  15.496 -0.0386 -0.2383 -0.0171
 9820TIP3    H150951   6.436   5.424  15.467 -0.5069 -0.5226 -0.6916
 9820TIP3    H250952   6.479   5.288  15.417 -0.1809 -0.7692  0.2378
 9821TIP3   OH250953   5.076   4.819   4.965  1.0668 -0.0073  0.0792
 9821TIP3    H150954   5.021   4.896   4.967 -2.0033 -2.0381  2.2699
 9821TIP3    H250955   5.131   4.826   5.043  1.5746  0.4118 -0.3036
 9822TIP3   OH250956   5.867   2.583   1.074 -0.2774 -0.8484 -0.0821
 9822TIP3    H150957   5.829   2.635   1.145  0.7577 -0.8456  0.4789
 9822TIP3    H250958   5.795   2.525   1.047 -1.3191  0.5332 -0.4303
 9823TIP3   OH250959   5.772   5.310  10.853  0.0773 -0.6909  0.0345
 9823TIP3    H150960   5.850   5.302  10.799  0.4495 -0.8233  0.5845
 9823TIP3    H250961   5.702   5.334  10.792  0.2497 -1.9547 -0.6924
 9824TIP3   OH250962   1.127   1.777   1.884  0.3975  0.3832 -0.2161
 9824TIP3    H150963   1.038   1.784   1.919  0.0992 -0.8386 -0.6827
 9824TIP3    H250964   1.115   1.761   1.790  1.1543  1.5938 -0.5509
 9825TIP3   OH250965   1.097   0.155  16.725  0.0544  0.0652 -0.3785
 9825TIP3    H150966   1.046   0.230  16.756  1.8593  0.7744  1.1139
 9825TIP3    H250967   1.093   0.160  16.630 -0.3673  1.7246 -0.3056
 9826TIP3   OH250968   3.201   3.995   0.678 -0.3267 -0.0112  0.3390
 9826TIP3    H150969   3.222   3.902   0.670  0.4157  0.2293 -0.8013
 9826TIP3    H250970   3.119   3.997   0.727  0.4930 -1.1659  1.8590
 9827TIP3   OH250971   2.575   5.803   3.261 -0.3831 -0.8186 -1.4480
 9827TIP3    H150972   2.645   5.863   3.286 -0.3545 -1.2681 -0.4090
 9827TIP3    H250973   2.506   5.859   3.225 -0.2825 -0.1783 -0.6580
 9828TIP3   OH250974   4.804   5.125  10.660  0.6285 -0.2767 -0.5387
 9828TIP3    H150975   4.793   5.218  10.680 -0.3385 -0.4941  0.0110
 9828TIP3    H250976   4.883   5.100  10.709  0.6192  0.1483 -0.2983
 9829TIP3   OH250977   5.321   6.766  14.341 -0.6673 -0.3011 -0.6138
 9829TIP3    H150978   5.340   6.712  14.417  0.3577 -0.4203 -0.9342
 9829TIP3    H250979   5.244   6.817  14.366  1.4389  2.0265  1.7696
 9830TIP3   OH250980   1.832   2.251   4.231  0.3696 -0.4219 -0.0307
 9830TIP3    H150981   1.779   2.228   4.307  2.5209 -1.4108  1.2633
 9830TIP3    H250982   1.867   2.337   4.251 -0.3589  0.0449 -0.6921
 9831TIP3   OH250983   0.680   5.387  10.710 -0.3494 -0.3150  0.2056
 9831TIP3    H150984   0.647   5.345  10.789 -2.0131  0.3267 -0.0931
 9831TIP3    H250985   0.697   5.315  10.649 -0.3543 -0.7231  0.6879
 9832TIP3   OH250986   1.589   4.201  14.743  0.0346 -0.5125  0.1814
 9832TIP3    H150987   1.672   4.229  14.705  0.3799  0.3338  1.5009
 9832TIP3    H250988   1.607   4.112  14.774  0.3171 -0.5001  0.0600
 9833TIP3   OH250989   2.565   3.903  14.176 -0.1474 -0.4883  0.6982
 9833TIP3    H150990   2.646   3.929  14.220  0.4911  1.2062 -1.2894
 9833TIP3    H250991   2.595   3.850  14.101 -1.0039 -1.0524  0.7329
 9834TIP3   OH250992   6.180   3.904  12.847  0.2144  0.2590 -0.2098
 9834TIP3    H150993   6.143   3.903  12.759 -0.3164 -1.0450  0.0161
 9834TIP3    H250994   6.267   3.942  12.835  1.1578 -2.1572 -1.7190
 9835TIP3   OH250995   0.222   3.067  11.830  0.3068  0.3108 -0.1370
 9835TIP3    H150996   0.199   3.007  11.901  0.6766  1.1784  0.7425
 9835TIP3    H250997   0.301   3.112  11.861  0.1287  1.1296 -0.8311
 9836TIP3   OH250998   1.404   2.644  17.025  0.1179  0.4196  0.2784
 9836TIP3    H150999   1.346   2.685  16.961  0.3583  0.1727 -0.0976
 9836TIP3    H251000   1.446   2.717  17.070 -0.4554  0.6015  0.5281
 9837TIP3   OH251001   1.538   4.054   1.647  0.5004 -0.0172 -0.3971
 9837TIP3    H151002   1.568   4.008   1.725  2.3894  2.1762  0.2653
 9837TIP3    H251003   1.570   4.000   1.574  1.7089 -0.3243  0.3382
 9838TIP3   OH251004   1.292   3.089  10.996  0.2365  0.1343 -0.5595
 9838TIP3    H151005   1.264   3.127  10.913  0.4276  0.9452 -0.2585
 9838TIP3    H251006   1.308   2.997  10.976  0.6331  0.4025 -1.5008
 9839TIP3   OH251007   4.278   3.522   6.187  0.0144  0.6546 -0.2391
 9839TIP3    H151008   4.314   3.476   6.263  1.6384  0.9415 -0.7889
 9839TIP3    H251009   4.217   3.586   6.223  0.7884  0.8024  0.8319
 9840TIP3   OH251010   3.053   3.454   2.686  0.1782 -0.2204 -0.0600
 9840TIP3    H151011   3.042   3.472   2.593 -1.3506  3.5626  0.6677
 9840TIP3    H251012   3.147   3.442   2.698  0.3780 -0.9963 -2.0522
 9841TIP3   OH251013   6.155   6.198  13.547  0.2960 -0.0909 -0.0347
 9841TIP3    H151014   6.083   6.198  13.610 -0.5351  2.6600 -0.8315
 9841TIP3    H251015   6.234   6.195  13.600 -0.3813 -0.4730  0.9864
 9842TIP3   OH251016   0.224   4.123   2.692 -0.0075  0.8524  0.5311
 9842TIP3    H151017   0.245   4.211   2.725  0.7184  1.8884 -2.4377
 9842TIP3    H251018   0.221   4.069   2.771  2.3309  2.9666  2.2560
 9843TIP3   OH251019   0.716   4.420   5.522  0.0994 -0.3982  0.4984
 9843TIP3    H151020   0.726   4.449   5.612  0.6473  1.3541 -0.0717
 9843TIP3    H251021   0.640   4.469   5.490  1.2888  0.8138 -0.6205
 9844TIP3   OH251022   0.851   6.079  16.972 -0.4840 -0.0084 -0.7993
 9844TIP3    H151023   0.803   6.161  16.968 -0.0451  0.5860  2.7643
 9844TIP3    H251024   0.943   6.105  16.976 -0.1887 -0.8318 -1.6891
 9845TIP3   OH251025   4.694   4.850  15.701  0.3948 -0.3571 -0.2749
 9845TIP3    H151026   4.753   4.910  15.746  0.5705  1.2212 -2.4507
 9845TIP3    H251027   4.740   4.766  15.702  0.9186 -0.0970  1.3430
 9846TIP3   OH251028   6.144   0.521  17.308  0.6461  0.5504 -0.4227
 9846TIP3    H151029   6.230   0.495  17.273  1.8873  1.1824  1.9877
 9846TIP3    H251030   6.093   0.440  17.308  1.3704  0.0614 -1.4207
 9847TIP3   OH251031   1.953   6.180  12.504 -0.0734 -0.5660  0.3502
 9847TIP3    H151032   1.901   6.105  12.476  0.2266 -1.1498  1.2968
 9847TIP3    H251033   1.892   6.237  12.551  0.1590 -1.3485  1.6369
 9848TIP3   OH251034   5.773   4.218  15.149 -0.1044  0.4076 -0.3458
 9848TIP3    H151035   5.852   4.164  15.156 -0.7804 -0.6006 -0.1799
 9848TIP3    H251036   5.723   4.195  15.227 -0.4034  1.3052 -0.2728
 9849TIP3   OH251037   0.770   2.075  16.841 -0.4277 -0.1641 -0.0519
 9849TIP3    H151038   0.695   2.126  16.872  1.2628  1.2348  2.0451
 9849TIP3    H251039   0.744   1.984  16.853 -0.7064  0.2623  3.8764
 9850TIP3   OH251040   3.987   1.138   3.080 -0.1867  0.0462  0.6868
 9850TIP3    H151041   3.913   1.078   3.069 -1.2356  1.7156 -2.5654
 9850TIP3    H251042   4.062   1.092   3.044 -0.7677  0.2265 -0.8056
 9851TIP3   OH251043   6.236   6.747   0.077 -0.0086  0.4319 -0.0785
 9851TIP3    H151044   6.300   6.818   0.078 -0.1576  0.5794 -0.6855
 9851TIP3    H251045   6.223   6.727  -0.016 -1.3294  0.8510 -0.0135
 9852TIP3   OH251046   3.030   0.255  15.302 -0.2135  0.3549  0.3024
 9852TIP3    H151047   2.994   0.296  15.223 -1.0836 -2.2138 -0.7346
 9852TIP3    H251048   2.960   0.263  15.367 -0.4049  0.4425  0.0848
 9853TIP3   OH251049   5.489   6.098  14.883 -0.3512  0.3294 -0.0568
 9853TIP3    H151050   5.477   6.127  14.792  0.5320 -1.6240 -0.8617
 9853TIP3    H251051   5.534   6.170  14.925 -0.1334  0.9960 -1.3658
 9854TIP3   OH251052   1.672   0.735  13.124  0.3651  0.1801  0.1764
 9854TIP3    H151053   1.626   0.685  13.056  0.4776  0.5364 -0.1634
 9854TIP3    H251054   1.645   0.694  13.206  0.0210 -0.0837 -0.0660
 9855TIP3   OH251055   1.784   5.453   2.280  0.3672 -0.1548  0.2204
 9855TIP3    H151056   1.773   5.517   2.210 -0.1927  1.0054  1.3206
 9855TIP3    H251057   1.702   5.404   2.281 -0.6891  1.5512  1.6913
 9856TIP3   OH251058   5.006   5.881   4.543 -0.2581 -0.1069  0.1406
 9856TIP3    H151059   5.060   5.927   4.607 -0.1186  1.5082 -1.0902
 9856TIP3    H251060   4.933   5.941   4.525 -0.0577 -0.3307 -1.5375
 9857TIP3   OH251061   5.079   2.212   3.839 -0.4517 -0.0441 -0.4441
 9857TIP3    H151062   5.071   2.123   3.872 -0.6766 -0.0305 -0.4611
 9857TIP3    H251063   5.173   2.225   3.828 -0.3696 -0.0267  0.2387
 9858TIP3   OH251064   2.187   0.651  14.099  0.6361 -0.0752  0.4496
 9858TIP3    H151065   2.182   0.746  14.110  0.0013 -0.3097  2.7286
 9858TIP3    H251066   2.275   0.628  14.127  0.7402 -0.1679  0.0429
 9859TIP3   OH251067   6.631   2.240  13.935 -0.0409  0.1023 -0.2509
 9859TIP3    H151068   6.632   2.320  13.988  3.3514 -0.5382  0.9049
 9859TIP3    H251069   6.596   2.173  13.994 -0.1614  0.1627 -0.2523
 9860TIP3   OH251070   2.257   6.767   6.389  0.0792  0.0238  0.1170
 9860TIP3    H151071   2.230   6.680   6.359  1.8105 -0.5204  0.0066
 9860TIP3    H251072   2.220   6.776   6.476  1.0251 -1.4274  0.6987
 9861TIP3   OH251073   3.819   1.223   0.055 -0.8705  0.4749  0.1696
 9861TIP3    H151074   3.867   1.252   0.132 -0.6701  1.2202 -0.2251
 9861TIP3    H251075   3.790   1.135   0.076  0.2244  0.2114  0.6180
 9862TIP3   OH251076   2.526   4.850  11.736  0.3031 -0.8201  0.9365
 9862TIP3    H151077   2.579   4.899  11.800 -1.1676 -0.9463  2.3157
 9862TIP3    H251078   2.505   4.914  11.668 -0.1250  0.0013  1.8199
 9863TIP3   OH251079   0.579   1.864  12.080  0.1364 -0.4464 -0.5572
 9863TIP3    H151080   0.517   1.937  12.083  0.1542 -0.4520  1.4625
 9863TIP3    H251081   0.566   1.825  11.994 -0.2836  1.5730 -1.4619
 9864TIP3   OH251082   4.796   3.532   1.558  0.2162  0.5132 -0.1933
 9864TIP3    H151083   4.842   3.596   1.504  1.8861  1.4451  2.1539
 9864TIP3    H251084   4.713   3.518   1.513  0.7699  2.5628 -2.0287
 9865TIP3   OH251085   1.020   0.015   0.813 -0.4426 -0.0888 -0.1034
 9865TIP3    H151086   1.011   0.090   0.753 -1.4663  1.2477  1.6425
 9865TIP3    H251087   1.042  -0.059   0.755 -0.1823  1.3718 -1.9772
 9866TIP3   OH251088   3.390   4.057  11.240  0.0828  0.2265 -0.0344
 9866TIP3    H151089   3.392   4.096  11.153  0.0613  1.8491  0.6685
 9866TIP3    H251090   3.299   4.032  11.253  0.1047 -0.1153 -0.4981
 9867TIP3   OH251091   4.241   4.629  14.966 -0.7149 -0.4904  0.4306
 9867TIP3    H151092   4.266   4.555  14.911 -1.0204 -0.9360  0.8782
 9867TIP3    H251093   4.248   4.706  14.909  2.4582 -0.4289  0.7181
 9868TIP3   OH251094   3.777   6.715  12.042  0.0105 -0.0950  0.5789
 9868TIP3    H151095   3.842   6.701  11.974  0.2887  1.3195  0.5287
 9868TIP3    H251096   3.694   6.690  12.001  0.1453  0.9507 -0.3658
 9869TIP3   OH251097   0.057   0.768   3.758 -0.3167 -0.0989 -0.4266
 9869TIP3    H151098   0.036   0.805   3.673  1.0285  1.9036  0.0343
 9869TIP3    H251099   0.149   0.742   3.751 -1.1035 -3.3351 -0.6418
 9870TIP3   OH251100   2.172   3.936  15.272  0.1439  0.1672 -0.0676
 9870TIP3    H151101   2.202   3.898  15.355  0.6498 -1.2252 -0.8574
 9870TIP3    H251102   2.251   3.971  15.233  0.2530 -0.8471 -0.7933
 9871TIP3   OH251103   5.688   0.635   0.388 -0.0584 -0.1286  0.9786
 9871TIP3    H151104   5.718   0.618   0.299 -0.1947 -1.3285  1.1559
 9871TIP3    H251105   5.610   0.690   0.377 -0.4509 -0.8065  0.3227
 9872TIP3   OH251106   6.409   3.516   4.677  0.0571 -0.5438 -0.1044
 9872TIP3    H151107   6.443   3.539   4.764 -0.1396  0.3787 -0.2640
 9872TIP3    H251108   6.413   3.598   4.627 -1.5857 -0.6089 -0.3861
 9873TIP3   OH251109   5.331   1.752  13.457 -0.2163 -0.2902  0.3301
 9873TIP3    H151110   5.272   1.807  13.507  1.0192 -1.8128  3.7702
 9873TIP3    H251111   5.274   1.687  13.416 -1.5221  2.4311 -2.5872
 9874TIP3   OH251112   5.075   0.530  10.938 -0.0718  0.4136 -0.0062
 9874TIP3    H151113   5.065   0.498  11.028  1.1421 -1.8273 -0.5735
 9874TIP3    H251114   5.062   0.452  10.884  4.0579  0.5301 -1.4948
 9875TIP3   OH251115   6.344   5.253   2.948 -0.0136  0.1672 -0.8192
 9875TIP3    H151116   6.391   5.187   2.897  2.2616  0.0369  1.2211
 9875TIP3    H251117   6.351   5.332   2.896 -1.3785 -0.7989 -2.5629
 9876TIP3   OH251118   4.552   5.961  14.002  0.1869  0.3741 -0.9088
 9876TIP3    H151119   4.511   5.880  14.032  1.0149  0.2029 -0.2122
 9876TIP3    H251120   4.598   5.938  13.922 -0.6758  0.4699 -1.4542
 9877TIP3   OH251121   2.324   4.019  11.965  0.0628  0.3128  0.3620
 9877TIP3    H151122   2.411   4.046  11.937 -0.2856  0.4617 -0.5961
 9877TIP3    H251123   2.298   4.085  12.030  0.4954  0.4925  0.3540
 9878TIP3   OH251124   4.299   4.169  12.295  0.0854  0.3673  0.1365
 9878TIP3    H151125   4.380   4.196  12.339  2.2166  0.4025 -3.4587
 9878TIP3    H251126   4.306   4.074  12.287 -0.3312  0.3483 -0.0498
 9879TIP3   OH251127   3.327   6.132   2.274  0.1673  0.0333 -0.1944
 9879TIP3    H151128   3.388   6.193   2.315  0.4367 -0.6627  0.4614
 9879TIP3    H251129   3.356   6.046   2.302  0.0190 -0.4388 -1.4188
 9880TIP3   OH251130   6.702   4.658   3.853  0.2431 -0.1349 -0.0592
 9880TIP3    H151131   6.739   4.576   3.885  0.5297  0.0837  0.1746
 9880TIP3    H251132   6.708   4.718   3.928 -2.1531 -0.5630  0.5688
 9881TIP3   OH251133   5.233   4.837   5.188 -0.0279  0.1404 -0.1748
 9881TIP3    H151134   5.320   4.839   5.229 -0.6194 -1.0653  1.1895
 9881TIP3    H251135   5.174   4.869   5.256 -0.6232  1.5713 -1.3075
 9882TIP3   OH251136   0.746   3.878   3.187  0.0634  0.1175  0.0615
 9882TIP3    H151137   0.653   3.885   3.209 -0.4197  0.4873 -1.8722
 9882TIP3    H251138   0.772   3.791   3.218 -1.1943 -0.3948 -0.2507
 9883TIP3   OH251139   5.896   4.178  14.646  0.2141 -0.5614  0.0975
 9883TIP3    H151140   5.932   4.096  14.613  0.3411 -0.7206  0.6115
 9883TIP3    H251141   5.885   4.163  14.740 -2.1806 -0.8804 -0.1762
 9884TIP3   OH251142   3.954   5.896  13.321 -0.1066 -0.2134 -0.5842
 9884TIP3    H151143   3.933   5.929  13.408  2.0300  1.4479 -0.6302
 9884TIP3    H251144   4.037   5.849  13.332  0.7711  0.9519 -1.8717
 9885TIP3   OH251145   1.690   2.338  15.067  0.1747 -0.2302  0.6365
 9885TIP3    H151146   1.746   2.284  15.123 -0.2683 -1.1860  0.1794
 9885TIP3    H251147   1.738   2.347  14.985  0.5553  0.6653  0.9465
 9886TIP3   OH251148   5.053   2.179  11.273 -0.1478 -0.4455 -0.3760
 9886TIP3    H151149   5.008   2.104  11.235  0.3399 -0.8102 -0.2375
 9886TIP3    H251150   5.132   2.190  11.220  1.7458 -2.3922  1.8447
 9887TIP3   OH251151   3.206   6.736  16.998 -0.2638 -0.3671  0.0652
 9887TIP3    H151152   3.295   6.732  17.031 -0.0341  0.4271 -0.4292
 9887TIP3    H251153   3.213   6.785  16.915 -0.8784 -1.9151 -0.9441
 9888TIP3   OH251154   3.091   4.539  13.548  0.3355 -0.0719  0.5403
 9888TIP3    H151155   3.061   4.629  13.534  2.3275  0.7685  1.3296
 9888TIP3    H251156   3.100   4.503  13.459 -0.9502  0.3048  0.2341
 9889TIP3   OH251157   6.326   0.191   1.460 -0.5711  0.2562  0.5006
 9889TIP3    H151158   6.255   0.243   1.497 -0.9254 -0.3317  0.6556
 9889TIP3    H251159   6.352   0.132   1.530 -0.2192  0.1760  0.3043
 9890TIP3   OH251160   1.086   2.545   5.097  0.5543 -0.6681 -0.3653
 9890TIP3    H151161   1.105   2.516   5.186  0.5375  1.7120  0.4888
 9890TIP3    H251162   1.171   2.576   5.063  0.0205  1.4562  0.0862
 9891TIP3   OH251163   0.777   2.599   4.771  0.1100  0.3338 -0.2527
 9891TIP3    H151164   0.858   2.577   4.816  0.4436 -0.3061 -1.1173
 9891TIP3    H251165   0.714   2.618   4.840  0.9672  0.7190  0.4283
 9892TIP3   OH251166   5.232   3.513  17.195 -0.2355  0.4854  0.4584
 9892TIP3    H151167   5.303   3.554  17.145 -0.6864  1.0543  0.2819
 9892TIP3    H251168   5.243   3.548  17.284  0.3812 -0.2939  0.7044
 9893TIP3   OH251169   5.237   2.362   1.054 -0.0235  0.1493  0.5397
 9893TIP3    H151170   5.284   2.355   1.137  0.1410  0.2717  0.4570
 9893TIP3    H251171   5.293   2.319   0.990  1.3199  2.6468 -0.1079
 9894TIP3   OH251172   5.998   6.461  12.520  0.1570  0.3802 -0.0111
 9894TIP3    H151173   6.086   6.445  12.553 -0.9185  0.1066  3.0153
 9894TIP3    H251174   5.974   6.546  12.557 -1.2825 -0.1068  0.2255
 9895TIP3   OH251175   3.292   3.881   5.251 -0.1861 -0.1707  0.4988
 9895TIP3    H151176   3.358   3.861   5.318  1.3994 -0.1355 -1.0028
 9895TIP3    H251177   3.209   3.857   5.292  0.5573  1.1584  3.0066
 9896TIP3   OH251178   5.954   6.098   6.414  0.2644  0.3751 -0.2410
 9896TIP3    H151179   6.019   6.126   6.478  1.0462 -0.3913 -0.6670
 9896TIP3    H251180   5.881   6.067   6.466  0.1573  1.3976  0.2483
 9897TIP3   OH251181   3.707   3.247  11.529 -0.2268  0.3168 -0.1915
 9897TIP3    H151182   3.789   3.232  11.481  1.0582  0.5252  1.8029
 9897TIP3    H251183   3.701   3.342  11.536 -0.9933  0.3247 -0.8691
 9898TIP3   OH251184   5.178   2.067  11.780 -0.6819 -0.1634 -0.1488
 9898TIP3    H151185   5.186   1.999  11.713  1.2561  0.9370 -1.1411
 9898TIP3    H251186   5.237   2.038  11.850 -1.0491 -0.2583  0.1229
 9899TIP3   OH251187   1.615   0.278  10.746  0.1976  0.4210 -0.3646
 9899TIP3    H151188   1.521   0.266  10.733  0.3023  0.6571 -1.3888
 9899TIP3    H251189   1.654   0.256  10.661  0.8511  2.8182 -0.7395
 9900TIP3   OH251190   0.098   5.459   5.215 -0.1009  0.1579 -0.1141
 9900TIP3    H151191   0.058   5.543   5.194 -1.3490 -0.1622  0.8650
 9900TIP3    H251192   0.179   5.458   5.164  0.3369  2.2737  0.4017
 9901TIP3   OH251193   5.216   0.573   3.314  0.1644 -0.5560  0.2433
 9901TIP3    H151194   5.300   0.602   3.279  0.9298  0.1391  2.4804
 9901TIP3    H251195   5.216   0.478   3.301  1.3275 -0.5665  0.2644
 9902TIP3   OH251196   4.321   3.316   4.634 -0.2765 -0.2208  0.0805
 9902TIP3    H151197   4.310   3.373   4.711 -0.8012  0.6613 -0.6221
 9902TIP3    H251198   4.299   3.372   4.560  1.1214 -0.7942 -0.7986
 9903TIP3   OH251199   2.168   0.940  14.112  0.5394 -0.0187 -0.0652
 9903TIP3    H151200   2.243   0.997  14.094  0.4674 -0.2713 -1.1823
 9903TIP3    H251201   2.106   0.959  14.042 -0.0600 -0.4928  0.3299
 9904TIP3   OH251202   1.609   3.244   5.185  0.1287  0.2291  0.1469
 9904TIP3    H151203   1.695   3.270   5.219 -0.2601 -0.0396  1.3764
 9904TIP3    H251204   1.628   3.170   5.127  0.8133  0.7604 -0.3430
 9905TIP3   OH251205   6.037   6.612  16.611 -0.1697 -0.4754 -0.0387
 9905TIP3    H151206   6.081   6.535  16.575 -0.4254 -1.3439  1.4274
 9905TIP3    H251207   6.094   6.685  16.587  0.1799 -1.1237 -1.2842
 9906TIP3   OH251208   3.832   5.660   1.053  0.4552 -0.5806 -0.0480
 9906TIP3    H151209   3.780   5.624   1.124  0.7139 -2.0314 -0.5519
 9906TIP3    H251210   3.768   5.695   0.991  0.1518 -0.9142  0.0764
 9907TIP3   OH251211   4.417   0.042   6.037 -0.2340  0.0866 -0.6849
 9907TIP3    H151212   4.476   0.014   5.967 -2.5626  1.0221 -3.2170
 9907TIP3    H251213   4.406   0.136   6.023 -0.7063  0.3407  1.0725
 9908TIP3   OH251214   2.748   6.431   1.012 -0.0092 -0.1974  0.4856
 9908TIP3    H151215   2.708   6.512   0.980 -0.1698 -0.1547  0.7915
 9908TIP3    H251216   2.813   6.408   0.945 -0.8369 -0.4933 -0.2387
 9909TIP3   OH251217   4.912   6.352  15.969 -0.0247 -0.4244 -0.4292
 9909TIP3    H151218   4.817   6.354  15.962 -0.0519  1.3375 -0.1915
 9909TIP3    H251219   4.939   6.279  15.914 -1.4278  0.0455 -1.8250
 9910TIP3   OH251220   4.189   3.318   1.109 -0.0473 -0.1602 -0.6696
 9910TIP3    H151221   4.222   3.239   1.151  0.5284  0.9446  1.0408
 9910TIP3    H251222   4.163   3.375   1.181  2.0272  2.3024 -1.6946
 9911TIP3   OH251223   4.359   3.253   0.275  0.0718  0.3728 -0.5632
 9911TIP3    H151224   4.365   3.342   0.309  0.8057  0.2896 -0.4768
 9911TIP3    H251225   4.265   3.242   0.256 -0.5787  0.0731  2.3536
 9912TIP3   OH251226   1.027   6.720  16.299 -0.0348  0.4920 -0.2496
 9912TIP3    H151227   1.000   6.628  16.305 -0.1828  0.5982  1.1574
 9912TIP3    H251228   1.016   6.742  16.207 -0.6742 -0.6991 -0.4890
 9913TIP3   OH251229   4.376   6.781   0.954  0.6284  0.5837  0.0941
 9913TIP3    H151230   4.461   6.806   0.991  0.0223  0.0011  1.9780
 9913TIP3    H251231   4.313   6.838   0.998 -0.4172 -1.9547  2.0894
 9914TIP3   OH251232   2.046   6.409  10.958  0.0911 -0.5012  0.1792
 9914TIP3    H151233   1.960   6.408  10.999  0.0390  1.8227  0.2782
 9914TIP3    H251234   2.034   6.367  10.874 -1.3362  0.3965 -0.1023
 9915TIP3   OH251235   5.923   0.146   4.531  0.2790  0.4199 -0.0545
 9915TIP3    H151236   5.931   0.235   4.497  0.6307  1.6694  2.9700
 9915TIP3    H251237   5.996   0.098   4.492  2.0750  2.3908  0.6981
 9916TIP3   OH251238   1.754   1.418  11.140 -0.8036 -0.2119  0.0482
 9916TIP3    H151239   1.815   1.377  11.079  0.2678 -0.4056  1.2159
 9916TIP3    H251240   1.809   1.470  11.199 -1.6388 -1.1065  1.6844
 9917TIP3   OH251241   4.941   1.476  10.999  0.1379 -0.1489 -0.6033
 9917TIP3    H151242   4.931   1.551  10.941  1.1209 -0.8506 -1.7343
 9917TIP3    H251243   5.027   1.440  10.976  0.5202 -0.5235  1.2258
 9918TIP3   OH251244   0.860   5.399   4.583  0.4915  0.7466  0.0369
 9918TIP3    H151245   0.938   5.345   4.574  0.0934  0.2543 -0.5388
 9918TIP3    H251246   0.787   5.340   4.563 -0.0841  1.0248  1.1913
 9919TIP3   OH251247   6.765   4.499   5.037  0.9246  0.0658 -0.2281
 9919TIP3    H151248   6.848   4.509   5.083  1.6180 -0.6791 -1.2725
 9919TIP3    H251249   6.787   4.451   4.957 -0.8669 -2.2297  0.5437
 9920TIP3   OH251250   2.931   2.019  14.537 -0.3539  0.2912  0.5100
 9920TIP3    H151251   2.956   2.019  14.629  0.6744  0.2980  0.2355
 9920TIP3    H251252   2.835   2.026  14.538 -0.3847 -0.1592  1.5799
 9921TIP3   OH251253   1.427   1.636   3.131  0.0321  0.1237 -0.1474
 9921TIP3    H151254   1.456   1.718   3.091 -0.3716 -0.0942 -0.9057
 9921TIP3    H251255   1.490   1.571   3.101 -0.1798 -0.0128 -0.2957
 9922TIP3   OH251256   5.813   1.024   6.351  0.1240 -0.0643  0.1278
 9922TIP3    H151257   5.868   1.022   6.429 -1.2527 -2.6247  1.1689
 9922TIP3    H251258   5.853   0.960   6.292 -0.0170  0.3139 -0.3824
 9923TIP3   OH251259   2.699   1.255  15.035  0.0220  0.8433 -0.2828
 9923TIP3    H151260   2.787   1.280  15.008 -0.4029  1.3329 -1.2934
 9923TIP3    H251261   2.670   1.326  15.092  1.6023 -1.0461  3.2076
 9924TIP3   OH251262   6.793   5.660  16.218 -0.1115  0.4530 -0.4665
 9924TIP3    H151263   6.740   5.736  16.241 -2.9105 -0.6890 -2.5715
 9924TIP3    H251264   6.876   5.674  16.264 -1.3541  3.5271  1.1500
 9925TIP3   OH251265   1.927   0.844  17.281  0.4206  0.1119  0.7263
 9925TIP3    H151266   1.907   0.751  17.279  1.3419 -0.1040 -1.0866
 9925TIP3    H251267   1.913   0.871  17.372 -0.5909 -1.6107  1.1133
 9926TIP3   OH251268   1.685   3.915   2.208  0.1081 -0.0998 -0.4066
 9926TIP3    H151269   1.717   3.919   2.298 -1.4018 -2.1693  0.3085
 9926TIP3    H251270   1.607   3.971   2.208 -1.1161 -1.7007  0.2280
 9927TIP3   OH251271   5.447   2.298   4.401  0.5385  0.2902 -0.3563
 9927TIP3    H151272   5.462   2.233   4.332 -1.7700 -1.4296  0.6366
 9927TIP3    H251273   5.449   2.248   4.483  1.2060  1.9275  0.6869
 9928TIP3   OH251274   5.471   2.812  15.357  0.0370  0.3212  0.5143
 9928TIP3    H151275   5.459   2.903  15.384 -0.7545  0.7871 -1.2877
 9928TIP3    H251276   5.557   2.787  15.392  0.6560  2.0323  0.2763
 9929TIP3   OH251277   1.132   3.457   2.729  0.1793  0.4548 -0.0989
 9929TIP3    H151278   1.049   3.429   2.689  1.9219 -2.9993 -1.6647
 9929TIP3    H251279   1.119   3.441   2.823 -0.9747  0.0927 -0.3012
 9930TIP3   OH251280   2.035   4.011  13.984  0.0888 -0.4580 -0.3290
 9930TIP3    H151281   1.956   4.065  13.989 -0.3406 -0.8582 -2.1809
 9930TIP3    H251282   2.081   4.041  13.906  1.3151 -0.8645  0.2055
 9931TIP3   OH251283   3.444   1.741  10.826  0.3836  0.0673  0.1013
 9931TIP3    H151284   3.512   1.804  10.804  0.2304 -0.0660 -0.7685
 9931TIP3    H251285   3.485   1.683  10.891  0.9266  0.3009 -0.0269
 9932TIP3   OH251286   3.590   2.060  15.201  0.3960 -0.0183 -0.4748
 9932TIP3    H151287   3.551   2.147  15.211 -0.9078 -0.6815  0.4904
 9932TIP3    H251288   3.591   2.024  15.289  2.0481 -0.5463 -0.6775
 9933TIP3   OH251289   6.450   5.825   0.021  0.6566  0.3153 -0.0733
 9933TIP3    H151290   6.462   5.840   0.114  0.5685  0.2979 -0.0588
 9933TIP3    H251291   6.355   5.825   0.009  0.6677  2.8993 -0.5807
 9934TIP3   OH251292   6.553   4.452  14.225  0.0333 -0.2281  0.3511
 9934TIP3    H151293   6.568   4.410  14.140 -1.5538  0.2444 -0.1965
 9934TIP3    H251294   6.640   4.471  14.258  0.6947 -0.9341 -0.9124
 9935TIP3   OH251295   5.474   4.497   1.522  0.3110  0.2005 -0.1731
 9935TIP3    H151296   5.385   4.471   1.548  0.3098 -0.1288 -0.4990
 9935TIP3    H251297   5.500   4.561   1.588  0.6082 -1.1713  1.1015
 9936TIP3   OH251298   5.132   1.527   4.126  0.5266 -0.1774 -0.3787
 9936TIP3    H151299   5.056   1.469   4.131 -0.3744  1.0512  1.7832
 9936TIP3    H251300   5.135   1.556   4.035 -0.5038 -1.6178 -0.9079
 9937TIP3   OH251301   6.076   4.808   1.030  0.1316  0.2745  0.1630
 9937TIP3    H151302   6.008   4.829   1.093 -1.0986  0.6905 -1.2507
 9937TIP3    H251303   6.103   4.719   1.051 -2.0006 -0.5081 -0.2280
 9938TIP3   OH251304   6.326   1.709  12.559 -0.0830  0.1017 -0.5148
 9938TIP3    H151305   6.346   1.797  12.527 -0.7041  0.2153 -0.5867
 9938TIP3    H251306   6.409   1.678  12.595 -0.1012  1.0940  0.4041
 9939TIP3   OH251307   4.789   4.822  10.848 -0.2062  0.0369 -0.1273
 9939TIP3    H151308   4.863   4.881  10.840 -1.2934  1.4574 -0.0673
 9939TIP3    H251309   4.756   4.813  10.759  1.3638 -2.4602 -0.5592
 9940TIP3   OH251310   6.216   3.877   4.739  0.2588 -0.1723  0.7096
 9940TIP3    H151311   6.215   3.895   4.833  1.3484 -0.3630  0.7707
 9940TIP3    H251312   6.289   3.930   4.705  1.3897 -1.8468  0.3645
 9941TIP3   OH251313   1.070   6.494  11.768 -0.5391 -0.4145  0.1653
 9941TIP3    H151314   1.141   6.469  11.709  0.2093  1.1992  0.3438
 9941TIP3    H251315   1.007   6.422  11.761  1.4046 -2.2488  0.5473
 9942TIP3   OH251316   5.183   2.046   4.726  0.4773  0.0064  0.5041
 9942TIP3    H151317   5.212   2.130   4.760 -0.3886 -0.2167  1.8561
 9942TIP3    H251318   5.263   2.000   4.703  1.0202  0.6189  1.1481
 9943TIP3   OH251319   5.268   1.467  12.725 -0.1140  0.0800 -0.6733
 9943TIP3    H151320   5.261   1.467  12.630  2.3042  0.6857 -0.9231
 9943TIP3    H251321   5.226   1.548  12.752 -1.5216 -0.4673 -1.1063
 9944TIP3   OH251322   3.505   2.092  12.785  0.1183 -0.2787  1.1423
 9944TIP3    H151323   3.581   2.104  12.728  0.8585 -1.0695  1.9220
 9944TIP3    H251324   3.520   2.151  12.859 -2.8739  4.0174 -1.2536
 9945TIP3   OH251325   4.367   0.427   0.640 -0.7496 -0.1938  0.0239
 9945TIP3    H151326   4.453   0.455   0.670 -1.0399 -0.2723  0.9376
 9945TIP3    H251327   4.358   0.467   0.553  0.5151 -0.8057 -0.4202
 9946TIP3   OH251328   6.641   0.428  15.320 -0.7205  0.1945  0.1141
 9946TIP3    H151329   6.618   0.419  15.227 -0.2805 -0.0413  0.0261
 9946TIP3    H251330   6.588   0.362  15.365  1.4335 -1.9950 -0.3544
 9947TIP3   OH251331   4.117   2.717  13.794  0.4999 -0.4044  0.1320
 9947TIP3    H151332   4.116   2.753  13.705 -0.9115 -0.0592  0.2623
 9947TIP3    H251333   4.040   2.756  13.836  0.2544 -1.8024  1.0181
 9948TIP3   OH251334   0.569   6.576  13.831 -0.5518 -0.1236  0.5267
 9948TIP3    H151335   0.491   6.607  13.784 -0.2279  0.2228  0.2136
 9948TIP3    H251336   0.588   6.645  13.894 -0.2636 -0.0226  0.3303
 9949TIP3   OH251337   6.111   5.031   4.902 -0.3315  0.0348  0.4656
 9949TIP3    H151338   6.164   4.959   4.870 -0.9898 -1.2778  2.1953
 9949TIP3    H251339   6.047   5.047   4.832 -0.0660 -0.9316 -0.0069
 9950TIP3   OH251340   2.961   4.903  12.528 -0.1722 -0.1662  0.4607
 9950TIP3    H151341   2.945   4.879  12.437  1.1293 -0.3128  0.2508
 9950TIP3    H251342   2.959   4.820  12.576  0.6518 -0.2856  0.3110
 9951TIP3   OH251343   4.761   5.614  11.334  0.4578  0.7068 -0.1479
 9951TIP3    H151344   4.672   5.637  11.308  1.0374  1.8731 -1.2539
 9951TIP3    H251345   4.814   5.634  11.257  1.7681  0.6886  0.7139
 9952TIP3   OH251346   1.916   3.922  16.570  0.4461  0.4132  0.2507
 9952TIP3    H151347   1.875   3.836  16.567 -0.5843  0.8738  0.4263
 9952TIP3    H251348   2.006   3.905  16.597  0.5560 -0.6937 -0.7407
 9953TIP3   OH251349   1.599   4.950  15.188  0.1358  0.4300 -0.3017
 9953TIP3    H151350   1.564   4.940  15.276  0.3565  0.1029 -0.2493
 9953TIP3    H251351   1.533   5.002  15.142 -0.7168 -0.6576 -0.3742
 9954TIP3   OH251352   3.988   1.040   3.790  0.6203 -0.0080 -0.0690
 9954TIP3    H151353   4.053   1.110   3.796 -0.8104  1.2588  1.5214
 9954TIP3    H251354   3.922   1.074   3.730 -0.8304  0.7321  1.8437
 9955TIP3   OH251355   0.462   5.326   4.658 -0.6053 -0.4425 -0.1699
 9955TIP3    H151356   0.487   5.242   4.696 -0.0894  0.2087  0.9818
 9955TIP3    H251357   0.532   5.346   4.596  0.5455  0.2334  1.2881
 9956TIP3   OH251358   6.346   4.416  12.197  0.1503 -0.6249  0.4523
 9956TIP3    H151359   6.403   4.472  12.250  0.9260 -1.7758  0.8790
 9956TIP3    H251360   6.330   4.467  12.118  2.1120 -0.3962  0.1413
 9957TIP3   OH251361   1.608   1.203  11.039 -1.1113  0.2207 -0.4184
 9957TIP3    H151362   1.654   1.189  10.956  1.4751  1.8817  0.6084
 9957TIP3    H251363   1.651   1.279  11.077 -1.9289 -0.7431  2.6692
 9958TIP3   OH251364   1.960   4.576   5.497  0.1828 -0.7880  0.0017
 9958TIP3    H151365   2.030   4.642   5.492  0.5538 -1.1615  0.1790
 9958TIP3    H251366   1.882   4.625   5.522  0.0417 -0.1257 -1.6071
 9959TIP3   OH251367   6.697   2.663  14.367 -0.3162  0.4573 -0.0124
 9959TIP3    H151368   6.622   2.720  14.384  1.1578  2.4150  0.3142
 9959TIP3    H251369   6.684   2.588  14.425 -0.8151  1.9177  1.8692
 9960TIP3   OH251370   2.199   6.730   5.101 -0.3519 -0.0616  0.5117
 9960TIP3    H151371   2.286   6.766   5.086 -0.6269 -0.2514 -2.0642
 9960TIP3    H251372   2.214   6.641   5.129  0.3003  0.0869  0.6495
 9961TIP3   OH251373   4.851   5.826   4.822  0.3511  0.4671 -0.0522
 9961TIP3    H151374   4.786   5.785   4.766  0.2069 -0.2380  0.6052
 9961TIP3    H251375   4.935   5.800   4.786  0.2954 -1.8309  1.2689
 9962TIP3   OH251376   3.153   4.721  15.998  0.7102  0.2285 -0.7331
 9962TIP3    H151377   3.176   4.753  15.911  0.0895  1.6086 -0.4169
 9962TIP3    H251378   3.060   4.699  15.992  0.7026  0.1828 -0.4587
 9963TIP3   OH251379   6.107   1.061  15.593  0.2791  0.0866 -0.4477
 9963TIP3    H151380   6.122   0.976  15.551 -1.9915 -1.0252  0.7724
 9963TIP3    H251381   6.158   1.056  15.674  0.4548  0.0488 -0.5588
 9964TIP3   OH251382   4.416   0.959   1.604  0.7954 -0.4529 -0.2329
 9964TIP3    H151383   4.447   1.015   1.676 -1.5365  2.6392 -1.3715
 9964TIP3    H251384   4.484   0.964   1.538  1.2166 -0.0686  0.2227
 9965TIP3   OH251385   5.278   1.474  16.856  0.4577  0.5256  0.2284
 9965TIP3    H151386   5.268   1.415  16.931  0.3166 -0.3769 -0.4774
 9965TIP3    H251387   5.198   1.463  16.806  1.0484  0.1884 -0.6774
 9966TIP3   OH251388   3.690   5.920   1.130  0.2778  0.4678 -0.5213
 9966TIP3    H151389   3.642   5.999   1.107 -0.7521 -0.3760 -1.3662
 9966TIP3    H251390   3.673   5.859   1.059 -1.7746 -1.7213  1.6315
 9967TIP3   OH251391   5.475   1.199   1.306  0.1638 -0.0176  0.0761
 9967TIP3    H151392   5.563   1.218   1.337  0.4349 -0.6448 -0.2889
 9967TIP3    H251393   5.443   1.130   1.365 -0.7257  1.3556  1.2556
 9968TIP3   OH251394   6.785   6.371   4.029  0.5246 -0.5052  0.2303
 9968TIP3    H151395   6.762   6.444   4.086  0.4716 -1.1128  1.0081
 9968TIP3    H251396   6.719   6.304   4.048  0.1317 -0.4801 -1.0117
 9969TIP3   OH251397   5.378   5.776  10.937  0.4210  0.3568  0.1791
 9969TIP3    H151398   5.352   5.804  10.849 -0.1157 -0.6008  0.0295
 9969TIP3    H251399   5.304   5.724  10.969  0.8560  0.2112  0.9727
 9970TIP3   OH251400   3.877   2.329  15.758  0.6806  0.1505  0.5553
 9970TIP3    H151401   3.923   2.305  15.838  0.1108 -0.0592  0.8304
 9970TIP3    H251402   3.889   2.254  15.700 -1.3398 -1.0098  1.5180
 9971TIP3   OH251403   3.685   0.492   3.459 -0.3036  0.0254 -0.6295
 9971TIP3    H151404   3.613   0.430   3.445 -1.2164  0.7413  0.7359
 9971TIP3    H251405   3.684   0.510   3.553 -0.6028  2.7147 -1.0566
 9972TIP3   OH251406   3.278   0.393  11.345 -0.0543 -0.3115  0.4645
 9972TIP3    H151407   3.229   0.370  11.266 -0.1154  1.0892  0.0745
 9972TIP3    H251408   3.230   0.350  11.416  1.2921 -3.5505 -0.4002
 9973TIP3   OH251409   2.323   3.787   1.807 -0.0888 -0.0520  0.4590
 9973TIP3    H151410   2.236   3.796   1.770 -0.2019  1.4791  1.0257
 9973TIP3    H251411   2.308   3.759   1.898  0.0695 -0.8812  0.2401
 9974TIP3   OH251412   0.304   2.860  11.655 -0.4423  0.5729 -0.4273
 9974TIP3    H151413   0.271   2.921  11.720  0.9172  1.4376 -0.5303
 9974TIP3    H251414   0.253   2.880  11.576 -1.0429  0.5373 -0.0560
 9975TIP3   OH251415   3.283   6.043  16.744  0.5529 -0.3675  0.1334
 9975TIP3    H151416   3.264   6.011  16.832 -0.5446  1.7367  0.7187
 9975TIP3    H251417   3.305   6.135  16.756 -0.6425  0.2289 -1.8949
 9976TIP3   OH251418   5.943   2.085  12.879 -0.4178 -0.0667  0.3451
 9976TIP3    H151419   5.870   2.028  12.855 -0.7307  0.6778 -0.5423
 9976TIP3    H251420   5.908   2.140  12.950 -0.7173  0.2687 -0.0582
 9977TIP3   OH251421   4.648   1.379   1.765  0.2991  0.3494  0.0675
 9977TIP3    H151422   4.683   1.291   1.752  0.6979  0.5751 -0.4258
 9977TIP3    H251423   4.658   1.395   1.859  1.1839  0.2682 -0.0085
 9978TIP3   OH251424   2.388   5.997   1.367 -0.1550  0.2718 -0.2562
 9978TIP3    H151425   2.365   5.948   1.288 -0.2590 -1.8846  1.0157
 9978TIP3    H251426   2.480   6.020   1.355  0.1567 -1.0348 -0.5553
 9979TIP3   OH251427   1.609   5.725  11.504  0.0076  0.4161 -0.8999
 9979TIP3    H151428   1.687   5.730  11.559 -0.9013 -1.2625  0.6408
 9979TIP3    H251429   1.611   5.806  11.452  2.1187  0.9664 -0.0677
 9980TIP3   OH251430   3.316   0.143  16.291  0.3575  0.0972 -0.3185
 9980TIP3    H151431   3.252   0.143  16.362 -0.2741 -2.1032 -0.8197
 9980TIP3    H251432   3.401   0.147  16.335 -0.0459 -0.4458  0.5398
 9981TIP3   OH251433   0.089   0.008   5.091  0.5892 -0.4903  0.5048
 9981TIP3    H151434   0.044   0.035   5.171  0.2841 -0.2755  0.2647
 9981TIP3    H251435   0.169  -0.034   5.121  0.0816 -1.1626  0.9499
 9982TIP3   OH251436   4.077   6.559  14.057 -0.3868  0.0311  0.4634
 9982TIP3    H151437   4.022   6.497  14.010 -1.1302 -0.6733  2.1568
 9982TIP3    H251438   4.145   6.584  13.995 -1.1726 -1.0294 -0.8631
 9983TIP3   OH251439   0.286   6.792  10.519 -0.4536  1.3272 -0.3970
 9983TIP3    H151440   0.199   6.769  10.484 -0.4433  1.0749 -0.2610
 9983TIP3    H251441   0.268   6.861  10.583 -0.7736  0.1209  0.8880
 9984TIP3   OH251442   2.454   6.003   3.165 -0.6404 -0.6191 -0.2237
 9984TIP3    H151443   2.424   6.094   3.171 -0.4194 -0.4843 -0.9794
 9984TIP3    H251444   2.442   5.980   3.072  1.0910 -0.7136 -0.4652
 9985TIP3   OH251445   4.020   4.520  13.398  0.1259 -0.2488  0.2712
 9985TIP3    H151446   3.992   4.558  13.315  2.5123 -1.9183 -1.4389
 9985TIP3    H251447   4.088   4.580  13.431  1.0451 -0.9119 -0.3736
 9986TIP3   OH251448   3.066   4.194  11.520  0.3790 -0.3050 -0.6190
 9986TIP3    H151449   2.981   4.156  11.497  0.1718 -0.1323 -0.1609
 9986TIP3    H251450   3.067   4.193  11.616  1.0944 -0.7323 -0.6287
 9987TIP3   OH251451   0.837   1.800   2.349 -0.1733  0.5447 -0.4463
 9987TIP3    H151452   0.901   1.824   2.282  0.2155  1.0752  0.1069
 9987TIP3    H251453   0.758   1.848   2.324  0.0927  1.0682 -0.2997
 9988TIP3   OH251454   3.034   4.087  13.574 -0.2805  0.4478 -0.2115
 9988TIP3    H151455   2.967   4.149  13.543 -0.7212  0.6462  1.0617
 9988TIP3    H251456   2.993   4.044  13.650  0.1608 -1.1474 -0.8305
 9989TIP3   OH251457   6.468   2.808  14.396  0.0931  0.7919  0.0971
 9989TIP3    H151458   6.381   2.803  14.356  0.4427  0.8028 -0.6803
 9989TIP3    H251459   6.488   2.901  14.398 -0.5836  0.9309  1.7786
 9990TIP3   OH251460   4.260   2.864  15.607 -0.0207  0.3197 -0.2452
 9990TIP3    H151461   4.311   2.837  15.683 -0.0904 -0.4147 -0.4536
 9990TIP3    H251462   4.299   2.948  15.581  1.9635 -0.8123 -1.1781
 9991TIP3   OH251463   6.637   2.058   5.138  0.1404  0.5435 -0.4687
 9991TIP3    H151464   6.732   2.049   5.148  0.1297  0.5111 -0.3977
 9991TIP3    H251465   6.613   2.125   5.201 -0.0819 -0.4255  0.4998
 9992TIP3   OH251466   0.860   6.054  11.081  0.2331  0.1052  0.2718
 9992TIP3    H151467   0.839   5.963  11.059 -0.0838 -0.1508  1.5609
 9992TIP3    H251468   0.782   6.103  11.057  0.4910  0.0991 -0.6492
 9993TIP3   OH251469   6.060   6.261  11.188 -0.8775 -0.0418  0.1878
 9993TIP3    H151470   6.134   6.223  11.140  0.5333 -0.5512  2.5959
 9993TIP3    H251471   6.015   6.186  11.226 -2.7171  0.2648 -1.2401
 9994TIP3   OH251472   3.477   4.632   5.214  0.1865 -0.0771 -0.2714
 9994TIP3    H151473   3.404   4.594   5.263  0.4419 -1.4268 -0.9012
 9994TIP3    H251474   3.537   4.559   5.200  0.3888  0.4002 -2.0742
 9995TIP3   OH251475   5.988   5.824  11.471 -0.2926 -0.2868 -0.1210
 9995TIP3    H151476   6.040   5.793  11.546 -0.3973 -0.3642 -0.0801
 9995TIP3    H251477   5.898   5.805  11.495 -0.8762  3.7687  1.7954
 9996TIP3   OH251478   0.488   6.044   0.902  0.2741  0.2540  0.6822
 9996TIP3    H151479   0.536   6.015   0.825 -0.3712 -0.6266  0.5936
 9996TIP3    H251480   0.480   6.139   0.891  2.0101  0.4441  0.7341
 9997TIP3   OH251481   4.901   2.529  16.024 -0.3415  0.3486 -0.1844
 9997TIP3    H151482   4.899   2.523  15.928 -1.4372 -1.6320 -0.0923
 9997TIP3    H251483   4.826   2.477  16.053 -0.1728  1.1002  1.7652
 9998TIP3   OH251484   4.567   4.143   4.065 -0.2399 -0.1794 -0.0449
 9998TIP3    H151485   4.515   4.064   4.081  1.1511 -1.1576 -0.2154
 9998TIP3    H251486   4.565   4.154   3.970  2.4113 -2.0979 -0.4392
 9999TIP3   OH251487   3.798   2.522  15.538 -0.1106  0.1936  0.1825
 9999TIP3    H151488   3.873   2.532  15.480 -0.2555 -0.4549 -0.1273
 9999TIP3    H251489   3.834   2.483  15.618  0.1720  1.5301  0.7437
10000TIP3   OH251490   6.350   6.670  14.179  0.0034  0.4355  0.0035
10000TIP3    H151491   6.279   6.638  14.234  0.0309  1.1406  0.4565
10000TIP3    H251492   6.426   6.618  14.205 -0.1552  0.2472  0.0954
10001TIP3   OH251493   3.381   5.049  11.111 -0.2822  0.5423 -0.3899
10001TIP3    H151494   3.337   5.126  11.075  1.2963  1.2930 -0.7850
10001TIP3    H251495   3.394   5.071  11.204  0.1622  0.7645 -0.5009
10002TIP3   OH251496   6.345   1.140  16.404 -0.3028  0.7292  0.0594
10002TIP3    H151497   6.355   1.158  16.310  0.9150  0.1398  0.0453
10002TIP3    H251498   6.254   1.161  16.423 -0.8285  0.0053 -1.4541
10003TIP3   OH251499   6.153   4.703  15.274 -0.1670  0.1192  0.0359
10003TIP3    H151500   6.148   4.730  15.366  0.5170 -0.7889  0.3509
10003TIP3    H251501   6.148   4.607  15.277  2.9123 -0.1606 -0.6097
10004TIP3   OH251502   1.281   4.573  11.901  0.2170  0.7691  0.3553
10004TIP3    H151503   1.240   4.499  11.856 -1.8605  1.7817  0.4773
10004TIP3    H251504   1.360   4.536  11.941  0.4772 -0.8352 -1.5174
10005TIP3   OH251505   1.969   5.827   3.311 -0.9739 -0.3698  0.5369
10005TIP3    H151506   1.968   5.846   3.217 -0.2727 -0.8637  0.4193
10005TIP3    H251507   1.896   5.765   3.323 -0.9470 -0.4540  0.2846
10006TIP3   OH251508   6.130   1.231   1.370 -0.7619 -0.3721  0.7637
10006TIP3    H151509   6.120   1.281   1.289  2.0635 -2.1540 -0.8300
10006TIP3    H251510   6.054   1.173   1.371 -2.8560  2.1803  1.4688
10007TIP3   OH251511   2.502   3.596  14.071  0.7625 -0.0998 -0.3080
10007TIP3    H151512   2.406   3.599  14.073  0.7787  0.5114 -0.2123
10007TIP3    H251513   2.527   3.674  14.022  1.2189 -0.0908 -0.0626
10008TIP3   OH251514   0.857   0.004   2.366 -0.3097  0.0301 -0.1223
10008TIP3    H151515   0.762   0.003   2.379 -0.4701  0.3511 -1.1653
10008TIP3    H251516   0.873   0.083   2.314  0.7032  0.7123  1.1812
10009TIP3   OH251517   0.109   1.835  17.235  0.0693 -0.5918  0.2057
10009TIP3    H151518   0.161   1.895  17.287 -1.2434  0.1161  0.7408
10009TIP3    H251519   0.057   1.786  17.298  0.1465 -1.3630 -0.3084
10010TIP3   OH251520   6.783   0.110   1.562 -0.3132  0.7333 -0.3202
10010TIP3    H151521   6.751   0.071   1.480  0.0184  1.3616 -0.7592
10010TIP3    H251522   6.877   0.120   1.549 -0.2724  0.9298  0.1051
10011TIP3   OH251523   6.210   2.660   2.101 -0.6347 -0.7345  0.3906
10011TIP3    H151524   6.179   2.658   2.192 -0.1036 -1.5353  0.5654
10011TIP3    H251525   6.272   2.587   2.095 -0.7447 -0.7605 -0.6444
10012TIP3   OH251526   2.923   2.890  17.126 -0.0769  0.4275 -0.0305
10012TIP3    H151527   2.933   2.797  17.106 -1.3273  0.5470 -1.3333
10012TIP3    H251528   2.922   2.933  17.041 -2.3528  1.3122  0.3687
10013TIP3   OH251529   4.316   3.042  14.664 -0.2992 -0.0096  0.0314
10013TIP3    H151530   4.270   2.958  14.658  1.5587 -1.0188 -1.8628
10013TIP3    H251531   4.408   3.017  14.677  0.2317  1.7481 -0.1625
10014TIP3   OH251532   0.494   3.215   3.785 -0.3038 -0.1370 -0.4901
10014TIP3    H151533   0.545   3.135   3.800 -0.3407 -0.2426 -0.9094
10014TIP3    H251534   0.558   3.280   3.760 -0.1878  0.1588  0.5262
10015TIP3   OH251535   3.103   4.474  16.969  0.0141 -0.0786  0.1595
10015TIP3    H151536   3.128   4.456  16.878  0.1420  0.3312  0.1094
10015TIP3    H251537   3.129   4.396  17.016  0.9820  0.1449  0.0222
10016TIP3   OH251538   1.925   1.025  13.943 -0.1585 -0.5098 -0.2127
10016TIP3    H151539   1.871   0.947  13.959 -0.9225 -0.0818 -0.6364
10016TIP3    H251540   1.862   1.095  13.927  0.4887  0.4600  1.2590
10017TIP3   OH251541   5.133   0.367  11.466 -0.4868 -0.1053 -0.4388
10017TIP3    H151542   5.147   0.449  11.513  0.0540 -1.2999  1.5787
10017TIP3    H251543   5.096   0.394  11.382 -0.4558  2.1840  0.2180
10018TIP3   OH251544   2.558   6.577   1.327 -0.2741 -1.0113  0.4857
10018TIP3    H151545   2.581   6.624   1.407 -0.9580 -0.5438  0.4115
10018TIP3    H251546   2.642   6.565   1.282 -0.1063  0.4197  0.3640
10019TIP3   OH251547   2.587   4.868  15.075 -0.3665 -0.3840 -0.6274
10019TIP3    H151548   2.651   4.838  15.011 -0.5968 -1.2460 -0.4585
10019TIP3    H251549   2.516   4.804  15.071 -1.0973  0.3914 -0.6024
10020TIP3   OH251550   4.163   1.360   1.911  0.1920 -0.0919 -0.2600
10020TIP3    H151551   4.122   1.314   1.837 -1.9507  1.4545 -0.1197
10020TIP3    H251552   4.223   1.296   1.948  0.0008 -1.5244 -2.2512
10021TIP3   OH251553   6.701   1.841   1.591 -0.2492 -0.3268  0.6580
10021TIP3    H151554   6.749   1.775   1.542 -1.4316  0.5424 -1.8402
10021TIP3    H251555   6.769   1.896   1.630  0.7498 -2.8238  2.6609
10022TIP3   OH251556   4.824   0.063  15.261 -0.3138  0.6449  0.0623
10022TIP3    H151557   4.848   0.073  15.169  2.6574  1.8438  0.8560
10022TIP3    H251558   4.810   0.152  15.292  2.4357  0.6624  1.5659
10023TIP3   OH251559   1.179   3.060  14.624  0.2143 -0.2287 -0.4161
10023TIP3    H151560   1.256   3.092  14.672 -0.2644  2.6657 -1.4128
10023TIP3    H251561   1.189   3.096  14.536 -1.4680 -1.2051 -1.0455
10024TIP3   OH251562   0.377   6.480   5.346  0.5103  0.1284 -0.7836
10024TIP3    H151563   0.366   6.385   5.341  1.4787 -0.0791  0.3769
10024TIP3    H251564   0.353   6.502   5.436 -0.2881  1.0931 -1.2066
10025TIP3   OH251565   6.376   2.948  11.796 -0.0249  0.2590  0.6003
10025TIP3    H151566   6.329   2.909  11.722 -0.0294 -0.9434  1.2097
10025TIP3    H251567   6.363   3.042  11.786 -0.3564  0.0958 -0.7029
10026TIP3   OH251568   3.384   4.875   0.356  0.2270  0.5090 -0.7165
10026TIP3    H151569   3.402   4.897   0.448  0.7552 -1.4046 -0.3188
10026TIP3    H251570   3.455   4.918   0.307  0.7806  0.3545 -0.0720
10027TIP3   OH251571   5.555   4.705  13.850  0.0439  0.1873  0.2748
10027TIP3    H151572   5.519   4.722  13.763 -0.2578 -1.8479 -0.0317
10027TIP3    H251573   5.610   4.628  13.839  0.1218 -0.0183  1.8562
10028TIP3   OH251574   2.103   6.483  12.621  0.0051 -0.3175  0.3250
10028TIP3    H151575   2.088   6.504  12.713 -0.0425 -2.0173  0.7242
10028TIP3    H251576   2.017   6.457  12.588 -0.2764  1.5953 -0.6037
10029TIP3   OH251577   5.431   4.712   4.806 -0.2679  0.2725  0.0082
10029TIP3    H151578   5.420   4.669   4.891  0.8558  0.8395  0.4704
10029TIP3    H251579   5.382   4.658   4.745 -0.5327 -0.5330  0.9098
10030TIP3   OH251580   2.311   2.336   2.665 -0.0211  0.2136  0.1510
10030TIP3    H151581   2.247   2.348   2.594  0.9056  1.0171 -0.5781
10030TIP3    H251582   2.396   2.353   2.624  0.6094 -0.1694  1.2596
10031TIP3   OH251583   0.420   4.020  15.611 -0.2994 -0.2735 -0.2106
10031TIP3    H151584   0.493   3.986  15.662 -1.4388 -0.5777  1.2852
10031TIP3    H251585   0.351   3.954  15.620 -0.2051 -0.9406 -3.1633
10032TIP3   OH251586   6.315   5.939  14.436 -0.1122 -0.2037  0.1627
10032TIP3    H151587   6.228   5.973  14.415  0.0068 -0.4033 -0.6910
10032TIP3    H251588   6.318   5.939  14.532 -1.5559 -1.4535  0.2506
10033TIP3   OH251589   1.534   2.383  17.251  0.1540 -0.5964 -0.3348
10033TIP3    H151590   1.480   2.317  17.207 -2.0330 -0.2823  1.6522
10033TIP3    H251591   1.482   2.464  17.245  0.9283 -0.0078  0.6598
10034TIP3   OH251592   6.044   5.794   3.160 -0.2285  0.0964  0.1507
10034TIP3    H151593   5.998   5.710   3.152  1.1216 -0.5445 -1.5595
10034TIP3    H251594   6.093   5.786   3.242  1.6566 -1.7928 -1.0435
10035TIP3   OH251595   5.211   6.810  16.533  0.6516  0.6381 -0.3312
10035TIP3    H151596   5.115   6.809  16.538  0.7080 -0.3190  0.7330
10035TIP3    H251597   5.235   6.719  16.516  1.4921  0.2340  2.4958
10036TIP3   OH251598   5.096   0.906  11.715  0.1269 -0.2560 -0.0225
10036TIP3    H151599   5.070   0.938  11.802  2.7808  1.4811  0.2763
10036TIP3    H251600   5.188   0.881  11.726 -0.2404 -2.6981 -1.7246
10037TIP3   OH251601   2.847   1.628  16.424  0.4509 -0.1883 -0.3072
10037TIP3    H151602   2.805   1.567  16.484  0.1567  0.0968 -0.2180
10037TIP3    H251603   2.891   1.692  16.481 -2.8271  2.2658 -0.1894
10038TIP3   OH251604   2.300   5.624  17.278 -0.3008  0.2063 -0.3644
10038TIP3    H151605   2.272   5.691  17.340  0.7729 -0.4177  0.8357
10038TIP3    H251606   2.219   5.580  17.252 -0.7993  0.6478  0.3975
10039TIP3   OH251607   3.640   4.752   0.589  0.2938 -0.1757 -0.1639
10039TIP3    H151608   3.606   4.841   0.596  2.0228  0.4265  1.5515
10039TIP3    H251609   3.711   4.759   0.525 -0.2470 -0.5640 -0.8123
10040TIP3   OH251610   6.765   2.742   3.620 -0.0242 -0.0049 -0.5398
10040TIP3    H151611   6.708   2.733   3.696 -0.5500 -0.7534 -1.0071
10040TIP3    H251612   6.854   2.746   3.656 -0.3691  1.5508  0.2197
10041TIP3   OH251613   5.430   2.006  11.906  0.0792 -0.0601  0.2832
10041TIP3    H151614   5.495   2.012  11.836 -0.3576  1.7756 -0.0056
10041TIP3    H251615   5.400   1.915  11.903  0.8211 -0.2869 -1.2173
10042TIP3   OH251616   1.821   2.858  13.985  0.4943 -0.0147  0.5250
10042TIP3    H151617   1.904   2.902  14.001  0.6749 -0.8503  2.0275
10042TIP3    H251618   1.769   2.875  14.063 -0.7025  0.3460 -0.3185
10043TIP3   OH251619   4.105   6.259   0.701 -0.1442 -0.0441  0.7715
10043TIP3    H151620   4.102   6.170   0.666 -0.9400  0.4994 -0.6597
10043TIP3    H251621   4.038   6.306   0.650 -0.9849  0.9462  2.7080
10044TIP3   OH251622   2.047   3.740  14.048  0.0351  0.1785 -0.7900
10044TIP3    H151623   2.030   3.832  14.029 -1.4683  0.3345  1.0216
10044TIP3    H251624   2.014   3.727  14.137  0.2331 -2.1089 -0.9835
10045TIP3   OH251625   6.517   2.727  11.871  0.7454 -0.0154  0.1030
10045TIP3    H151626   6.605   2.766  11.870  1.1798 -0.9684  0.4343
10045TIP3    H251627   6.458   2.802  11.860  1.4568  1.0601  2.7081
10046TIP3   OH251628   3.659   1.330  12.634  1.1696  0.6355 -0.2325
10046TIP3    H151629   3.618   1.410  12.601  0.9944  0.0933 -1.3699
10046TIP3    H251630   3.753   1.348  12.627  1.1851  0.0021 -2.5189
10047TIP3   OH251631   4.294   4.358   3.419 -0.1711 -0.4002  0.6582
10047TIP3    H151632   4.231   4.303   3.373 -1.4188  0.5779  1.1109
10047TIP3    H251633   4.241   4.405   3.484  0.5231  2.3303 -0.5863
10048TIP3   OH251634   0.845   2.995   5.139  0.1833 -0.4444 -0.7698
10048TIP3    H151635   0.871   2.999   5.231 -0.1126 -3.0331 -0.4959
10048TIP3    H251636   0.806   2.909   5.129 -0.7537  0.1713 -3.1094
10049TIP3   OH251637   5.750   2.922  13.976 -0.0369 -0.1984 -0.3721
10049TIP3    H151638   5.718   2.831  13.975 -0.4197 -0.1218  1.2076
10049TIP3    H251639   5.768   2.942  13.885 -0.6072 -1.6388 -0.8387
10050TIP3   OH251640   1.681   0.188  10.149  0.3529  0.0420  0.7342
10050TIP3    H151641   1.648   0.180  10.059  0.2438  1.8957  0.5700
10050TIP3    H251642   1.756   0.246  10.141  2.2311 -2.1623  1.4596
10051TIP3   OH251643   5.640   2.502  11.839  0.6335 -0.0505 -0.2935
10051TIP3    H151644   5.642   2.587  11.794  0.9121  0.4576  0.6605
10051TIP3    H251645   5.547   2.479  11.841  0.1431  1.7629  2.2021
10052TIP3   OH251646   6.000   2.437  14.385  0.0257  0.6978 -0.1096
10052TIP3    H151647   6.080   2.414  14.337  0.0226 -0.7791  0.5377
10052TIP3    H251648   5.942   2.473  14.318 -0.1400 -1.6876 -1.3632
10053TIP3   OH251649   6.363   6.650  13.906  0.1847 -0.2830  0.1469
10053TIP3    H151650   6.454   6.640  13.875  0.0101  1.2909 -0.9628
10053TIP3    H251651   6.372   6.671  13.999  1.0912  1.6273 -0.3213
10054TIP3   OH251652   1.710   5.531   0.897 -0.9829  0.1324 -0.5918
10054TIP3    H151653   1.740   5.476   0.969 -2.6855  1.1681  0.9897
10054TIP3    H251654   1.684   5.469   0.829  0.1407 -0.8855 -0.1283
10055TIP3   OH251655   0.225   3.535  12.509  0.0168  0.1549 -0.1465
10055TIP3    H151656   0.284   3.602  12.473  1.8075  0.7010  3.3485
10055TIP3    H251657   0.267   3.452  12.486 -0.3055  0.3365 -1.4696
10056TIP3   OH251658   1.903   5.360  13.410  0.6096 -0.2061  0.1121
10056TIP3    H151659   1.902   5.456  13.401  1.8161 -0.3005 -1.7344
10056TIP3    H251660   1.975   5.343  13.471  1.8508  0.0485 -1.2066
10057TIP3   OH251661   6.595   6.149  13.208  0.4880  0.5145  0.1018
10057TIP3    H151662   6.536   6.225  13.202 -3.2853 -2.1164  0.1510
10057TIP3    H251663   6.592   6.109  13.122  1.2251 -0.3654  0.4678
10058TIP3   OH251664   5.795   4.033   0.671 -0.1918 -0.0110 -0.3346
10058TIP3    H151665   5.708   4.036   0.712 -0.3173  1.9139 -0.6675
10058TIP3    H251666   5.782   3.982   0.591 -1.2448  1.0469 -0.8613
10059TIP3   OH251667   5.283   2.634  11.073 -0.1608 -0.0699  0.1245
10059TIP3    H151668   5.366   2.586  11.080 -0.4895 -0.6688  0.0069
10059TIP3    H251669   5.255   2.620  10.983 -0.7984 -0.5625  0.3933
10060TIP3   OH251670   6.151   2.707   4.414  0.1350 -0.7625 -0.2629
10060TIP3    H151671   6.151   2.670   4.502 -2.0299 -1.1185 -0.3650
10060TIP3    H251672   6.168   2.800   4.427 -0.7560 -0.7111  0.5820
10061TIP3   OH251673   3.969   5.134   2.853  0.2166  0.2679  0.6149
10061TIP3    H151674   3.943   5.212   2.803 -0.9884  0.3877  1.3933
10061TIP3    H251675   4.062   5.147   2.869  0.0855  1.4616  0.5392
10062TIP3   OH251676   6.470   4.820  10.609  0.1502 -0.7564  0.0441
10062TIP3    H151677   6.457   4.876  10.685  3.0643 -0.4757  0.4666
10062TIP3    H251678   6.455   4.731  10.642  2.7617 -0.7823  1.4731
10063TIP3   OH251679   1.584   5.107  17.171 -1.1438  0.1818 -0.0582
10063TIP3    H151680   1.627   5.191  17.188 -1.1319  0.7728 -2.6477
10063TIP3    H251681   1.507   5.107  17.227  1.0218 -0.0461  3.2394
10064TIP3   OH251682   2.705   0.016  11.967 -0.3972 -0.1703 -0.9414
10064TIP3    H151683   2.712  -0.005  12.060  2.2515 -0.5935 -1.1517
10064TIP3    H251684   2.796   0.019  11.937 -1.1551  0.9340 -3.3109
10065TIP3   OH251685   1.906   0.358  17.050  0.0085 -0.1964  0.0441
10065TIP3    H151686   1.854   0.436  17.066  0.2486 -0.1780  0.7482
10065TIP3    H251687   1.997   0.389  17.046  0.1974 -0.5530  1.2434
10066TIP3   OH251688   6.737   5.725  13.885 -0.9101  0.2063  0.3304
10066TIP3    H151689   6.682   5.804  13.887  0.1413  1.0249 -1.1914
10066TIP3    H251690   6.676   5.653  13.901 -2.0617  1.2382  0.7679
10067TIP3   OH251691   4.038   6.073  14.196  0.2138 -0.1985 -0.2694
10067TIP3    H151692   4.098   6.003  14.172  0.9802  0.2279  0.3568
10067TIP3    H251693   4.076   6.152  14.158  0.4950  0.2024  0.8162
10068TIP3   OH251694   3.906   3.224  16.257  0.2208  0.1317 -0.2965
10068TIP3    H151695   3.928   3.280  16.182 -0.2806  0.6525 -0.0636
10068TIP3    H251696   3.973   3.155  16.256  0.8030  0.6870 -0.6404
10069TIP3   OH251697   0.880   5.900   1.604  0.1513  0.7287  0.1758
10069TIP3    H151698   0.895   5.808   1.582  2.3150  0.8401  0.9913
10069TIP3    H251699   0.895   5.947   1.522 -1.2891  0.3702 -0.3256
10070TIP3   OH251700   0.214   6.052   2.978  0.0940 -0.6171 -0.3287
10070TIP3    H151701   0.120   6.068   2.986  0.2445 -0.5648  3.2615
10070TIP3    H251702   0.254   6.139   2.979  0.2338 -0.6818 -0.2646
10071TIP3   OH251703   5.990   0.402  15.654  0.3555  0.3442 -0.2740
10071TIP3    H151704   5.941   0.433  15.730  0.0053 -1.2630  0.1964
10071TIP3    H251705   6.049   0.335  15.689 -0.2159 -0.8347 -1.4784
10072TIP3   OH251706   2.075   5.955   4.469 -0.0187 -0.6970  0.3358
10072TIP3    H151707   2.083   5.913   4.383  0.5896 -0.8634  0.4648
10072TIP3    H251708   2.166   5.963   4.499 -0.1482  0.4402  0.4459
10073TIP3   OH251709   6.154   6.436  15.646 -0.1312 -0.5345 -0.3785
10073TIP3    H151710   6.110   6.502  15.700 -1.8247 -0.3643 -1.8767
10073TIP3    H251711   6.248   6.456  15.656 -0.4745  0.5921  1.0370
10074TIP3   OH251712   2.162   5.321   2.828  0.0215 -0.2119 -0.1984
10074TIP3    H151713   2.091   5.358   2.776 -0.1423  0.5907  0.5635
10074TIP3    H251714   2.122   5.247   2.874 -0.6710  0.9081  1.0977
10075TIP3   OH251715   5.834   5.410  13.521  0.3837  0.3903  0.2090
10075TIP3    H151716   5.751   5.453  13.498  0.7590  0.1848 -1.7363
10075TIP3    H251717   5.895   5.482  13.536 -0.1507  0.5457  1.8096
10076TIP3   OH251718   4.377   1.008  16.330  0.0302 -0.2026 -0.6585
10076TIP3    H151719   4.407   1.086  16.282  0.5417 -0.2707 -0.4591
10076TIP3    H251720   4.341   0.951  16.262 -0.8945  0.4459 -0.7376
10077TIP3   OH251721   1.857   4.426  11.666  0.7380  0.7361 -0.3459
10077TIP3    H151722   1.825   4.512  11.640  1.1683  1.2001  0.5951
10077TIP3    H251723   1.784   4.387  11.713  1.1272  1.3398  0.8126
10078TIP3   OH251724   4.867   6.186  16.562 -0.3369  0.0948  0.5524
10078TIP3    H151725   4.792   6.171  16.619  1.2684 -0.3956  2.6555
10078TIP3    H251726   4.843   6.144  16.479 -1.0736 -3.1114  2.2210
10079TIP3   OH251727   4.007   0.158  13.083  0.1171  0.2234 -0.6042
10079TIP3    H151728   4.028   0.108  13.162  0.2743  1.3888  0.1133
10079TIP3    H251729   3.953   0.098  13.031 -0.5826 -0.3225  0.7010
10080TIP3   OH251730   1.960   1.155   3.089  0.1732  0.2703  0.2567
10080TIP3    H151731   1.902   1.207   3.033 -0.9317 -1.7367 -0.5845
10080TIP3    H251732   2.036   1.211   3.104 -1.1472  2.2808 -0.1619
10081TIP3   OH251733   5.715   1.872   0.394 -0.6866  0.0120  0.3671
10081TIP3    H151734   5.670   1.955   0.413  0.9814  0.8404  0.8389
10081TIP3    H251735   5.698   1.857   0.301 -0.7024  1.0764  0.1864
10082TIP3   OH251736   6.759   0.435   0.260  0.0390 -0.2136 -0.0623
10082TIP3    H151737   6.693   0.449   0.328 -0.7043 -0.4191 -0.7204
10082TIP3    H251738   6.764   0.340   0.250 -0.1021 -0.1784 -0.5156
10083TIP3   OH251739   6.615   1.422   0.739  0.3635 -0.1836  0.0836
10083TIP3    H151740   6.705   1.444   0.717 -0.0315  1.4289  0.0037
10083TIP3    H251741   6.598   1.341   0.690  1.6476 -0.3399 -0.1404
10084TIP3   OH251742   0.880   2.043  12.820 -0.0268 -0.3620 -0.0978
10084TIP3    H151743   0.790   2.042  12.853 -0.3530  1.3593 -0.8127
10084TIP3    H251744   0.872   2.070  12.729  1.2751  0.7837  0.0917
10085TIP3   OH251745   5.219   2.311   4.093  0.0452 -0.3835  0.1427
10085TIP3    H151746   5.133   2.351   4.102  0.9796  1.8859 -0.5020
10085TIP3    H251747   5.220   2.275   4.004  0.6471  1.9848 -0.8755
10086TIP3   OH251748   1.876   3.641  14.889 -0.1268  0.5297  0.1089
10086TIP3    H151749   1.908   3.651  14.979 -0.0039 -0.9343  0.2591
10086TIP3    H251750   1.788   3.606  14.899 -0.8277  2.0795 -0.3433
10087TIP3   OH251751   5.652   0.146  14.692 -0.1300 -0.4491  0.6625
10087TIP3    H151752   5.664   0.126  14.599 -0.0313 -1.1038  0.8174
10087TIP3    H251753   5.702   0.079  14.738 -0.6249 -0.4534  1.2013
10088TIP3   OH251754   4.376   5.716  13.921  0.7391 -0.4212 -0.2305
10088TIP3    H151755   4.466   5.702  13.950  0.5369  0.1518  0.7476
10088TIP3    H251756   4.382   5.725  13.826  1.5088 -1.8524 -0.3354
10089TIP3   OH251757   4.879   6.408   5.731 -0.4715 -0.3690 -0.8473
10089TIP3    H151758   4.802   6.463   5.750 -0.8583 -0.0621 -2.9747
10089TIP3    H251759   4.908   6.438   5.645  1.8554 -0.7305 -0.2384
10090TIP3   OH251760   4.490   0.052   3.214 -0.0201  0.2637 -0.4593
10090TIP3    H151761   4.482  -0.023   3.155  0.4163 -1.0711  1.1258
10090TIP3    H251762   4.401   0.088   3.217 -1.3007 -2.7022  1.8861
10091TIP3   OH251763   5.552   2.869   3.438  0.4722 -0.0887  0.7809
10091TIP3    H151764   5.560   2.803   3.368  1.5403  0.8604 -0.0231
10091TIP3    H251765   5.478   2.923   3.412 -0.0619 -0.6072  1.1667
10092TIP3   OH251766   2.798   5.521  10.386 -0.1488 -0.0431 -0.3250
10092TIP3    H151767   2.836   5.449  10.336  0.0309  0.3206 -0.7095
10092TIP3    H251768   2.841   5.599  10.353  0.6862  0.1174  1.0612
10093TIP3   OH251769   0.863   0.930  15.005  0.3150 -0.2250  0.1003
10093TIP3    H151770   0.956   0.931  14.983  0.1466 -0.5779 -0.6820
10093TIP3    H251771   0.857   0.876  15.083  0.4705 -2.4598 -1.3595
10094TIP3   OH251772   1.662   0.181   4.494 -0.1534  0.3437 -0.2609
10094TIP3    H151773   1.739   0.125   4.500 -0.9914 -0.7064  1.6441
10094TIP3    H251774   1.692   0.267   4.525  0.8909  0.7655 -2.2478
10095TIP3   OH251775   0.268   1.221  14.263  0.4227  1.0373  0.6966
10095TIP3    H151776   0.353   1.249  14.232 -0.9478  4.8787 -0.1526
10095TIP3    H251777   0.229   1.174  14.188  1.3362  0.1681  0.7434
10096TIP3   OH251778   1.009   2.945  13.999  0.1260 -0.2495  0.0942
10096TIP3    H151779   1.088   2.978  14.042  0.9130  0.2528 -1.6265
10096TIP3    H251780   1.005   2.993  13.916 -1.4222 -1.0193 -0.3211
10097TIP3   OH251781   1.290   1.742  10.752 -0.0749 -0.5887  0.3121
10097TIP3    H151782   1.255   1.821  10.794 -0.4130 -0.6636  0.1790
10097TIP3    H251783   1.382   1.741  10.775 -0.3348 -0.8405  1.3638
10098TIP3   OH251784   2.449   2.763   0.752  0.3847 -0.4513  0.0878
10098TIP3    H151785   2.512   2.829   0.781  0.7147 -0.3688 -0.7845
10098TIP3    H251786   2.500   2.704   0.696 -0.2364 -0.5611 -0.3834
10099TIP3   OH251787   1.956   3.119   4.655  0.1598 -0.0242 -0.0807
10099TIP3    H151788   2.036   3.105   4.707 -0.5365  0.7425  1.2613
10099TIP3    H251789   1.985   3.170   4.580  0.9558  0.1589  0.3371
10100TIP3   OH251790   2.532   6.550  14.657 -0.1871 -0.7684  0.7658
10100TIP3    H151791   2.446   6.568  14.620  0.2213  0.4501  0.3771
10100TIP3    H251792   2.516   6.481  14.722 -1.2106 -1.5777 -0.3069
10101TIP3   OH251793   4.924   0.357  12.396  0.7093  0.1763  0.0347
10101TIP3    H151794   4.829   0.371  12.399  0.9389  1.6724  1.3336
10101TIP3    H251795   4.947   0.329  12.485  1.7265  1.7404  0.3002
10102TIP3   OH251796   0.424   1.181  16.424 -0.3317  0.4849  0.0613
10102TIP3    H151797   0.453   1.101  16.379  0.9640  0.6533  0.5672
10102TIP3    H251798   0.388   1.236  16.354 -4.0271 -1.6282  0.0060
10103TIP3   OH251799   1.847   4.557   4.452 -0.5092  0.4169  0.4101
10103TIP3    H151800   1.941   4.539   4.453 -0.3281  1.2744  1.2258
10103TIP3    H251801   1.806   4.474   4.475 -0.0791 -0.4326 -1.6774
10104TIP3   OH251802   1.433   2.925  15.461 -0.1841 -0.1260 -0.0650
10104TIP3    H151803   1.450   3.015  15.489 -1.7386  0.2478 -0.2162
10104TIP3    H251804   1.392   2.884  15.537 -0.4408 -0.3819 -0.3392
10105TIP3   OH251805   0.339   6.532  10.711 -0.1053  0.3164 -0.2493
10105TIP3    H151806   0.382   6.611  10.678 -1.6076  0.6982 -1.4109
10105TIP3    H251807   0.250   6.537  10.676 -0.9668 -0.6921  1.6641
10106TIP3   OH251808   0.576   5.809   2.899 -0.1538  0.1420  0.2130
10106TIP3    H151809   0.639   5.748   2.861 -2.0633 -0.2454 -2.6882
10106TIP3    H251810   0.621   5.894   2.899  0.9372 -0.4220 -0.2280
10107TIP3   OH251811   3.545   1.688   0.960  0.5497  0.5320 -0.3217
10107TIP3    H151812   3.513   1.636   0.887 -0.5660 -0.8717  1.0789
10107TIP3    H251813   3.637   1.663   0.970  0.4968  0.1599 -0.7547
10108TIP3   OH251814   4.078   6.816  13.315 -0.0058  0.3926 -0.1340
10108TIP3    H151815   4.083   6.728  13.278  0.4869  1.5188 -2.9526
10108TIP3    H251816   4.110   6.805  13.405  0.6031 -2.1879 -0.5797
10109TIP3   OH251817   6.720   4.715   0.514  0.4031  0.1150  0.2746
10109TIP3    H151818   6.798   4.663   0.497 -0.5246 -0.5075 -2.6793
10109TIP3    H251819   6.668   4.661   0.574  1.4864 -0.2236  0.9216
10110TIP3   OH251820   5.884   6.479   6.545  0.3618  0.0025 -0.0242
10110TIP3    H151821   5.862   6.541   6.614  3.0750 -0.2066  1.1553
10110TIP3    H251822   5.842   6.397   6.571 -0.0012  0.3460  0.4760
10111TIP3   OH251823   4.900   2.174  15.946  0.5858 -0.6969 -0.3100
10111TIP3    H151824   4.845   2.167  16.024  0.0878 -0.3925 -0.6283
10111TIP3    H251825   4.986   2.200  15.979  0.5627 -1.2600  0.2007
10112TIP3   OH251826   6.563   6.580  13.408 -0.5263 -0.0538 -0.9163
10112TIP3    H151827   6.492   6.613  13.462  0.1925  0.5911 -0.3457
10112TIP3    H251828   6.601   6.509  13.459  0.2916  0.6977 -0.4596
10113TIP3   OH251829   4.053   1.649   0.702 -0.4122  0.2700  0.5722
10113TIP3    H151830   4.134   1.635   0.652 -0.6373 -0.9191  0.5067
10113TIP3    H251831   4.028   1.561   0.732 -1.9234  0.5468  0.2140
10114TIP3   OH251832   2.456   4.158   5.181 -0.3642  0.2368  0.1395
10114TIP3    H151833   2.369   4.188   5.209 -0.0632  1.7776 -0.4769
10114TIP3    H251834   2.445   4.140   5.087 -0.3819 -1.0591  0.3751
10115TIP3   OH251835   5.992   2.271   5.453  0.2396  0.2514  0.0677
10115TIP3    H151836   6.005   2.356   5.494  1.1296 -0.0833  0.5191
10115TIP3    H251837   6.023   2.282   5.363  2.4427 -0.1282  0.7076
10116TIP3   OH251838   5.954   2.719   2.641 -0.4078  0.2343  0.0390
10116TIP3    H151839   5.871   2.674   2.656  0.2084 -1.3454 -1.0770
10116TIP3    H251840   6.015   2.679   2.703 -0.2586  0.7580  0.2360
10117TIP3   OH251841   1.941   1.999   2.744 -0.1290  0.3499 -0.5626
10117TIP3    H151842   2.021   2.051   2.749 -0.5205  1.0407 -1.1763
10117TIP3    H251843   1.931   1.961   2.831  0.0814  1.4477 -0.0403
10118TIP3   OH251844   6.036   3.490  17.118 -0.0563 -0.0676  0.4543
10118TIP3    H151845   6.051   3.561  17.181 -0.6929 -0.1265  0.6834
10118TIP3    H251846   6.112   3.493  17.060  1.3012 -0.9559  2.1094
10119TIP3   OH251847   6.597   1.456  13.766  0.0204  0.3064  0.1055
10119TIP3    H151848   6.630   1.458  13.855 -0.8619 -0.9109  0.4881
10119TIP3    H251849   6.530   1.388  13.766 -2.3748  2.4817 -0.6855
10120TIP3   OH251850   2.737   0.327   0.392  0.2463  0.1594 -0.2927
10120TIP3    H151851   2.749   0.288   0.479  1.4056  0.5200 -0.2701
10120TIP3    H251852   2.708   0.254   0.337 -0.0715 -0.1696  0.2973
10121TIP3   OH251853   4.921   4.900   2.251 -0.2400 -0.0470 -0.2525
10121TIP3    H151854   4.850   4.852   2.293 -0.3380 -1.1872 -1.6401
10121TIP3    H251855   4.878   4.970   2.202 -0.5329 -1.1939 -1.7086
10122TIP3   OH251856   6.417   2.307  16.973  0.0077 -0.8809  0.4468
10122TIP3    H151857   6.353   2.242  17.004 -1.3865 -0.2322 -0.8783
10122TIP3    H251858   6.381   2.336  16.889  0.6751  1.4822  0.9116
10123TIP3   OH251859   3.737   5.477  11.097  0.1200 -0.7038  0.0903
10123TIP3    H151860   3.687   5.456  11.018 -0.5111 -0.4711  0.4266
10123TIP3    H251861   3.723   5.402  11.155  0.4700 -0.8108  0.0378
10124TIP3   OH251862   0.193   1.013   1.447 -0.0908  0.1600 -0.0618
10124TIP3    H151863   0.224   0.985   1.533  1.5926  0.3346 -0.5913
10124TIP3    H251864   0.113   0.962   1.433  1.0648 -1.8832  0.4522
10125TIP3   OH251865   5.552   5.013  13.601 -0.4526 -0.0610 -0.0135
10125TIP3    H151866   5.629   4.971  13.640 -0.1797 -0.1583 -0.6405
10125TIP3    H251867   5.585   5.096  13.566 -0.5958 -0.1843 -0.4432
10126TIP3   OH251868   5.341   4.541  12.769  0.1776  0.5107  0.5852
10126TIP3    H151869   5.401   4.615  12.782  0.9401 -0.1753  1.0407
10126TIP3    H251870   5.379   4.491  12.697  1.7791 -1.4821  2.6720
10127TIP3   OH251871   3.651   4.139   0.985  0.0083  0.3683 -0.3406
10127TIP3    H151872   3.628   4.071   1.049 -2.5180 -0.1448 -1.6779
10127TIP3    H251873   3.747   4.135   0.980  0.2528 -0.1332  2.7243
10128TIP3   OH251874   6.110   2.030  14.318  0.5942 -0.2918  0.0153
10128TIP3    H151875   6.090   2.073  14.235 -1.5401  1.2143  1.2276
10128TIP3    H251876   6.034   1.975  14.335  0.2961  0.5667  1.6433
10129TIP3   OH251877   0.676   6.381   0.890 -0.4402  0.8773 -0.1211
10129TIP3    H151878   0.731   6.395   0.967 -0.6548 -0.5059  0.3082
10129TIP3    H251879   0.603   6.328   0.921  0.4982 -1.4557 -1.6237
10130TIP3   OH251880   5.412   0.065   0.536  0.1700  0.1346  0.2357
10130TIP3    H151881   5.386  -0.017   0.495  1.7496 -0.0555 -0.4428
10130TIP3    H251882   5.329   0.109   0.557 -0.6837 -0.7175 -1.2263
10131TIP3   OH251883   4.567   6.231  13.953  0.2518  0.4153 -0.2849
10131TIP3    H151884   4.649   6.227  14.001  0.9481  0.9454 -1.3693
10131TIP3    H251885   4.521   6.151  13.976  1.9103 -0.8277 -1.0914
10132TIP3   OH251886   6.295   5.468   2.633  0.4383 -0.2934  0.0585
10132TIP3    H151887   6.323   5.488   2.722 -1.1311  2.7211 -0.0129
10132TIP3    H251888   6.371   5.489   2.578  0.6088  0.2383  0.4954
10133TIP3   OH251889   2.583   5.879   4.766 -0.6273 -0.4872  0.4381
10133TIP3    H151890   2.613   5.813   4.828  2.1796  0.1162 -0.1598
10133TIP3    H251891   2.635   5.864   4.688  0.5161  2.6882  0.4548
10134TIP3   OH251892   0.988   5.318  13.142 -0.2276  0.2730 -0.5100
10134TIP3    H151893   0.971   5.410  13.163 -0.0935  0.4343 -1.0881
10134TIP3    H251894   0.922   5.270  13.191  0.1538  0.6209  0.3863
10135TIP3   OH251895   5.093   1.874  15.999  0.5941 -0.8418  0.5639
10135TIP3    H151896   5.111   1.858  16.091 -1.5338  0.9042  1.3817
10135TIP3    H251897   5.104   1.969  15.989 -1.7639 -0.5831 -0.2655
10136TIP3   OH251898   2.073   5.713  12.146 -0.1200  0.3476 -0.4578
10136TIP3    H151899   2.039   5.679  12.228  0.4143  0.9597  0.0250
10136TIP3    H251900   1.997   5.756  12.105 -0.3043  0.3470 -0.1204
10137TIP3   OH251901   0.006   5.770  14.265  0.2831 -0.4288  0.6594
10137TIP3    H151902  -0.086   5.743  14.264  0.2337 -0.3243 -1.3710
10137TIP3    H251903   0.052   5.699  14.221  0.5420  1.3195 -2.1278
10138TIP3   OH251904   5.085   5.875  11.292 -0.0297 -0.0003 -0.6560
10138TIP3    H151905   5.002   5.876  11.244 -0.2264  2.8747 -0.4271
10138TIP3    H251906   5.100   5.966  11.316  2.7554 -0.5716  0.1492
10139TIP3   OH251907   0.540   5.684  10.483  0.7251  0.9404  0.9087
10139TIP3    H151908   0.621   5.702  10.532  1.6974  1.0591 -0.6592
10139TIP3    H251909   0.566   5.620  10.416 -0.8460 -0.1863  1.3177
10140TIP3   OH251910   3.080   1.274  11.119  0.2385 -0.3283 -0.0781
10140TIP3    H151911   3.158   1.273  11.174  1.8484  2.3960 -2.0418
10140TIP3    H251912   3.043   1.362  11.131 -1.0532 -0.6952 -1.1219
10141TIP3   OH251913   4.442   0.996  15.169 -0.0837  0.2276  0.1591
10141TIP3    H151914   4.460   0.990  15.263 -0.5888  1.1653  0.3263
10141TIP3    H251915   4.346   0.996  15.163 -0.1196 -2.3207 -0.5493
10142TIP3   OH251916   3.169   1.380   4.938  0.0851  0.3135  0.3469
10142TIP3    H151917   3.167   1.285   4.930 -0.6405  0.2254  1.2824
10142TIP3    H251918   3.145   1.412   4.851 -0.4939 -0.3775  0.2420
10143TIP3   OH251919   3.422   5.083  11.419  0.3730 -0.1587  0.2477
10143TIP3    H151920   3.352   5.023  11.448  0.4499 -0.8458 -0.9326
10143TIP3    H251921   3.395   5.168  11.453  0.5646 -0.9248  2.4928
10144TIP3   OH251922   6.718   2.013  11.442 -0.1726 -0.2040 -0.3030
10144TIP3    H151923   6.693   2.103  11.462 -0.6438 -0.1894 -0.9293
10144TIP3    H251924   6.641   1.976  11.398 -1.6869 -2.1701  3.4433
10145TIP3   OH251925   1.885   0.383   4.013  0.0648  0.2810 -1.3015
10145TIP3    H151926   1.897   0.313   3.950 -1.4557  0.4732 -1.8457
10145TIP3    H251927   1.792   0.382   4.033  0.6242 -0.4821  1.8070
10146TIP3   OH251928   1.990   6.663   0.822 -0.5995  0.4332 -0.2300
10146TIP3    H151929   2.075   6.699   0.845  0.2852 -0.7819 -1.4269
10146TIP3    H251930   1.986   6.579   0.869 -1.2924  0.6343  0.0876
10147TIP3   OH251931   5.014   2.649  16.261 -0.0914 -0.3034 -0.0233
10147TIP3    H151932   4.957   2.608  16.196 -1.7646 -0.2938  1.3485
10147TIP3    H251933   5.033   2.580  16.324  1.8623 -0.4231 -0.6771
10148TIP3   OH251934   1.840   1.528   3.738 -0.0806 -0.2112 -0.7311
10148TIP3    H151935   1.754   1.540   3.778  1.3399  1.0614  2.2269
10148TIP3    H251936   1.850   1.603   3.678 -0.5143  0.3683 -0.0860
10149TIP3   OH251937   2.250   5.427   5.457 -0.5254  0.3196 -0.2535
10149TIP3    H151938   2.270   5.430   5.364 -1.3393  0.3812 -0.4306
10149TIP3    H251939   2.298   5.502   5.494  1.1067 -0.6259 -0.3429
10150TIP3   OH251940   4.166   5.266  14.134  0.2197 -0.1697  0.1295
10150TIP3    H151941   4.098   5.237  14.195 -1.6676  1.8435 -0.8529
10150TIP3    H251942   4.220   5.326  14.185 -0.9901  1.0316  0.0794
10151TIP3   OH251943   5.206   3.618   4.395  0.1507  0.1655  0.1930
10151TIP3    H151944   5.158   3.538   4.418  1.0652  0.4656  3.6898
10151TIP3    H251945   5.147   3.689   4.422  1.6742  0.5447  2.7908
10152TIP3   OH251946   6.800   1.970  11.831 -0.6273 -0.1886  0.1008
10152TIP3    H151947   6.764   2.046  11.786 -0.8586  1.5616  3.0017
10152TIP3    H251948   6.748   1.896  11.800 -0.8711  0.9024 -2.2612
10153TIP3   OH251949   5.989   5.777   5.372 -0.0909 -0.2537  0.1297
10153TIP3    H151950   5.895   5.793   5.360  0.2210  0.1018 -2.4066
10153TIP3    H251951   5.997   5.681   5.372 -0.4934 -0.2875  0.6868
10154TIP3   OH251952   4.075   3.630  12.024  0.1611 -0.1875 -0.1360
10154TIP3    H151953   4.011   3.593  12.085  0.5765 -0.3644  0.2064
10154TIP3    H251954   4.103   3.555  11.971 -0.8889  0.1452 -1.1919
10155TIP3   OH251955   5.258   1.844  12.561 -0.5226 -0.2453 -0.2734
10155TIP3    H151956   5.339   1.823  12.607 -0.4020 -0.1862 -0.4606
10155TIP3    H251957   5.280   1.920  12.507 -0.4213 -0.8724 -1.1244
10156TIP3   OH251958   5.408   2.816   3.955 -0.3027 -0.1123  0.3280
10156TIP3    H151959   5.391   2.726   3.927 -1.0504 -0.6626  2.3819
10156TIP3    H251960   5.443   2.859   3.877 -1.8839 -1.6145 -1.3027
10157TIP3   OH251961   4.695   3.104   2.671  0.4105  0.1581  0.6313
10157TIP3    H151962   4.745   3.043   2.725  1.3969  0.7228  0.3747
10157TIP3    H251963   4.642   3.047   2.614 -0.3530 -0.4381  1.8932
10158TIP3   OH251964   0.758   0.313  15.325  0.9691 -0.4707 -0.1966
10158TIP3    H151965   0.819   0.296  15.396  0.3476 -1.0423  0.2171
10158TIP3    H251966   0.718   0.227  15.307 -2.4782  0.4068  2.1258
10159TIP3   OH251967   0.350   0.647  16.952 -0.2247  0.2927  0.5656
10159TIP3    H151968   0.343   0.700  16.873  1.1486 -0.7966 -0.3158
10159TIP3    H251969   0.393   0.704  17.016 -1.0717  1.0751  0.4489
10160TIP3   OH251970   2.631   0.003  15.336  0.0549  0.1776  0.7170
10160TIP3    H151971   2.588   0.089  15.339  1.6755  1.0455  0.3700
10160TIP3    H251972   2.597  -0.043  15.412 -2.9529  0.0404 -0.6030
10161TIP3   OH251973   0.645   2.222  14.680  0.1542 -0.7587  0.0752
10161TIP3    H151974   0.603   2.178  14.753  1.6732 -3.2283 -0.4391
10161TIP3    H251975   0.721   2.266  14.719 -0.6246  0.3790  0.3734
10162TIP3   OH251976   5.417   5.413   3.067 -0.1678 -0.6143 -0.1146
10162TIP3    H151977   5.426   5.331   3.019  1.2606  0.4213 -1.7248
10162TIP3    H251978   5.352   5.462   3.017  1.1214  0.3610 -0.8865
10163TIP3   OH251979   2.416   5.145   4.441  0.0537 -0.0707  0.8598
10163TIP3    H151980   2.403   5.084   4.368 -1.1402  2.7702 -1.4792
10163TIP3    H251981   2.508   5.172   4.433  0.8616 -2.1031  2.4699
10164TIP3   OH251982   1.908   1.413   6.558  0.2176 -0.4518 -0.4949
10164TIP3    H151983   1.902   1.321   6.533  1.8482 -0.9139  0.6486
10164TIP3    H251984   1.938   1.457   6.478 -1.3475 -0.7498 -1.2802
10165TIP3   OH251985   6.558   0.882   3.064 -0.1237 -0.4743 -0.1368
10165TIP3    H151986   6.482   0.879   3.122  0.4614 -2.4786  0.6254
10165TIP3    H251987   6.610   0.955   3.097 -0.8501 -0.2252  0.4993
10166TIP3   OH251988   0.053   6.409  14.871 -0.0600 -0.1075  0.2953
10166TIP3    H151989   0.056   6.480  14.936  0.2583  0.5380 -0.4118
10166TIP3    H251990   0.069   6.452  14.787  2.7500 -1.3301  0.0698
10167TIP3   OH251991   2.050   6.749   3.816 -0.7832 -0.1956 -0.1283
10167TIP3    H151992   2.055   6.666   3.864  1.3351 -0.8025 -1.2796
10167TIP3    H251993   2.119   6.803   3.855 -0.9645  0.3610 -0.5689
10168TIP3   OH251994   5.029   0.259   1.114 -0.1583  0.1444  0.6510
10168TIP3    H151995   5.067   0.241   1.028  0.0306  0.0764  0.7477
10168TIP3    H251996   5.082   0.330   1.149 -0.8328  0.8258  0.3178
10169TIP3   OH251997   3.637   0.114  15.805 -1.2848 -0.1041 -0.1479
10169TIP3    H151998   3.629   0.032  15.854 -1.1039  0.8493  1.5242
10169TIP3    H251999   3.730   0.120  15.784 -0.4413  1.5889  3.3278
10170TIP3   OH252000   3.132   1.876  14.404 -0.1509  0.7608 -0.1571
10170TIP3    H152001   3.056   1.929  14.426  0.3440  0.6884  1.9352
10170TIP3    H252002   3.141   1.815  14.477  0.3743 -1.0270 -1.6353
10171TIP3   OH252003   1.637   3.450  15.177  0.8270  0.5231 -0.1940
10171TIP3    H152004   1.732   3.466  15.181  0.8921  0.2007 -0.4212
10171TIP3    H252005   1.629   3.355  15.172  0.4061  0.3546  2.2945
10172TIP3   OH252006   5.459   6.762   1.842  0.0405  0.4154 -0.2633
10172TIP3    H152007   5.515   6.829   1.882 -1.7538  1.3096  0.9167
10172TIP3    H252008   5.500   6.744   1.757  2.4612  0.4726  0.8171
10173TIP3   OH252009   4.678   0.322  12.212 -0.8012 -0.6657 -0.6202
10173TIP3    H152010   4.703   0.241  12.256  1.0225 -1.4477 -2.8768
10173TIP3    H252011   4.582   0.318  12.207 -0.8841 -1.6018  1.1941
10174TIP3   OH252012   0.635   0.531   4.808  0.3176  0.1716 -0.1117
10174TIP3    H152013   0.558   0.577   4.841 -0.9984 -0.3885 -2.2718
10174TIP3    H252014   0.650   0.461   4.872 -1.0243  0.2297  0.2890
10175TIP3   OH252015   4.106   6.773   0.583 -0.1770 -0.0824  0.4914
10175TIP3    H152016   4.116   6.712   0.656  1.1821  0.7968  1.0551
10175TIP3    H252017   4.077   6.855   0.623 -0.3446  0.1404 -0.0736
10176TIP3   OH252018   5.475   3.715  16.333  0.4740  0.2595 -0.0558
10176TIP3    H152019   5.468   3.719  16.238  2.3933  1.3643 -0.2008
10176TIP3    H252020   5.441   3.799  16.364 -1.2578 -0.5478  0.3728
10177TIP3   OH252021   3.637   2.812  15.102 -0.6645 -0.4684 -0.3564
10177TIP3    H152022   3.645   2.725  15.065 -1.2991 -0.4059 -0.6505
10177TIP3    H252023   3.642   2.799  15.197  2.3005 -0.4968 -0.4059
10178TIP3   OH252024   5.784   6.067   6.160  0.3698  0.3362  0.1455
10178TIP3    H152025   5.784   5.976   6.188  2.4710  0.7780  1.9159
10178TIP3    H252026   5.805   6.116   6.239 -0.5296  2.3598 -0.8008
10179TIP3   OH252027   5.257   0.250  16.827 -0.3952 -0.2501 -0.0590
10179TIP3    H152028   5.254   0.338  16.866 -0.3866  0.2120 -1.0839
10179TIP3    H252029   5.225   0.262  16.738 -1.8583 -1.5567  0.2540
10180TIP3   OH252030   5.776   2.244  15.218 -0.4955 -0.0379  0.4561
10180TIP3    H152031   5.810   2.212  15.134  1.3727 -0.6316  1.3734
10180TIP3    H252032   5.751   2.335  15.201  0.5971  0.0952 -0.5649
10181TIP3   OH252033   0.279   2.212  11.573 -0.5031  0.1192  0.4417
10181TIP3    H152034   0.267   2.171  11.659 -1.2192 -0.3312  0.1438
10181TIP3    H252035   0.359   2.172  11.538 -0.3581  0.1044  0.7876
10182TIP3   OH252036   2.768   6.489  15.279 -0.2170  0.6475 -0.7810
10182TIP3    H152037   2.858   6.457  15.265 -0.3100  0.5737 -1.2299
10182TIP3    H252038   2.757   6.557  15.214 -0.3198  1.0041 -0.3922
10183TIP3   OH252039   0.871   2.058   5.756  0.0742  0.2077  0.3475
10183TIP3    H152040   0.857   2.095   5.844 -2.3877 -0.7542  0.4362
10183TIP3    H252041   0.798   2.092   5.704 -0.6732 -2.2114 -0.3066
10184TIP3   OH252042   2.028   4.637   2.697  0.3532 -0.0587  0.0377
10184TIP3    H152043   1.949   4.591   2.668  0.7612 -0.6265 -0.1950
10184TIP3    H252044   2.088   4.568   2.722  0.8420  0.3665  0.0488
10185TIP3   OH252045   2.319   6.726   0.038  0.2295  0.3681  0.3828
10185TIP3    H152046   2.293   6.806   0.085  3.1804  1.0084  1.1900
10185TIP3    H252047   2.414   6.735   0.028  0.3813 -2.1619 -1.2878
10186TIP3   OH252048   3.754   3.753   2.442 -0.3691 -0.0480  0.1651
10186TIP3    H152049   3.675   3.792   2.479 -0.5618  0.4908 -0.7938
10186TIP3    H252050   3.804   3.723   2.519 -0.9146  0.7300  0.8385
10187TIP3   OH252051   0.547   0.046  16.887 -0.1561  0.3769  0.2228
10187TIP3    H152052   0.540  -0.013  16.812  0.9497  1.5923 -0.8763
10187TIP3    H252053   0.457   0.077  16.902 -0.4676 -0.2857 -0.2427
10188TIP3   OH252054   0.006   0.169  17.280 -0.1035 -0.2147  0.3149
10188TIP3    H152055   0.092   0.209  17.268  0.3913 -0.1124  3.3444
10188TIP3    H252056  -0.054   0.228  17.236  1.0784  1.5141  0.9083
10189TIP3   OH252057   4.467   2.207   4.779  0.7864 -0.4731 -0.5314
10189TIP3    H152058   4.507   2.281   4.735 -1.3533  2.4483  2.0090
10189TIP3    H252059   4.530   2.182   4.847  0.3809  0.9542  0.4062
10190TIP3   OH252060   4.187   4.910   2.043 -0.0023  0.0535 -0.6284
10190TIP3    H152061   4.198   4.990   1.991  0.3908  0.2421 -0.2683
10190TIP3    H252062   4.277   4.883   2.062 -0.1311  0.4982  0.7108
10191TIP3   OH252063   5.397   5.583   2.342  0.4027 -0.0069 -0.1411
10191TIP3    H152064   5.332   5.540   2.398  1.6983 -2.0409 -0.0653
10191TIP3    H252065   5.447   5.638   2.402 -0.2533  0.3611  0.0791
10192TIP3   OH252066   5.586   3.571   2.713 -0.2693 -0.6071 -0.1086
10192TIP3    H152067   5.680   3.561   2.703 -0.5067 -1.4329 -2.0024
10192TIP3    H252068   5.550   3.547   2.627 -2.0557  1.6806 -0.1153
10193TIP3   OH252069   4.967   0.886  15.422  0.2446 -0.2155  0.2020
10193TIP3    H152070   4.959   0.805  15.371  1.1182  0.4929 -1.1306
10193TIP3    H252071   4.965   0.956  15.356  2.2562  0.6893  1.0058
10194TIP3   OH252072   4.976   4.586   4.045  0.7861  0.4141  0.0632
10194TIP3    H152073   4.937   4.499   4.058  0.2559  0.5832 -0.3702
10194TIP3    H252074   4.961   4.605   3.953 -0.0245  1.4104  0.3933
10195TIP3   OH252075   5.332   6.108  13.324  0.1605  0.2039  0.2337
10195TIP3    H152076   5.390   6.085  13.251  1.7359  1.0325  1.1537
10195TIP3    H252077   5.283   6.028  13.342 -0.0817 -0.0900 -1.5523
10196TIP3   OH252078   1.131   6.528   1.517  0.2861  0.6066  0.2880
10196TIP3    H152079   1.160   6.438   1.533 -0.3679  0.0496 -1.4563
10196TIP3    H252080   1.200   6.583   1.555  0.3548 -0.5903  2.0319
10197TIP3   OH252081   5.032   4.079   4.122 -0.6040 -0.1338  0.2343
10197TIP3    H152082   5.040   4.040   4.209  0.0092 -0.8622 -0.1376
10197TIP3    H252083   5.122   4.103   4.098 -0.9898  1.9547  0.6245
10198TIP3   OH252084   5.967   2.569   3.772 -0.0421 -0.1088 -1.0364
10198TIP3    H152085   5.948   2.480   3.742 -0.6501 -0.1445 -0.5848
10198TIP3    H252086   5.935   2.625   3.702 -1.5116 -0.1866 -0.4785
10199TIP3   OH252087   4.063   1.055   0.754 -0.5861  0.4896  0.3412
10199TIP3    H152088   4.065   1.061   0.849 -3.0363 -0.7556  0.5587
10199TIP3    H252089   4.154   1.041   0.728  0.2120  1.4722  2.4197
10200TIP3   OH252090   3.801   5.137   3.079 -0.2294 -0.1223 -0.2733
10200TIP3    H152091   3.865   5.125   3.008  1.6074  1.3588  1.0350
10200TIP3    H252092   3.834   5.081   3.150 -0.2358  0.8279  0.4927
10201TIP3   OH252093   3.756   5.013  11.194  0.5809 -0.2486 -0.1440
10201TIP3    H152094   3.836   5.058  11.221  0.5895  0.6314 -1.5381
10201TIP3    H252095   3.744   4.945  11.260  1.2937  0.9537  1.2984
10202TIP3   OH252096   0.054   2.591  16.399  0.2773 -0.5124 -0.5268
10202TIP3    H152097   0.098   2.562  16.478 -0.1785 -3.2129 -1.1857
10202TIP3    H252098   0.112   2.659  16.363  0.1786  1.2629  2.3594
10203TIP3   OH252099   1.762   0.487  10.536 -0.4180 -0.0940  0.5405
10203TIP3    H152100   1.720   0.402  10.524  0.7309 -0.6649  0.4645
10203TIP3    H252101   1.847   0.478  10.494 -0.5858  1.3569 -0.1599
10204TIP3   OH252102   0.477   6.460  14.588 -0.3686  0.0968  0.0166
10204TIP3    H152103   0.411   6.396  14.614  1.0488 -1.2700  0.4021
10204TIP3    H252104   0.485   6.518  14.663 -0.3927 -0.3594  0.3756
10205TIP3   OH252105   1.831   4.423  11.397 -0.6245 -0.2041  0.2697
10205TIP3    H152106   1.857   4.515  11.397  0.2826 -0.4458  0.1176
10205TIP3    H252107   1.812   4.404  11.489  0.8785 -0.2953  0.5946
10206TIP3   OH252108   3.057   2.599   1.058 -0.1138 -0.3830  1.0353
10206TIP3    H152109   3.015   2.513   1.055  0.9780 -0.9470  1.2977
10206TIP3    H252110   3.073   2.620   0.966  3.3866 -2.4399  0.9824
10207TIP3   OH252111   0.533   1.270  14.416 -0.3988  0.1604 -0.2987
10207TIP3    H152112   0.531   1.175  14.430 -0.7453 -0.1348 -2.0101
10207TIP3    H252113   0.482   1.306  14.488  0.5391 -0.8513  0.9216
10208TIP3   OH252114   6.107   1.856   5.037 -0.0298  0.6916  1.0755
10208TIP3    H152115   6.147   1.869   5.123 -0.1810 -0.6711  1.3610
10208TIP3    H252116   6.180   1.865   4.975  0.5491 -0.6874  1.5217
10209TIP3   OH252117   4.700   3.962   5.680 -0.0638  0.1318  0.0641
10209TIP3    H152118   4.712   4.021   5.605 -0.0511 -0.8271 -0.7081
10209TIP3    H252119   4.785   3.918   5.690  0.5503  1.5807  1.8519
10210TIP3   OH252120   1.616   2.344  12.269 -0.3759  0.7885  0.7785
10210TIP3    H152121   1.603   2.329  12.362 -1.8289 -0.8376  0.3712
10210TIP3    H252122   1.707   2.318  12.253  0.2779  2.2319  1.9060
10211TIP3   OH252123   4.002   1.853  13.691 -0.3380 -0.1639 -0.1399
10211TIP3    H152124   4.039   1.942  13.694 -0.7744  0.0603 -1.0476
10211TIP3    H252125   4.065   1.800  13.739 -0.6964  0.8469  1.5268
10212TIP3   OH252126   3.427   0.304  16.051 -0.1717 -0.1551  0.1088
10212TIP3    H152127   3.353   0.262  16.094 -1.8489  0.7792 -1.6838
10212TIP3    H252128   3.390   0.380  16.007  1.8506  0.3183 -0.9328
10213TIP3   OH252129   2.069   1.830  15.287 -0.0027 -0.2414  0.4650
10213TIP3    H152130   2.157   1.802  15.313  0.6438  0.5503 -0.7915
10213TIP3    H252131   2.063   1.804  15.195 -0.7504  0.4938  0.3013
10214TIP3   OH252132   4.882   1.671   0.741  0.0876 -0.6081 -0.2122
10214TIP3    H152133   4.970   1.650   0.772 -0.0708 -0.3926  0.3821
10214TIP3    H252134   4.829   1.676   0.820 -0.4354 -0.6114 -0.5588
10215TIP3   OH252135   4.356   1.635   4.309  0.0684 -0.2580 -0.2091
10215TIP3    H152136   4.427   1.584   4.269  0.3266  0.2229 -0.3646
10215TIP3    H252137   4.392   1.723   4.319 -0.2852 -0.1668  0.3124
10216TIP3   OH252138   0.142   2.558   0.200 -0.2572 -0.3041  0.0577
10216TIP3    H152139   0.073   2.506   0.242 -0.3553 -1.5564 -1.5427
10216TIP3    H252140   0.223   2.516   0.227 -0.3668 -1.9751 -1.9516
10217TIP3   OH252141   5.761   4.899  13.423  0.0978 -0.1476 -0.3753
10217TIP3    H152142   5.672   4.864  13.422  0.2454 -0.7374  1.8604
10217TIP3    H252143   5.755   4.980  13.373 -1.3157 -0.9688 -1.6180
10218TIP3   OH252144   4.519   5.790   1.171 -0.0369 -0.0146  0.6129
10218TIP3    H152145   4.594   5.763   1.118  1.3204  2.8792  0.8411
10218TIP3    H252146   4.558   5.821   1.253 -1.1812  3.2613  0.0612
10219TIP3   OH252147   0.210   3.693  13.049  0.2537 -0.6121  0.1308
10219TIP3    H152148   0.254   3.634  12.988  1.1288  0.6407 -0.4864
10219TIP3    H252149   0.223   3.780  13.012 -0.4952  0.0413  1.3340
10220TIP3   OH252150   6.108   2.545  15.657 -0.2053 -0.2839 -0.2078
10220TIP3    H152151   6.166   2.551  15.580  0.3719  2.6660  0.3532
10220TIP3    H252152   6.166   2.556  15.732 -1.1538 -0.0406  0.5105
10221TIP3   OH252153   0.092   2.681  13.161  0.6357  0.0971 -0.0002
10221TIP3    H152154   0.121   2.645  13.245 -0.8429  1.0210  0.9421
10221TIP3    H252155   0.171   2.722  13.125  0.6634  2.5841  2.5025
10222TIP3   OH252156   5.589   5.597  11.776 -0.0666 -0.9532  0.1462
10222TIP3    H152157   5.568   5.684  11.811 -0.4354 -0.7997 -0.4499
10222TIP3    H252158   5.647   5.559  11.842  1.2798  0.2941 -0.2501
10223TIP3   OH252159   6.130   1.085   0.604  0.1814  0.6166  0.6427
10223TIP3    H152160   6.211   1.034   0.603  0.0887  0.4747 -0.1157
10223TIP3    H252161   6.062   1.021   0.583 -0.1052  0.7735  1.0984
10224TIP3   OH252162   3.217   1.068  11.301 -0.3389  0.2235  0.4192
10224TIP3    H152163   3.261   0.984  11.289 -1.0850 -0.3128  1.3171
10224TIP3    H252164   3.287   1.128  11.327  0.1923 -0.1234 -0.1919
10225TIP3   OH252165   6.060   3.961  12.505 -0.5679 -0.5884  0.5016
10225TIP3    H152166   6.092   4.008  12.428  1.1229 -1.9617  0.3231
10225TIP3    H252167   5.965   3.974  12.503 -0.4180  0.5362 -1.0239
10226TIP3   OH252168   4.053   1.938   0.424  0.3046 -0.0607  0.2394
10226TIP3    H152169   4.051   2.030   0.397 -0.7714  0.4330  1.8536
10226TIP3    H252170   4.146   1.920   0.441  0.8973 -0.1121 -2.6238
10227TIP3   OH252171   1.579   5.334  10.860 -0.0206  0.3171  0.2756
10227TIP3    H152172   1.638   5.321  10.785 -1.9252 -0.8435 -1.1292
10227TIP3    H252173   1.558   5.427  10.858 -2.2002 -0.0843 -2.5104
10228TIP3   OH252174   2.868   6.248  15.122  0.1234  0.0764 -0.3618
10228TIP3    H152175   2.845   6.155  15.127  0.1789 -0.0519 -1.8489
10228TIP3    H252176   2.817   6.281  15.048 -1.8959  1.8867  1.6980
10229TIP3   OH252177   2.641   4.055  16.002 -0.0223 -1.2676  0.4774
10229TIP3    H152178   2.733   4.082  16.002 -0.0675 -0.6901 -2.8373
10229TIP3    H252179   2.593   4.134  15.976 -1.3315 -1.9009  0.8872
10230TIP3   OH252180   1.962   6.557  17.231 -0.2325  1.0009 -0.3201
10230TIP3    H152181   1.969   6.485  17.168 -0.8435  1.8136 -1.3480
10230TIP3    H252182   1.975   6.636  17.179 -0.9252  1.7096  0.5450
10231TIP3   OH252183   0.552   3.796  15.265 -0.2426 -0.8155 -0.1315
10231TIP3    H152184   0.501   3.866  15.224  0.0150 -0.7496 -0.3477
10231TIP3    H252185   0.636   3.838  15.285 -0.2441 -0.9432  0.1482
10232TIP3   OH252186   1.737   1.047  14.276  0.3371 -0.0368  0.2102
10232TIP3    H152187   1.728   1.008  14.363 -0.2279 -0.4596 -0.0348
10232TIP3    H252188   1.685   1.128  14.281  0.4305  0.0179  0.3091
10233TIP3   OH252189   3.372   2.433   4.855  0.3140  0.2465  0.3328
10233TIP3    H152190   3.335   2.516   4.824 -0.5794 -0.4455 -0.5476
10233TIP3    H252191   3.446   2.418   4.797  1.0791  0.8789  1.1125
10234TIP3   OH252192   3.074   5.173   3.069 -0.1830 -0.5728  0.2320
10234TIP3    H152193   3.101   5.202   2.982 -0.9731 -0.9637 -0.1549
10234TIP3    H252194   3.137   5.214   3.128 -0.0464  0.2671 -0.4624
10235TIP3   OH252195   4.180   6.374  12.052  0.0595  0.2913  0.1281
10235TIP3    H152196   4.194   6.284  12.023 -3.6070  0.2330 -2.0414
10235TIP3    H252197   4.097   6.399  12.013  1.3398  4.9916 -0.2113
10236TIP3   OH252198   4.446   0.306   5.041 -0.1775  0.2027  0.1374
10236TIP3    H152199   4.505   0.374   5.074 -0.7894  0.2999  1.0865
10236TIP3    H252200   4.501   0.228   5.032  0.4094  0.6664 -0.4307
10237TIP3   OH252201   3.687   6.158  12.631 -0.1660 -0.2648 -0.1188
10237TIP3    H152202   3.649   6.073  12.654 -1.5476  0.4628  0.3958
10237TIP3    H252203   3.659   6.217  12.701 -0.1049  0.8488 -1.0007
10238TIP3   OH252204   2.437   3.660  10.591  0.2849  0.1558  0.0081
10238TIP3    H152205   2.532   3.652  10.580  0.0881  0.3503 -2.3215
10238TIP3    H252206   2.401   3.632  10.507 -1.7888 -0.6654  1.0989
10239TIP3   OH252207   3.596   4.170   1.541  0.6530 -0.6567 -0.2308
10239TIP3    H152208   3.529   4.105   1.520 -1.4365  1.5903 -0.8742
10239TIP3    H252209   3.561   4.219   1.615  0.6951  1.7064 -1.6697
10240TIP3   OH252210   6.147   3.281  11.533  0.0082  0.4221 -0.0883
10240TIP3    H152211   6.212   3.324  11.478  1.0905  0.3235  1.0643
10240TIP3    H252212   6.197   3.248  11.608 -1.0296 -1.5104 -0.1905
10241TIP3   OH252213   2.979   1.268   1.252  0.2867  0.3275  0.3566
10241TIP3    H152214   3.056   1.218   1.224 -0.4113  0.0919 -1.3197
10241TIP3    H252215   3.011   1.357   1.262  0.7246  0.3256 -0.7770
10242TIP3   OH252216   4.438   0.066   5.263  0.4664  0.4168  0.2499
10242TIP3    H152217   4.450   0.161   5.269  0.9958  0.6097 -2.4890
10242TIP3    H252218   4.353   0.056   5.219 -0.1122 -0.4450  1.5070
10243TIP3   OH252219   5.891   0.127  10.916  1.1246  0.7528 -0.4149
10243TIP3    H152220   5.814   0.181  10.933  1.1001  0.3065  1.0927
10243TIP3    H252221   5.965   0.178  10.949  1.4280  0.9482 -1.3596
10244TIP3   OH252222   6.628   3.905   3.765 -0.7724  0.0651 -0.1521
10244TIP3    H152223   6.620   3.872   3.676  1.1138 -0.3628 -0.1995
10244TIP3    H252224   6.668   3.833   3.814  1.2433  1.3827  0.2594
10245TIP3   OH252225   6.652   2.327   3.651 -0.0689  0.1019 -0.4978
10245TIP3    H152226   6.559   2.315   3.666  0.0240  0.0352  0.0499
10245TIP3    H252227   6.657   2.391   3.580 -0.5312  0.0850 -0.5457
10246TIP3   OH252228   5.638   2.249   1.667  0.4362  0.7052  0.2727
10246TIP3    H152229   5.551   2.286   1.681  0.0831 -0.5279  1.5909
10246TIP3    H252230   5.625   2.154   1.669  1.7124  0.4945 -0.2025
10247TIP3   OH252231   0.875   0.415  14.429  0.3698  0.3022  0.3929
10247TIP3    H152232   0.864   0.434  14.522 -0.9485 -0.7662  0.5013
10247TIP3    H252233   0.787   0.425  14.393  0.7457  0.0781 -0.6023
10248TIP3   OH252234   5.775   1.860   0.802 -0.1987 -0.0366  0.2503
10248TIP3    H152235   5.819   1.775   0.807 -1.0856 -0.6887 -1.6795
10248TIP3    H252236   5.839   1.918   0.762 -0.2813 -0.3646 -0.3709
10249TIP3   OH252237   1.313   1.761  16.799 -0.1968  0.2913  0.6988
10249TIP3    H152238   1.357   1.714  16.869 -1.6699  0.1377  1.5647
10249TIP3    H252239   1.223   1.727  16.799 -0.7010  1.5254 -0.1106
10250TIP3   OH252240   0.870   0.770   3.389 -0.4732  0.0674 -0.3474
10250TIP3    H152241   0.902   0.844   3.440  1.6316  0.7667 -2.5361
10250TIP3    H252242   0.933   0.700   3.407 -1.1943 -0.5103 -0.0140
10251TIP3   OH252243   6.029   0.291   6.552 -0.3329  0.2696  0.8592
10251TIP3    H152244   6.004   0.353   6.483 -2.3022 -0.4095  0.9308
10251TIP3    H252245   6.086   0.343   6.610 -3.4116  2.6954  1.9949
10252TIP3   OH252246   1.705   6.501  13.172  0.2588  0.4545 -0.6118
10252TIP3    H152247   1.654   6.457  13.105 -0.0894 -2.1724  1.2110
10252TIP3    H252248   1.644   6.560  13.215 -0.8278 -1.2553  0.3023
10253TIP3   OH252249   4.120   2.861   3.602 -0.7339 -0.6687 -0.0209
10253TIP3    H152250   4.083   2.860   3.514 -0.2827 -1.2798 -0.2094
10253TIP3    H252251   4.045   2.847   3.660 -1.8001  3.7344  0.0369
10254TIP3   OH252252   1.946   3.091  11.995 -0.0975  0.1716 -0.1330
10254TIP3    H152253   1.998   3.117  12.071 -0.8358  0.4117  0.3112
10254TIP3    H252254   1.993   3.127  11.920  1.2500 -1.0359  0.0927
10255TIP3   OH252255   0.010   2.658  16.091  0.2536 -0.0335 -0.3057
10255TIP3    H152256   0.104   2.641  16.098  0.1745 -0.1960  0.5201
10255TIP3    H252257  -0.001   2.699  16.005  1.7167  3.8886  1.1278
10256TIP3   OH252258   4.293   3.977   0.439  0.6467  0.4680  0.5583
10256TIP3    H152259   4.296   3.938   0.352 -0.2752  2.6047 -0.5139
10256TIP3    H252260   4.334   3.912   0.496  1.5605 -0.8759 -1.5029
10257TIP3   OH252261   4.099   5.753   3.529 -0.2494  0.0261 -0.0381
10257TIP3    H152262   4.057   5.770   3.614 -1.1623 -1.8281 -0.0715
10257TIP3    H252263   4.030   5.717   3.474  0.5588  0.3015 -1.2834
10258TIP3   OH252264   5.308   1.605  14.384 -0.1205  0.0576 -0.7913
10258TIP3    H152265   5.291   1.699  14.380  0.0679  0.3042  1.9583
10258TIP3    H252266   5.377   1.589  14.319 -0.7069  1.6392 -1.8534
10259TIP3   OH252267   5.658   5.899   3.137 -0.5280  0.2935  0.2941
10259TIP3    H152268   5.587   5.955   3.104 -1.0132 -0.7299 -0.4858
10259TIP3    H252269   5.700   5.951   3.205 -1.9648  0.9717  0.7052
10260TIP3   OH252270   2.191   5.321   2.354  0.0691 -0.6039 -0.4866
10260TIP3    H152271   2.168   5.302   2.263 -1.1871  1.1051 -0.5666
10260TIP3    H252272   2.108   5.346   2.395  1.0327  1.2499  0.4343
10261TIP3   OH252273   0.319   4.839   3.518  0.2273  0.3254  0.1270
10261TIP3    H152274   0.275   4.789   3.586  0.5316 -1.2274 -0.7432
10261TIP3    H252275   0.261   4.832   3.442 -0.3140  2.3832  0.3098
10262TIP3   OH252276   0.448   5.365   3.490  0.3202 -0.4030  0.3873
10262TIP3    H152277   0.472   5.408   3.572  0.5914 -1.5956  0.9566
10262TIP3    H252278   0.394   5.430   3.444  1.9989  1.1330  0.4748
10263TIP3   OH252279   4.120   3.450  17.220 -0.2630  0.3061  0.4715
10263TIP3    H152280   4.141   3.366  17.259 -0.2557  1.3069  2.7586
10263TIP3    H252281   4.138   3.438  17.126 -0.2278 -2.1769  0.7353
10264TIP3   OH252282   0.285   1.435   1.389 -0.2842 -0.1858  0.2167
10264TIP3    H152283   0.286   1.423   1.484 -0.8818  1.6153  0.4897
10264TIP3    H252284   0.357   1.496   1.372  1.2723 -2.1846 -0.8043
10265TIP3   OH252285   2.969   2.108  11.169  0.4343  0.6718  0.1211
10265TIP3    H152286   3.018   2.026  11.173 -1.1842 -0.3828 -0.2892
10265TIP3    H252287   3.002   2.160  11.242 -0.0330 -1.2676  1.8151
10266TIP3   OH252288   1.389   2.696  14.533  0.2953  0.1092  0.2290
10266TIP3    H152289   1.303   2.705  14.573  0.7920 -0.2774  1.4140
10266TIP3    H252290   1.451   2.696  14.606  1.1693 -1.5392 -0.4369
10267TIP3   OH252291   3.908   5.983  14.469  0.2874 -0.3143 -0.5390
10267TIP3    H152292   3.867   6.011  14.551  1.6973 -0.0079  0.0885
10267TIP3    H252293   3.949   6.062  14.434 -1.6486 -0.0520 -2.4117
10268TIP3   OH252294   4.900   3.690  16.449  0.0487  0.1288  0.5563
10268TIP3    H152295   4.846   3.694  16.528 -1.5515  0.5542 -0.5016
10268TIP3    H252296   4.912   3.596  16.432 -1.4878 -0.0194  0.1210
10269TIP3   OH252297   3.719   4.155   2.305 -0.2547 -0.4898  0.1983
10269TIP3    H152298   3.690   4.196   2.224  0.0125 -0.7972 -0.0591
10269TIP3    H252299   3.647   4.098   2.331 -0.4697 -0.1472  0.3482
10270TIP3   OH252300   0.352   5.178  15.815  0.7284 -0.4081  0.5379
10270TIP3    H152301   0.300   5.189  15.895  0.3928  1.5726  0.1138
10270TIP3    H252302   0.287   5.164  15.747  0.7442  1.1515  0.1518
10271TIP3   OH252303   2.529   4.135  17.286  0.6111  0.3382  0.0634
10271TIP3    H152304   2.482   4.052  17.278  0.8757  0.2516 -0.6470
10271TIP3    H252305   2.496   4.173  17.368  0.2234 -0.2939  0.2100
10272TIP3   OH252306   4.196   3.990   3.275 -0.2972 -0.5319  0.1891
10272TIP3    H152307   4.147   3.922   3.229  0.4734 -0.3751 -0.9220
10272TIP3    H252308   4.227   4.048   3.206 -2.0272  1.7515  1.1921
10273TIP3   OH252309   0.622   4.043   5.046 -0.0592 -0.3893  0.2123
10273TIP3    H152310   0.630   3.957   5.004  0.5917 -0.0422 -0.3952
10273TIP3    H252311   0.556   4.089   4.995  0.4414 -0.1093 -0.1787
10274TIP3   OH252312   4.843   2.859   4.579  0.1498  0.3865  0.1878
10274TIP3    H152313   4.920   2.906   4.549 -0.0581  0.8543  0.3906
10274TIP3    H252314   4.877   2.774   4.609  0.4622  0.2291 -0.5939
10275TIP3   OH252315   0.890   0.795   0.964  0.0587  0.2427  0.0135
10275TIP3    H152316   0.896   0.862   1.033  1.1713 -0.5756  0.7517
10275TIP3    H252317   0.811   0.745   0.986  0.0116  0.4310  0.2850
10276TIP3   OH252318   1.685   3.012  16.014  0.5715  0.1601  0.0516
10276TIP3    H152319   1.624   2.990  16.085 -1.2040  0.1858 -1.3863
10276TIP3    H252320   1.771   2.987  16.048 -0.3977 -1.3683  1.5809
10277TIP3   OH252321   4.045   3.606  11.730 -0.3913 -0.2220 -0.7123
10277TIP3    H152322   4.029   3.700  11.733 -0.6228 -0.2870  0.4914
10277TIP3    H252323   3.976   3.568  11.784  0.1227 -1.0315 -0.6105
10278TIP3   OH252324   1.061   2.058   1.101 -0.1672  0.1463  0.1485
10278TIP3    H152325   1.124   2.085   1.034 -1.4833  1.7985 -0.4999
10278TIP3    H252326   1.086   2.106   1.179 -0.3714  0.4812  0.0085
10279TIP3   OH252327   0.544   2.991  17.176 -0.1681 -0.1225  0.7212
10279TIP3    H152328   0.575   3.076  17.145 -0.2820 -0.3346  0.0014
10279TIP3    H252329   0.589   2.978  17.260  1.8378 -0.4868 -0.3334
10280TIP3   OH252330   2.691   2.801   2.960  0.0719  0.4318 -0.1434
10280TIP3    H152331   2.720   2.807   2.868  0.2068  2.7767 -0.0101
10280TIP3    H252332   2.763   2.755   3.004 -0.3086 -1.3550 -1.3031
10281TIP3   OH252333   3.985   4.776  13.253 -0.4852  0.4337 -0.2768
10281TIP3    H152334   4.027   4.788  13.168 -0.2315 -1.0603 -0.3892
10281TIP3    H252335   4.057   4.773  13.316 -0.5774  0.1821 -0.1813
10282TIP3   OH252336   5.250   3.415   4.127  0.0013 -0.2628  0.0657
10282TIP3    H152337   5.237   3.329   4.166 -1.0439 -0.5480 -0.8600
10282TIP3    H252338   5.278   3.471   4.200 -0.3718 -1.1350  0.8873
10283TIP3   OH252339   6.571   3.138   5.045 -0.1030 -0.1925 -0.9787
10283TIP3    H152340   6.476   3.148   5.051  0.1768  2.4993  2.5424
10283TIP3    H252341   6.598   3.200   4.977 -0.7735  0.2137 -0.8772
10284TIP3   OH252342   4.001   5.463   2.999  0.2720 -0.1952  0.1773
10284TIP3    H152343   3.939   5.517   2.951 -0.6115 -2.1039 -0.9676
10284TIP3    H252344   3.948   5.420   3.067  1.2096  1.3013  1.9499
10285TIP3   OH252345   1.093   5.659  15.884 -0.0478 -0.2431 -0.4993
10285TIP3    H152346   1.119   5.605  15.958  2.7075 -1.0038 -1.9114
10285TIP3    H252347   1.145   5.739  15.894 -1.4989  0.7123 -0.3278
10286TIP3   OH252348   6.574   1.900  13.780 -0.3238  0.1642 -0.1747
10286TIP3    H152349   6.587   1.956  13.704 -2.4691  0.3946 -0.4489
10286TIP3    H252350   6.649   1.918  13.837  0.5456  1.0892 -1.5693
10287TIP3   OH252351   3.548   2.184  14.794  0.2596 -0.0413  0.0615
10287TIP3    H152352   3.457   2.162  14.775  0.4129  1.3166 -2.9289
10287TIP3    H252353   3.543   2.263  14.847 -0.2647 -0.9610  1.4191
10288TIP3   OH252354   1.894   0.889  15.302  0.1937  0.4168  0.7975
10288TIP3    H152355   1.944   0.857  15.228 -1.2328  0.9993 -0.4667
10288TIP3    H252356   1.840   0.814  15.329 -0.3363  0.6098  0.3008
10289TIP3   OH252357   1.315   0.882  16.279 -0.1490 -0.2294 -0.0476
10289TIP3    H152358   1.222   0.859  16.267 -0.5606  0.7172  1.1333
10289TIP3    H252359   1.357   0.799  16.300 -0.5385 -0.8342 -1.5508
10290TIP3   OH252360   1.007   2.238   4.053 -0.4953 -0.0365  0.6904
10290TIP3    H152361   1.011   2.219   4.146 -0.7929 -1.3762  0.4488
10290TIP3    H252362   0.963   2.162   4.014 -1.1576  0.8804 -0.4338
10291TIP3   OH252363   2.093   3.893  12.118 -0.0521 -0.3566 -0.3374
10291TIP3    H152364   2.075   3.915  12.027 -0.3364 -0.7097 -0.3680
10291TIP3    H252365   2.187   3.876  12.120  0.4203  1.9558 -0.0838
10292TIP3   OH252366   5.433   0.624   3.119 -0.0742  0.0640 -0.1387
10292TIP3    H152367   5.447   0.700   3.176 -0.5736  0.8595 -1.0444
10292TIP3    H252368   5.481   0.645   3.039  2.4365 -1.9745  0.6796
10293TIP3   OH252369   1.521   1.670  11.353 -0.0050 -0.0700 -0.0245
10293TIP3    H152370   1.539   1.586  11.394 -1.5109 -1.8373 -2.6472
10293TIP3    H252371   1.605   1.701  11.320  0.2572 -1.7208 -0.9723
10294TIP3   OH252372   5.581   2.324   6.119 -0.1558 -0.5894 -0.1042
10294TIP3    H152373   5.624   2.388   6.176 -1.8652 -0.8841  1.6227
10294TIP3    H252374   5.534   2.267   6.179 -0.8082 -1.8731 -1.7702
10295TIP3   OH252375   5.375   6.303  11.008  0.7821  0.1765  0.2097
10295TIP3    H152376   5.375   6.388  10.965  1.5006 -0.1159 -0.3933
10295TIP3    H252377   5.468   6.280  11.015  0.5701 -1.6403 -1.8593
10296TIP3   OH252378   5.382   5.679  16.314  0.4796 -0.6447 -0.0386
10296TIP3    H152379   5.440   5.672  16.389  0.1536 -0.4585  0.2305
10296TIP3    H252380   5.329   5.756  16.331 -0.6022 -1.4316  0.2444
10297TIP3   OH252381   6.664   1.032  14.514 -0.0131  0.6993 -0.1330
10297TIP3    H152382   6.651   1.035  14.609 -2.6840  1.2904 -0.4112
10297TIP3    H252383   6.615   1.108  14.482  0.2279  0.0953 -2.0263
10298TIP3   OH252384   6.066   5.622  16.808 -0.8737 -0.6889 -0.4564
10298TIP3    H152385   6.149   5.576  16.792  1.1285  2.1426  0.7859
10298TIP3    H252386   6.093   5.709  16.839 -4.3617  0.4944 -0.3135
10299TIP3   OH252387   2.953   1.267  13.520 -0.8513 -0.0318  0.6312
10299TIP3    H152388   2.979   1.322  13.446  0.3765 -0.5317  0.6643
10299TIP3    H252389   2.919   1.187  13.479  2.1659 -1.3813  0.5274
10300TIP3   OH252390   5.753   3.942   3.379  0.4350 -0.2316 -0.2682
10300TIP3    H152391   5.692   4.004   3.338  0.6474  0.1496 -0.0092
10300TIP3    H252392   5.836   3.988   3.382  0.2292  0.0882  1.3805
10301TIP3   OH252393   0.147   4.727   2.048 -0.9962  0.8912  0.5699
10301TIP3    H152394   0.160   4.632   2.043  0.7143  1.1611 -2.3955
10301TIP3    H252395   0.154   4.747   2.141  0.0987 -1.7090  1.1374
10302TIP3   OH252396   6.342   1.923  14.211  0.3050 -0.6414  0.2181
10302TIP3    H152397   6.246   1.922  14.207  0.3102 -0.0325 -0.1323
10302TIP3    H252398   6.364   2.009  14.246  0.7265 -0.7932  0.3330
10303TIP3   OH252399   3.475   3.056  16.281 -0.0964  0.0967  0.3832
10303TIP3    H152400   3.560   3.050  16.238  0.6251 -0.5842  1.8342
10303TIP3    H252401   3.491   3.106  16.360 -0.7967 -0.9761  1.2352
10304TIP3   OH252402   5.011   1.326   3.683 -0.1601  0.3720 -0.4644
10304TIP3    H152403   5.007   1.400   3.743 -2.3307  0.4464 -0.6359
10304TIP3    H252404   4.928   1.280   3.695  1.4672 -2.6809  0.3874
10305TIP3   OH252405   1.460   2.486   4.626  0.0452  0.0320 -0.1722
10305TIP3    H152406   1.428   2.454   4.541 -1.2796  0.4086  0.1621
10305TIP3    H252407   1.483   2.577   4.610  0.3312 -0.0508 -0.2486
10306TIP3   OH252408   0.327   6.813  12.023 -0.1939 -0.0711  0.4962
10306TIP3    H152409   0.289   6.817  12.111 -2.2887 -0.3686 -0.3628
10306TIP3    H252410   0.399   6.750  12.031 -0.0975  0.1879  2.0617
10307TIP3   OH252411   4.116   5.884   0.011 -0.2976  0.6445  0.1385
10307TIP3    H152412   4.107   5.954  -0.053  0.0108  1.2666  0.7578
10307TIP3    H252413   4.038   5.892   0.067 -0.2255  0.5426  0.2563
10308TIP3   OH252414   3.165   2.715   2.637 -0.5623  0.4060  0.2618
10308TIP3    H152415   3.099   2.650   2.612  0.0144 -0.6153  1.2994
10308TIP3    H252416   3.236   2.702   2.575  0.4525 -1.4639  1.6753
10309TIP3   OH252417   2.676   1.486   1.045 -0.1131 -0.5293  0.2837
10309TIP3    H152418   2.706   1.399   1.072  1.5940 -0.9402 -2.5418
10309TIP3    H252419   2.626   1.470   0.965 -1.0800  0.9600  0.5659
10310TIP3   OH252420   4.284   0.709  13.580  0.2311 -0.3703  0.0178
10310TIP3    H152421   4.300   0.791  13.533 -1.4381 -0.2505 -0.3981
10310TIP3    H252422   4.338   0.644  13.535 -0.6594 -0.0720 -1.5474
10311TIP3   OH252423   1.374   6.495   2.178 -0.4116  0.1777 -0.1405
10311TIP3    H152424   1.315   6.475   2.250  0.4402 -1.6172  0.1378
10311TIP3    H252425   1.423   6.572   2.207 -1.9391  1.1300 -0.0038
10312TIP3   OH252426   1.600   1.426  14.157 -0.0396  0.3851  0.1177
10312TIP3    H152427   1.667   1.455  14.219 -1.6474  0.0449  2.0735
10312TIP3    H252428   1.520   1.420  14.208 -0.8667 -2.6824 -1.3169
10313TIP3   OH252429   0.078   0.836  15.981 -0.6185 -0.7008 -0.0999
10313TIP3    H152430   0.025   0.801  16.053 -1.7013  1.6699  0.3789
10313TIP3    H252431   0.147   0.887  16.025  0.8715 -2.0622 -0.7571
10314TIP3   OH252432   1.057   2.969   5.942 -0.0078 -0.3435 -0.2050
10314TIP3    H152433   1.135   2.956   5.889  1.0868  1.7776  0.7769
10314TIP3    H252434   1.042   2.884   5.983  0.1421 -1.5465 -2.4414
10315TIP3   OH252435   4.866   3.855  10.543 -0.3693  0.3305 -0.4620
10315TIP3    H152436   4.931   3.900  10.489 -0.9159 -0.5092 -1.8798
10315TIP3    H252437   4.910   3.775  10.572 -0.3882  0.3201 -0.4619
10316TIP3   OH252438   3.069   2.223  11.393  0.1273  0.0728  0.0775
10316TIP3    H152439   2.993   2.281  11.404  0.5751  0.4599  1.3108
10316TIP3    H252440   3.133   2.256  11.456  0.5988 -1.4271  0.4231
10317TIP3   OH252441   3.802   5.356   2.700 -1.4261 -0.3826 -0.3112
10317TIP3    H152442   3.800   5.353   2.604 -0.9569  1.3039 -0.4056
10317TIP3    H252443   3.801   5.449   2.721  1.3755 -0.6030  1.2429
10318TIP3   OH252444   4.702   1.221   3.049  0.3913  0.1690  0.1221
10318TIP3    H152445   4.636   1.285   3.025  0.7462  0.7974  0.7897
10318TIP3    H252446   4.669   1.138   3.013  0.3344  0.8512 -1.4767
10319TIP3   OH252447   0.840   6.492   2.646  0.3327  0.0419  0.5606
10319TIP3    H152448   0.807   6.411   2.608 -1.2244  0.6622  0.5107
10319TIP3    H252449   0.768   6.523   2.702  0.9998  1.2545  0.7761
10320TIP3   OH252450   0.203   1.667   3.691 -0.2879  0.1974 -0.1784
10320TIP3    H152451   0.278   1.712   3.653 -0.2182 -0.5865 -0.9878
10320TIP3    H252452   0.242   1.597   3.745 -0.4238 -0.9554 -1.5227
10321TIP3   OH252453   5.090   0.023   0.280 -0.0415 -0.2974 -0.1251
10321TIP3    H152454   5.165  -0.036   0.271 -0.1390 -0.3022 -1.0841
10321TIP3    H252455   5.025  -0.027   0.328  0.7043 -0.1533  1.0797
10322TIP3   OH252456   1.468   0.903   6.442 -0.0619  0.6906 -0.4872
10322TIP3    H152457   1.426   0.947   6.368 -2.6116  1.6006  1.3428
10322TIP3    H252458   1.406   0.835   6.467  1.7865 -1.0777 -0.4998
10323TIP3   OH252459   6.802   3.411  15.259  0.1978  0.4600  0.2836
10323TIP3    H152460   6.855   3.339  15.294 -1.4735 -0.2780  1.4520
10323TIP3    H252461   6.829   3.487  15.311  0.4554  0.2093  0.5223
10324TIP3   OH252462   6.007   2.975   0.285 -0.0464  0.0438  0.3293
10324TIP3    H152463   5.997   2.880   0.298  0.0129  0.2379  2.0351
10324TIP3    H252464   6.101   2.990   0.296  0.0961  0.1866 -0.9599
10325TIP3   OH252465   5.114   0.434  17.111 -0.4935  0.0234  0.2922
10325TIP3    H152466   5.161   0.351  17.102  2.4628  1.3369  2.0914
10325TIP3    H252467   5.135   0.464  17.200 -2.8398  1.9361  0.3118
10326TIP3   OH252468   5.384   1.478   1.369  0.0879 -0.0003  0.1556
10326TIP3    H152469   5.422   1.390   1.365  1.5811  0.6202 -0.2673
10326TIP3    H252470   5.312   1.471   1.431  0.4370 -1.4317  0.4283
10327TIP3   OH252471   0.614   2.796  16.026 -0.0188 -0.0499  0.0123
10327TIP3    H152472   0.633   2.726  16.088  0.4226  0.0972  0.0479
10327TIP3    H252473   0.700   2.832  16.003 -0.2849  1.1196  0.7386
10328TIP3   OH252474   5.067   1.442  15.776  0.8635 -0.3119  0.1991
10328TIP3    H152475   5.021   1.358  15.777  1.5930 -0.7391  2.0492
10328TIP3    H252476   5.159   1.418  15.771  0.9994  0.4985 -2.1610
10329TIP3   OH252477   5.460   1.589   4.931 -0.3182 -0.2438 -0.5213
10329TIP3    H152478   5.549   1.559   4.913 -0.5679 -1.1287 -0.3151
10329TIP3    H252479   5.470   1.653   5.002  0.3165  0.8960 -1.5940
10330TIP3   OH252480   6.062   0.379  10.975 -0.1491 -0.0664  0.0958
10330TIP3    H152481   6.127   0.432  10.929  1.3878 -1.2435  0.7991
10330TIP3    H252482   6.021   0.440  11.036  1.3423  0.4212  0.6634
10331TIP3   OH252483   1.955   4.200  11.983 -0.2586 -0.2350 -0.2517
10331TIP3    H152484   2.021   4.220  11.917  0.4903 -0.9343  0.2654
10331TIP3    H252485   1.987   4.243  12.063 -1.2818  0.8213 -0.3779
10332TIP3   OH252486   4.747   1.446  13.130  0.0996 -0.0503  0.0446
10332TIP3    H152487   4.756   1.491  13.214  0.6157 -1.2108  0.6315
10332TIP3    H252488   4.827   1.467  13.083  0.2381 -0.1724  0.2260
10333TIP3   OH252489   4.850   1.474  14.386  0.2515  0.7536 -0.0281
10333TIP3    H152490   4.818   1.384  14.382 -0.9116  0.9192  2.7923
10333TIP3    H252491   4.923   1.471  14.448  0.6996  1.6549 -0.4898
10334TIP3   OH252492   3.363   5.036   2.925  0.3064 -0.0588 -0.1084
10334TIP3    H152493   3.457   5.017   2.919  0.2197 -0.3096 -0.7519
10334TIP3    H252494   3.321   4.965   2.876 -0.2693 -0.3611  0.8071
10335TIP3   OH252495   2.791   1.418   3.547  0.0573 -0.1035  0.0555
10335TIP3    H152496   2.722   1.353   3.555 -0.5883  0.6261  0.5821
10335TIP3    H252497   2.775   1.459   3.461 -2.2537  2.3148  1.4752
10336TIP3   OH252498   0.124   3.502   0.817  0.3962 -0.4278  0.0430
10336TIP3    H152499   0.063   3.572   0.793  0.1590 -0.9999 -1.0854
10336TIP3    H252500   0.189   3.545   0.873 -0.3384  0.4552  0.2392
10337TIP3   OH252501   3.665   5.934   2.354 -0.2746  0.1313 -0.1301
10337TIP3    H152502   3.599   5.885   2.403  0.5896 -0.4357  0.5045
10337TIP3    H252503   3.702   5.995   2.418  0.4824 -0.2320 -0.2068
10338TIP3   OH252504   4.370   4.743  11.367 -0.5270 -0.2366 -0.6742
10338TIP3    H152505   4.291   4.705  11.407  0.3529 -0.3618  1.0198
10338TIP3    H252506   4.439   4.680  11.385  0.0245 -0.0477 -2.0033
10339TIP3   OH252507   0.065   3.440   0.398  0.6257  0.3652 -0.5900
10339TIP3    H152508   0.070   3.424   0.304  0.1601  0.3268 -0.6129
10339TIP3    H252509  -0.027   3.425   0.420  1.1261 -1.8996  0.2650
10340TIP3   OH252510   4.806   0.084   3.896 -0.0206  0.0810 -0.0741
10340TIP3    H152511   4.738   0.061   3.959  0.4999  0.9625  0.8351
10340TIP3    H252512   4.875   0.124   3.949 -0.6242  3.2400 -1.4329
10341TIP3   OH252513   1.244   3.444   2.482  0.1236  0.6254 -0.4039
10341TIP3    H152514   1.207   3.454   2.570 -1.6601  0.0330 -1.0588
10341TIP3    H252515   1.230   3.529   2.440 -0.3721  0.4438 -0.6068
10342TIP3   OH252516   6.814   3.278   1.021 -0.4710  0.0438  0.2335
10342TIP3    H152517   6.784   3.191   1.047 -1.7369  0.5611  0.5701
10342TIP3    H252518   6.734   3.328   1.005  0.2463  0.8641 -0.9583
10343TIP3   OH252519   0.776   2.681   5.156  0.0427  1.0197 -0.0088
10343TIP3    H152520   0.839   2.620   5.117 -0.6971  0.9921 -1.2093
10343TIP3    H252521   0.709   2.692   5.089 -1.7541  0.3243  1.5717
10344TIP3   OH252522   6.007   1.369  14.815 -0.3041 -0.3471 -0.6402
10344TIP3    H152523   5.991   1.305  14.746  0.4725 -1.5530  0.2690
10344TIP3    H252524   6.040   1.318  14.889 -1.2015  0.8871  0.6793
10345TIP3   OH252525   1.268   2.544   6.045  0.0093  0.1413  0.0136
10345TIP3    H152526   1.311   2.581   6.122 -0.7467 -0.4514  0.7411
10345TIP3    H252527   1.191   2.600   6.032 -1.0447 -1.0312  1.0139
10346TIP3   OH252528   6.002   4.076   4.112 -0.5356 -0.2207  0.1251
10346TIP3    H152529   5.981   4.152   4.057  0.3822  0.9833  1.3654
10346TIP3    H252530   5.974   4.101   4.200 -1.7253 -2.0077  0.3021
10347TIP3   OH252531   6.312   1.914   2.863  0.1292 -0.1718  0.2664
10347TIP3    H152532   6.273   2.001   2.852  1.2393  0.2487 -0.5586
10347TIP3    H252533   6.287   1.887   2.951 -1.6155  0.2647 -0.0480
10348TIP3   OH252534   5.141   1.162  15.871  0.4972  1.0715 -0.0472
10348TIP3    H152535   5.050   1.187  15.855  0.3477  0.3682 -0.3128
10348TIP3    H252536   5.141   1.067  15.871  0.8988  1.0206  1.9115
10349TIP3   OH252537   1.752   1.976  15.046  0.1036 -0.1447  0.2071
10349TIP3    H152538   1.837   1.958  15.006  0.9270 -0.9314  2.1714
10349TIP3    H252539   1.691   1.984  14.973  1.8498  0.3652 -1.2439
10350TIP3   OH252540   5.521   1.596   2.324 -0.3689 -0.4758  0.3011
10350TIP3    H152541   5.567   1.514   2.344  0.8126  0.3523  1.1597
10350TIP3    H252542   5.565   1.631   2.247  0.3214  0.1846  0.9653
10351TIP3   OH252543   3.128   0.248   1.761  0.5897  0.1055  0.1991
10351TIP3    H152544   3.091   0.320   1.710  0.7865  0.2501  0.2595
10351TIP3    H252545   3.055   0.213   1.812 -0.0365 -1.1857 -1.4863
10352TIP3   OH252546   1.706   1.430  13.348 -0.8405 -0.2227 -0.0782
10352TIP3    H152547   1.784   1.480  13.325 -1.0818  0.8411  1.3374
10352TIP3    H252548   1.730   1.383  13.428 -1.5471 -0.1503  0.1800
10353TIP3   OH252549   6.575   5.506   5.718  0.6109 -0.0353  0.2806
10353TIP3    H152550   6.491   5.474   5.684  1.5263  0.6516 -2.9364
10353TIP3    H252551   6.568   5.601   5.711  0.9025  0.1665  2.1313
10354TIP3   OH252552   4.597   2.687   5.779  0.2774  0.1605  0.2168
10354TIP3    H152553   4.587   2.758   5.716 -0.1999 -0.0532  0.0442
10354TIP3    H252554   4.515   2.637   5.772  0.4753 -0.2203  0.5631
10355TIP3   OH252555   2.621   3.843   2.044 -0.0678 -0.1484 -0.0767
10355TIP3    H152556   2.712   3.870   2.031  0.1764 -0.0879  1.5042
10355TIP3    H252557   2.620   3.806   2.133 -0.9411 -2.9720 -1.1677
10356TIP3   OH252558   4.335   1.331   0.649 -0.0451  0.1222  0.3002
10356TIP3    H152559   4.374   1.341   0.736  0.6351 -1.3690  0.1985
10356TIP3    H252560   4.241   1.329   0.665  0.0972 -1.1401  1.1561
10357TIP3   OH252561   3.044   0.404  15.647 -0.1932  0.0609 -0.0596
10357TIP3    H152562   3.005   0.454  15.575  0.3409  1.8069  0.8108
10357TIP3    H252563   3.005   0.441  15.726  1.8357  0.6629  0.7414
10358TIP3   OH252564   4.734   3.880  15.116  0.6100  0.2452 -0.0717
10358TIP3    H152565   4.766   3.971  15.120  0.9868  0.2235 -1.7016
10358TIP3    H252566   4.810   3.829  15.088 -0.0590 -0.2754 -0.9949
10359TIP3   OH252567   5.734   0.688  15.289  0.3806  0.1973  0.0519
10359TIP3    H152568   5.784   0.648  15.219  0.0011 -0.2291  0.0178
10359TIP3    H252569   5.775   0.773  15.303  0.4934  0.2642 -0.6493
10360TIP3   OH252570   1.729   6.016  12.350 -0.1133  0.2170  0.3577
10360TIP3    H152571   1.647   6.062  12.368  0.3979  1.3017  0.0395
10360TIP3    H252572   1.730   6.004  12.255  1.1280  2.3638  0.0162
10361TIP3   OH252573   6.375   0.878   5.829  0.4579  0.6289  0.2272
10361TIP3    H152574   6.468   0.858   5.820  0.1424 -0.9680  0.1596
10361TIP3    H252575   6.339   0.805   5.880 -0.8520  0.8970 -0.2581
10362TIP3   OH252576   6.124   5.077  11.651  0.1708  0.1281 -0.1035
10362TIP3    H152577   6.049   5.050  11.597 -0.1808 -0.3679  0.6122
10362TIP3    H252578   6.153   4.997  11.693  2.2195 -0.0222 -1.6738
10363TIP3   OH252579   2.094   2.409   0.990 -0.3820 -0.0074  0.5404
10363TIP3    H152580   2.027   2.408   1.058 -0.2782  1.3635  0.6786
10363TIP3    H252581   2.174   2.380   1.034 -0.9424 -2.2321  0.2437
10364TIP3   OH252582   1.002   3.308  16.410  0.4079 -0.1428  0.0542
10364TIP3    H152583   1.092   3.299  16.440  0.4966  1.2509  0.2793
10364TIP3    H252584   1.009   3.341  16.321  0.1292  0.4997  0.2652
10365TIP3   OH252585   5.549   2.579  11.031  0.1292 -0.0954  0.5469
10365TIP3    H152586   5.621   2.638  11.054  0.3265 -0.5880  1.2581
10365TIP3    H252587   5.588   2.516  10.970 -0.2369  0.8479 -0.6977
10366TIP3   OH252588   3.395   1.690   5.582  0.0849 -0.5367  0.3881
10366TIP3    H152589   3.444   1.609   5.597 -1.3990 -1.4500  0.4792
10366TIP3    H252590   3.345   1.703   5.663 -0.3647 -0.0191  0.0310
10367TIP3   OH252591   1.853   0.923   4.911 -0.9238 -0.6558  0.1020
10367TIP3    H152592   1.918   0.950   4.976  0.6756 -0.0611 -1.6192
10367TIP3    H252593   1.834   0.832   4.933  0.9400 -1.0337  0.3862
10368TIP3   OH252594   6.271   3.268  13.983 -0.1992 -0.0432 -0.1570
10368TIP3    H152595   6.249   3.238  14.071 -1.1050  2.1201  0.4160
10368TIP3    H252596   6.288   3.362  13.993 -0.1083  0.2185 -2.2552
10369TIP3   OH252597   3.225   3.357  11.199  0.4732 -0.2678 -0.0259
10369TIP3    H152598   3.248   3.329  11.110  0.0292  0.1082 -0.2668
10369TIP3    H252599   3.193   3.277  11.241 -3.3174  0.2502 -1.5308
10370TIP3   OH252600   0.289   0.282  11.738  0.1560  0.0429 -0.3163
10370TIP3    H152601   0.209   0.244  11.775 -0.9723  1.6546 -0.9707
10370TIP3    H252602   0.278   0.376  11.748  0.9895  0.4131 -2.3525
10371TIP3   OH252603   3.730   2.713  16.091  0.4045 -0.3036 -0.1761
10371TIP3    H152604   3.766   2.646  16.033  0.1184 -0.1258 -0.5648
10371TIP3    H252605   3.639   2.723  16.062  0.8405  1.2817 -1.0769
10372TIP3   OH252606   2.914   0.908  11.382  0.1396  0.2859  0.8489
10372TIP3    H152607   2.831   0.883  11.341 -0.6912  0.5578  2.2855
10372TIP3    H252608   2.976   0.840  11.354 -0.5489  0.0889 -0.2608
10373TIP3   OH252609   4.226   4.552  11.484 -0.1140 -0.5579  0.2048
10373TIP3    H152610   4.271   4.504  11.553 -0.9807 -0.7762  0.6336
10373TIP3    H252611   4.206   4.485  11.418 -0.4321 -0.6024  0.3426
10374TIP3   OH252612   1.700   3.513   3.198 -0.5200  0.4619 -0.2403
10374TIP3    H152613   1.750   3.432   3.187  0.2706  1.0621 -1.1451
10374TIP3    H252614   1.608   3.486   3.188 -0.3950 -0.5809  1.0593
10375TIP3   OH252615   5.651   3.492  16.373 -0.1479 -0.1121 -0.5747
10375TIP3    H152616   5.608   3.577  16.372 -0.4119 -0.2020  0.8684
10375TIP3    H252617   5.665   3.470  16.280  0.6801  1.8589 -0.9579
10376TIP3   OH252618   2.872   0.286  16.328  0.4458  0.8515 -0.0275
10376TIP3    H152619   2.852   0.290  16.234 -0.7339  0.2334  0.1734
10376TIP3    H252620   2.789   0.260  16.368  1.3035 -0.3308  1.0435
10377TIP3   OH252621   3.301   2.015  11.569 -0.2220 -0.1587 -0.6483
10377TIP3    H152622   3.214   2.034  11.604  0.1682 -0.9213  0.8103
10377TIP3    H252623   3.361   2.049  11.634  0.5816  0.1886 -1.5560
10378TIP3   OH252624   3.852   3.690   3.300  0.9395 -0.4671 -0.4905
10378TIP3    H152625   3.813   3.613   3.259 -0.2052  0.2702 -0.8432
10378TIP3    H252626   3.872   3.661   3.390 -2.6547 -0.2978  0.5346
10379TIP3   OH252627   1.687   1.133  13.058  0.8605  0.1293  0.1834
10379TIP3    H152628   1.777   1.158  13.078  1.1705 -0.8400  0.0441
10379TIP3    H252629   1.644   1.216  13.037  1.9328  0.5099 -0.6158
10380TIP3   OH252630   1.429   1.443  13.352  0.1601  0.4334 -0.5074
10380TIP3    H152631   1.397   1.356  13.378  0.1818  0.9847  1.5575
10380TIP3    H252632   1.520   1.445  13.380 -0.3169  1.6992  1.1191
10381TIP3   OH252633   6.015   1.058  17.120 -0.2447 -0.6210  0.1589
10381TIP3    H152634   6.073   1.056  17.043 -0.7209  0.8364 -0.2634
10381TIP3    H252635   6.055   1.121  17.179 -0.1994 -1.3027  0.8719
10382TIP3   OH252636   1.614   5.458  13.645  0.5411  0.2210 -0.4564
10382TIP3    H152637   1.632   5.452  13.551  0.1297 -0.6971 -0.4910
10382TIP3    H252638   1.689   5.415  13.687  0.3612 -0.0444 -0.4044
10383TIP3   OH252639   5.371   0.883  11.230 -0.3352 -0.8220 -0.2121
10383TIP3    H152640   5.414   0.907  11.312  3.1518  0.5223 -2.1936
10383TIP3    H252641   5.290   0.935  11.229 -0.3105 -0.6474  2.1832
10384TIP3   OH252642   3.165   0.126  11.241  0.6349 -0.1604  0.6340
10384TIP3    H152643   3.163   0.064  11.168 -1.0404 -1.0630  1.3877
10384TIP3    H252644   3.165   0.212  11.199  1.8425 -0.6389 -0.4244
10385TIP3   OH252645   1.962   0.141  13.081 -0.0597  0.5357  0.0558
10385TIP3    H152646   2.023   0.073  13.053  0.0043  1.4367 -2.1665
10385TIP3    H252647   1.926   0.109  13.164  1.2192 -1.3880 -0.0885
10386TIP3   OH252648   3.580   2.974   4.072 -0.1829 -1.1041  0.1630
10386TIP3    H152649   3.622   2.894   4.102  3.0957  0.1906 -0.5321
10386TIP3    H252650   3.622   2.994   3.988 -0.8507  1.3262  0.3217
10387TIP3   OH252651   3.591   4.907  11.003 -0.0437  0.2523  0.4946
10387TIP3    H152652   3.505   4.939  11.029  0.1969  1.5991 -0.2685
10387TIP3    H252653   3.649   4.932  11.075 -0.4761 -1.8472  1.6462
10388TIP3   OH252654   4.365   3.213  11.891 -0.5917 -0.4615 -0.0709
10388TIP3    H152655   4.425   3.142  11.869 -0.0051  0.0950 -0.2973
10388TIP3    H252656   4.306   3.219  11.816 -1.9614 -2.0274  0.7912
10389TIP3   OH252657   0.296   3.150  16.427 -0.1901  0.2385  0.3852
10389TIP3    H152658   0.273   3.141  16.520 -0.4886 -4.0338  0.0676
10389TIP3    H252659   0.392   3.140  16.425 -0.0349  1.5650  0.2774
10390TIP3   OH252660   2.434   2.929   0.193 -0.3759 -0.5286  0.0718
10390TIP3    H152661   2.466   2.926   0.283  4.2693  1.0564 -1.2349
10390TIP3    H252662   2.405   3.020   0.181 -1.7260 -0.9404  0.1604
10391TIP3   OH252663   0.231   2.780  11.350  0.7150  0.0914  0.5607
10391TIP3    H152664   0.156   2.724  11.369  1.0516 -0.2113  1.0114
10391TIP3    H252665   0.234   2.784  11.254  1.5416 -1.8253  0.4680
10392TIP3   OH252666   0.663   2.059   3.292 -0.5949 -0.2289 -0.4145
10392TIP3    H152667   0.590   2.113   3.261  0.6206  0.8119 -1.5557
10392TIP3    H252668   0.645   1.972   3.256 -1.3225 -0.0034 -0.6106
10393TIP3   OH252669   3.223   0.765  13.815  0.0826  0.4645 -0.4119
10393TIP3    H152670   3.138   0.805  13.832  0.8382  1.4537  1.3502
10393TIP3    H252671   3.205   0.672  13.810 -1.1133  0.6579 -0.0468
10394TIP3   OH252672   3.816   0.201   3.430 -0.3985  0.1942  0.5686
10394TIP3    H152673   3.765   0.275   3.464  2.6195  1.8254  1.9265
10394TIP3    H252674   3.809   0.134   3.498 -1.0857  0.1939  0.5095
10395TIP3   OH252675   1.556   3.750   3.167 -0.0105  0.0648 -0.1840
10395TIP3    H152676   1.530   3.711   3.250 -1.3823 -1.3767 -1.2426
10395TIP3    H252677   1.602   3.680   3.121  3.1595  1.6131  0.3275
10396TIP3   OH252678   2.912   0.677  11.725  0.5062  0.2912 -0.1953
10396TIP3    H152679   2.924   0.608  11.660 -1.1388 -1.1010  0.8912
10396TIP3    H252680   2.817   0.683  11.737  0.7342 -1.0185  3.5261
10397TIP3   OH252681   0.769   6.569  16.856 -0.6895 -0.0047  0.5939
10397TIP3    H152682   0.857   6.604  16.871  0.4011 -2.5793  0.7692
10397TIP3    H252683   0.715   6.609  16.924  0.1029  2.2127  0.0182
10398TIP3   OH252684   5.527   5.277  11.812 -0.1066 -1.4041  0.3234
10398TIP3    H152685   5.593   5.288  11.744 -0.7410  2.4971  0.0732
10398TIP3    H252686   5.573   5.231  11.883  2.3811 -0.4014 -0.5241
10399TIP3   OH252687   2.407   0.828   0.936 -0.1183 -0.4716 -0.1525
10399TIP3    H152688   2.361   0.744   0.937  0.6740 -0.9157  0.5370
10399TIP3    H252689   2.418   0.851   1.029  0.2957  0.0384 -0.3194
10400TIP3   OH252690   3.573   5.266  14.313 -0.2795 -0.0358 -0.2459
10400TIP3    H152691   3.570   5.178  14.352  0.6179 -0.2000 -0.5284
10400TIP3    H252692   3.602   5.323  14.384  0.3830 -0.1762 -0.3995
10401TIP3   OH252693   6.539   4.929  14.652  0.4409 -0.1146 -1.2324
10401TIP3    H152694   6.604   4.947  14.584  1.1306 -0.8537 -0.7881
10401TIP3    H252695   6.583   4.868  14.711 -0.1169  0.5750 -0.0784
10402TIP3   OH252696   6.352   3.619  16.208 -0.7827 -0.7574 -0.1204
10402TIP3    H152697   6.301   3.645  16.285 -2.1216 -1.2447 -0.8079
10402TIP3    H252698   6.376   3.701  16.166  0.7304 -0.4356  1.2465
10403TIP3   OH252699   4.286   3.856   0.196 -0.1383 -0.0546  0.0722
10403TIP3    H152700   4.355   3.791   0.194  0.2617  0.3606  0.1579
10403TIP3    H252701   4.253   3.861   0.106 -0.3959 -0.6045  0.1319
10404TIP3   OH252702   1.294   4.864   3.892  0.6624 -0.4976  0.0057
10404TIP3    H152703   1.220   4.924   3.888 -0.4525 -1.7925  0.6025
10404TIP3    H252704   1.257   4.779   3.870  2.4230 -0.8424 -1.9789
10405TIP3   OH252705   4.725   5.264   0.142  0.3012  0.0393  0.2815
10405TIP3    H152706   4.666   5.297   0.210  0.6195 -0.3643  0.7530
10405TIP3    H252707   4.806   5.244   0.188  0.1382 -1.3433 -0.0024
10406TIP3   OH252708   1.938   2.740   4.138  0.0406  0.1563 -0.0882
10406TIP3    H152709   2.018   2.714   4.091 -0.1409 -0.3877 -0.1011
10406TIP3    H252710   1.888   2.789   4.073  1.4084  2.5936  0.5939
10407TIP3   OH252711   5.906   2.808   3.274  0.0792 -0.0524  0.2348
10407TIP3    H152712   5.925   2.894   3.237  1.3745 -0.5265 -0.2580
10407TIP3    H252713   5.983   2.788   3.327 -0.1521 -0.9779  0.2300
10408TIP3   OH252714   5.442   6.291  15.229  0.0628 -0.0334  0.1797
10408TIP3    H152715   5.459   6.224  15.295 -1.7723  0.6031  1.3759
10408TIP3    H252716   5.511   6.279  15.164 -0.6908 -3.7095 -0.1706
10409TIP3   OH252717   3.379   2.977   0.949 -0.0997  0.9245  0.0483
10409TIP3    H152718   3.347   3.029   1.023  0.5131  0.6874  0.4881
10409TIP3    H252719   3.348   2.888   0.967 -0.4331  0.9731 -0.2744
10410TIP3   OH252720   1.504   1.523  11.784 -0.4191 -0.1951  0.3388
10410TIP3    H152721   1.589   1.564  11.764 -1.3367  1.7487  0.1518
10410TIP3    H252722   1.442   1.570  11.728 -1.7804 -0.7518  1.3477
10411TIP3   OH252723   0.576   0.752   3.863  0.8998  0.3756  0.4526
10411TIP3    H152724   0.515   0.801   3.808  1.1415  0.1897  0.0118
10411TIP3    H252725   0.649   0.812   3.877 -0.5211  1.6378  3.2355
10412TIP3   OH252726   5.750   2.678  14.347 -0.3465 -0.1938  0.0230
10412TIP3    H152727   5.667   2.720  14.324 -1.3762 -0.7668  2.3819
10412TIP3    H252728   5.760   2.694  14.441  1.8116 -0.8611 -0.0347
10413TIP3   OH252729   5.107   2.473  16.939  0.6464 -0.5605 -0.3071
10413TIP3    H152730   5.105   2.568  16.953  3.9097 -0.1089 -2.1529
10413TIP3    H252731   5.014   2.449  16.930 -0.5225  1.8758  3.0158
10414TIP3   OH252732   0.767   1.058  13.089 -0.5500  0.4447 -0.1073
10414TIP3    H152733   0.765   1.154  13.093  0.9874  0.5219 -0.6021
10414TIP3    H252734   0.679   1.032  13.116 -0.8876  1.9773  0.4233
10415TIP3   OH252735   5.344   5.731   5.141  0.3817  1.1922 -0.1667
10415TIP3    H152736   5.365   5.638   5.148  0.7578  1.3733  1.5835
10415TIP3    H252737   5.403   5.764   5.074  1.3018  0.4511  0.2630
10416TIP3   OH252738   6.677   6.589  13.161  0.0203 -0.1279 -0.9403
10416TIP3    H152739   6.650   6.614  13.249  0.1238 -0.3933 -0.8316
10416TIP3    H252740   6.756   6.641  13.145  0.7031 -0.9603 -0.3977
10417TIP3   OH252741   5.618   3.974   3.071 -1.0129 -0.5466  0.1573
10417TIP3    H152742   5.680   3.903   3.053 -1.7651 -1.3697  0.7175
10417TIP3    H252743   5.660   4.052   3.035 -0.5235 -1.3963 -1.1824
10418TIP3   OH252744   0.893   0.922  14.224  0.4382 -0.1025  0.6519
10418TIP3    H152745   0.881   0.968  14.140  0.5901  0.4845  0.9453
10418TIP3    H252746   0.829   0.851  14.222  1.6201 -1.1785 -0.7183
10419TIP3   OH252747   0.127   3.552   1.904  0.2888 -0.1831  0.1424
10419TIP3    H152748   0.140   3.573   1.812  1.5876 -0.2355  0.2897
10419TIP3    H252749   0.032   3.548   1.915  0.1236 -1.5999 -1.4961
10420TIP3   OH252750   3.128   5.026  12.828 -0.3078  0.0723  0.1022
10420TIP3    H152751   3.125   5.072  12.744 -0.0408 -0.9156 -0.4663
10420TIP3    H252752   3.069   5.075  12.884 -2.6940 -0.8044 -1.4864
10421TIP3   OH252753   1.397   6.490   0.698  0.1339  0.7169  0.6692
10421TIP3    H152754   1.358   6.507   0.612 -0.6759 -1.0576  0.6460
10421TIP3    H252755   1.338   6.534   0.759 -0.3978  0.3454  0.4373
10422TIP3   OH252756   0.057   5.239  12.427 -0.2060  0.8030  0.8363
10422TIP3    H152757  -0.035   5.222  12.408 -0.0585  0.2726  0.6080
10422TIP3    H252758   0.095   5.154  12.447  1.0980  0.3884 -2.7150
10423TIP3   OH252759   2.996   0.083   3.549 -0.3582 -0.0254  0.2258
10423TIP3    H152760   3.050   0.091   3.470 -1.8000 -1.8586 -1.0195
10423TIP3    H252761   2.915   0.129   3.528 -1.1894 -1.4449  0.1626
10424TIP3   OH252762   0.224   3.405   2.488  0.2519  0.2222  0.0166
10424TIP3    H152763   0.317   3.398   2.507  0.5660  1.3210 -0.9850
10424TIP3    H252764   0.196   3.483   2.535 -0.5469 -0.9481  1.5834
10425TIP3   OH252765   2.578   4.937   0.759 -0.7341  0.1740 -0.2730
10425TIP3    H152766   2.634   4.875   0.804  0.3162  1.0321 -0.3665
10425TIP3    H252767   2.535   4.885   0.691  0.8762 -0.2781 -1.0001
10426TIP3   OH252768   5.478   4.053  13.415 -0.2749 -0.0227 -0.0619
10426TIP3    H152769   5.387   4.050  13.383 -0.2132 -0.0698 -0.2358
10426TIP3    H252770   5.526   3.997  13.354 -0.1564 -0.1249  0.1258
10427TIP3   OH252771   0.504   5.378  16.458 -0.3230  0.0016 -0.3536
10427TIP3    H152772   0.468   5.360  16.371 -0.3843 -1.8054  0.0096
10427TIP3    H252773   0.427   5.393  16.513 -0.2642  1.8038 -0.7070
10428TIP3   OH252774   4.169   2.788  16.007  0.3085  0.5585 -0.6624
10428TIP3    H152775   4.151   2.703  15.967 -0.4180  0.4211 -0.0569
10428TIP3    H252776   4.264   2.788  16.019  0.3116 -0.1860 -0.6282
10429TIP3   OH252777   4.507   4.422   3.983  0.1655  0.5994  0.0611
10429TIP3    H152778   4.571   4.366   4.027 -0.3441  1.2876  1.7808
10429TIP3    H252779   4.558   4.471   3.918  0.9623 -0.4352 -0.1160
10430TIP3   OH252780   6.247   6.772  17.116 -0.2165 -0.1593 -0.4375
10430TIP3    H152781   6.302   6.756  17.039 -0.5093 -0.2336 -0.6327
10430TIP3    H252782   6.178   6.830  17.085 -0.4439 -0.3412 -0.2794
10431TIP3   OH252783   3.482   3.438  16.268 -0.9057  0.4155 -0.2646
10431TIP3    H152784   3.428   3.375  16.315 -0.4357 -0.7745 -1.2728
10431TIP3    H252785   3.502   3.395  16.185 -0.6685  1.9537 -1.0264
10432TIP3   OH252786   4.545   3.525   4.515  0.2373  0.2611 -0.2244
10432TIP3    H152787   4.561   3.431   4.522 -0.8646  0.0328 -0.6217
10432TIP3    H252788   4.463   3.539   4.562  0.8020  1.1578  0.5159
10433TIP3   OH252789   5.670   2.095   0.052  0.1402  0.0265 -0.1513
10433TIP3    H152790   5.605   2.034   0.016  0.5717  0.5280 -1.8599
10433TIP3    H252791   5.628   2.181   0.045  0.7543  0.2858 -0.7697
10434TIP3   OH252792   5.335   3.944  16.426  0.0350 -0.1256 -0.2650
10434TIP3    H152793   5.374   4.032  16.424  1.9021 -0.6919  3.2148
10434TIP3    H252794   5.246   3.958  16.457  0.9244  0.4907  2.1770
10435TIP3   OH252795   6.808   5.258   5.068 -0.1624  0.1882  0.1039
10435TIP3    H152796   6.837   5.320   5.136 -0.4502 -0.2273  0.6188
10435TIP3    H252797   6.782   5.180   5.117 -0.0468 -0.2471 -0.5214
10436TIP3   OH252798   4.658   0.161   6.223  0.4954  0.5408  0.1285
10436TIP3    H152799   4.621   0.125   6.304  1.1730  0.3436  0.3551
10436TIP3    H252800   4.600   0.131   6.154 -1.3106  2.3994  0.7244
10437TIP3   OH252801   1.611   6.360  16.123  0.0019  0.1917 -0.0914
10437TIP3    H152802   1.672   6.357  16.197  1.8682 -0.9314 -1.5993
10437TIP3    H252803   1.525   6.345  16.163  0.7728  0.8815  1.9872
10438TIP3   OH252804   3.301   3.316   6.351 -0.0360 -0.5131  0.2197
10438TIP3    H152805   3.259   3.230   6.355  0.1731 -0.5792  1.4206
10438TIP3    H252806   3.353   3.321   6.432  0.2557  0.5896 -0.0185
10439TIP3   OH252807   4.199   4.875  10.936  0.3306  0.4338 -0.3908
10439TIP3    H152808   4.263   4.831  10.992  2.1650  2.1064 -1.0408
10439TIP3    H252809   4.193   4.820  10.858  0.0370 -0.3693  0.1905
10440TIP3   OH252810   3.821   4.987  12.323  0.1962  0.0206  0.5364
10440TIP3    H152811   3.829   5.082  12.310  1.4120  0.0293  1.2246
10440TIP3    H252812   3.795   4.977  12.414  1.2957 -0.3316  0.8237
10441TIP3   OH252813   1.712   5.032  10.776  0.5873 -0.3195 -0.0232
10441TIP3    H152814   1.722   4.941  10.748  0.8433 -0.8458  1.6801
10441TIP3    H252815   1.639   5.030  10.837  0.5586  0.6373 -0.0184
10442TIP3   OH252816   2.929   5.569  16.471 -1.3666  0.1573  0.3941
10442TIP3    H152817   2.894   5.636  16.531 -1.0492  1.2014 -0.5535
10442TIP3    H252818   2.891   5.591  16.386 -0.2584 -0.1146 -0.1842
10443TIP3   OH252819   4.468   1.255  16.718  0.3289  0.2633  0.4792
10443TIP3    H152820   4.506   1.296  16.795  1.1277  0.5776 -0.0572
10443TIP3    H252821   4.435   1.328  16.665  2.0738  0.2995 -0.6474
10444TIP3   OH252822   4.634   3.697  15.612 -0.2580  0.3510 -0.1522
10444TIP3    H152823   4.582   3.673  15.689 -0.0661  0.4120 -0.0043
10444TIP3    H252824   4.573   3.691  15.539  0.2667 -2.9283 -0.4868
10445TIP3   OH252825   6.580   5.645   4.580 -0.1542  0.6097  0.5653
10445TIP3    H152826   6.542   5.650   4.493 -2.2487 -0.5498  1.3461
10445TIP3    H252827   6.636   5.722   4.586 -0.7274  1.2395 -1.4403
10446TIP3   OH252828   2.840   4.622  11.799  0.4793 -0.6606 -0.1095
10446TIP3    H152829   2.769   4.673  11.837  0.6860 -1.3895  1.3170
10446TIP3    H252830   2.795   4.550  11.753  0.2804 -0.8597  0.3927
10447TIP3   OH252831   6.578   1.104  15.745  0.6659 -0.2106  0.0385
10447TIP3    H152832   6.668   1.072  15.742  0.6065 -0.3201 -1.2816
10447TIP3    H252833   6.586   1.195  15.771  1.1073 -0.3746  0.4997
10448TIP3   OH252834   5.497   1.433  11.493 -0.3748 -0.1875  0.3313
10448TIP3    H152835   5.488   1.355  11.438  3.2510  0.9613 -2.2660
10448TIP3    H252836   5.540   1.401  11.572  0.5351 -0.9744 -0.4461
10449TIP3   OH252837   0.707   2.183   0.628 -0.0523  0.2885  0.0489
10449TIP3    H152838   0.650   2.186   0.704 -0.6164  0.5031 -0.3777
10449TIP3    H252839   0.734   2.091   0.621 -3.2419 -0.6696 -1.8409
10450TIP3   OH252840   3.255   3.195   3.682  0.1838 -0.3528  0.1373
10450TIP3    H152841   3.171   3.152   3.695 -0.8042  1.3452 -0.3440
10450TIP3    H252842   3.249   3.234   3.595  1.3650  0.0387  0.2085
10451TIP3   OH252843   2.123   5.267   6.194 -0.2202  0.5317  0.1238
10451TIP3    H152844   2.185   5.204   6.157  0.2352  0.9815  0.1156
10451TIP3    H252845   2.131   5.255   6.289 -1.3255 -0.5608  0.1154
10452TIP3   OH252846   3.518   5.291   5.340  0.3521 -0.8463  0.0007
10452TIP3    H152847   3.549   5.379   5.317 -0.5201 -0.7935 -1.0974
10452TIP3    H252848   3.585   5.255   5.398  1.9408 -0.3537 -1.4565
10453TIP3   OH252849   0.032   2.254   1.003 -0.0829  0.3472  0.3651
10453TIP3    H152850   0.077   2.287   1.081 -1.3760  0.5550  1.0369
10453TIP3    H252851  -0.020   2.180   1.034 -0.0365 -0.0495 -0.4570
10454TIP3   OH252852   0.499   1.288  12.745 -0.3163 -0.4957  0.1801
10454TIP3    H152853   0.482   1.383  12.747  0.4352 -0.3227 -0.6664
10454TIP3    H252854   0.472   1.257  12.831  0.9849  0.7667  1.1046
10455TIP3   OH252855   0.167   5.846   2.151 -0.0312 -0.0976 -0.2485
10455TIP3    H152856   0.243   5.869   2.204 -0.7005 -0.4367  0.8902
10455TIP3    H252857   0.169   5.908   2.078  0.4734  0.8997  0.5860
10456TIP3   OH252858   3.202   3.498   3.197  0.3590 -0.1662 -0.2267
10456TIP3    H152859   3.207   3.550   3.117  1.8594  0.3913  0.2005
10456TIP3    H252860   3.231   3.557   3.267  0.0909 -0.9564  0.5791
10457TIP3   OH252861   4.048   3.152   1.983  0.1327 -0.0397  0.0174
10457TIP3    H152862   4.074   3.174   2.072  0.6229 -2.5057  0.5553
10457TIP3    H252863   4.129   3.121   1.941 -0.2025  0.5658 -1.1379
10458TIP3   OH252864   6.747   4.447  13.080  0.3997  0.1287  0.1935
10458TIP3    H152865   6.654   4.427  13.091  0.4175 -1.0668 -1.3809
10458TIP3    H252866   6.791   4.383  13.136  0.2885  0.1145  0.2657
10459TIP3   OH252867   0.508   0.903  14.985 -0.4002  0.4158  0.4681
10459TIP3    H152868   0.581   0.876  14.928  1.1916  1.2107  2.0471
10459TIP3    H252869   0.515   0.998  14.989 -2.1706  0.6098 -0.1110
10460TIP3   OH252870   4.225   4.047  14.578 -0.1987  0.4321 -0.0665
10460TIP3    H152871   4.315   4.034  14.606 -0.5259 -0.0774  0.7806
10460TIP3    H252872   4.230   4.116  14.512  1.0765 -1.0829 -1.6389
10461TIP3   OH252873   6.407   4.047   3.394  0.8440 -0.2847 -0.1764
10461TIP3    H152874   6.430   4.132   3.356  0.4722  0.2729  0.7923
10461TIP3    H252875   6.478   3.989   3.368  0.4368 -0.0374 -1.9951
10462TIP3   OH252876   0.872   4.730  14.282  0.4271  0.4992  0.0150
10462TIP3    H152877   0.878   4.637  14.305 -0.6193  0.8490  1.9235
10462TIP3    H252878   0.906   4.735  14.193 -0.2984 -1.8370 -0.4549
10463TIP3   OH252879   2.760   1.706   1.649  0.2496  0.2343  0.1559
10463TIP3    H152880   2.758   1.616   1.618 -2.5309  0.6206 -1.1168
10463TIP3    H252881   2.843   1.741   1.617  1.0966 -1.6608  0.1440
10464TIP3   OH252882   5.795   2.418   4.730  0.0237  0.2501 -0.2000
10464TIP3    H152883   5.762   2.504   4.704  1.0731  0.9766  0.7563
10464TIP3    H252884   5.837   2.383   4.651 -1.3453  0.1320 -0.8914
10465TIP3   OH252885   0.124   0.319   6.085  0.3596 -0.5633 -0.1449
10465TIP3    H152886   0.110   0.405   6.045  1.0759 -0.2126  0.3434
10465TIP3    H252887   0.081   0.324   6.170 -0.4503 -1.0296 -0.5179
10466TIP3   OH252888   6.243   6.282  17.302  0.2851 -0.4227  0.1729
10466TIP3    H152889   6.295   6.352  17.263 -1.3514  0.2912 -0.8592
10466TIP3    H252890   6.251   6.295  17.396  1.4954 -0.0147  0.0294
10467TIP3   OH252891   1.427   0.099   2.032 -0.6778 -0.7019 -0.2717
10467TIP3    H152892   1.502   0.156   2.049 -0.1374 -0.9452 -1.7301
10467TIP3    H252893   1.374   0.105   2.112  1.2227 -1.0821  1.0731
10468TIP3   OH252894   2.529   6.129   4.304  0.1787 -0.7385  0.5995
10468TIP3    H152895   2.442   6.118   4.264 -1.1391  0.8657  2.7765
10468TIP3    H252896   2.561   6.213   4.269  1.2254 -1.6620 -0.7423
10469TIP3   OH252897   4.936   6.534  12.667  0.3662 -0.0194 -0.5520
10469TIP3    H152898   4.878   6.541  12.743 -1.4352  1.0642 -1.9287
10469TIP3    H252899   4.903   6.458  12.619  1.7226 -0.9166 -0.0968
10470TIP3   OH252900   6.589   1.983  12.308  0.1534 -0.9978 -0.5902
10470TIP3    H152901   6.597   1.959  12.216 -0.2809 -1.0376 -0.6202
10470TIP3    H252902   6.673   2.024  12.330 -0.3480  0.5199 -1.4440
10471TIP3   OH252903   3.965   4.464  16.235 -0.0045  0.3396  0.2715
10471TIP3    H152904   3.935   4.388  16.184  0.1871  1.5054 -1.6676
10471TIP3    H252905   4.051   4.438  16.268  0.2793 -0.1343 -0.7925
10472TIP3   OH252906   5.776   2.108  13.739  0.2687 -0.5661  1.1235
10472TIP3    H152907   5.727   2.041  13.788 -2.3534  0.6325  0.3045
10472TIP3    H252908   5.805   2.170  13.806 -1.4213 -0.0678  1.4364
10473TIP3   OH252909   2.678   3.130   3.927 -0.8788  0.5623 -0.2787
10473TIP3    H152910   2.641   3.048   3.894 -2.0310  1.2014 -0.6517
10473TIP3    H252911   2.602   3.188   3.936 -0.3719  1.0031  1.7916
10474TIP3   OH252912   5.165   3.727   3.001  0.2506 -0.2328 -0.0372
10474TIP3    H152913   5.177   3.820   3.019  1.2985 -0.7578  2.4439
10474TIP3    H252914   5.232   3.707   2.935  1.7939  0.3014  1.2958
10475TIP3   OH252915   2.773   3.866  12.718 -0.5083  0.3395 -0.0704
10475TIP3    H152916   2.822   3.785  12.736  0.5913  0.8858 -0.4804
10475TIP3    H252917   2.685   3.849  12.751 -0.6480 -1.4650 -1.2218
10476TIP3   OH252918   4.170   2.236   2.700  0.2546 -0.1723 -0.1198
10476TIP3    H152919   4.146   2.191   2.781  0.3076  2.2359  1.3435
10476TIP3    H252920   4.146   2.175   2.630 -1.0682 -1.7794  1.6333
10477TIP3   OH252921   4.723   5.292   0.973 -0.4923 -0.5289 -0.2488
10477TIP3    H152922   4.751   5.253   1.055  0.4408  1.4297  0.4370
10477TIP3    H252923   4.644   5.342   0.996 -2.3029 -2.7197 -1.3207
10478TIP3   OH252924   2.097   6.522  14.337 -0.6479 -0.4301  0.1324
10478TIP3    H152925   2.156   6.446  14.338  0.8090  0.5905 -1.5746
10478TIP3    H252926   2.071   6.534  14.428  2.1852 -0.6871  1.0714
10479TIP3   OH252927   1.415   3.566  12.874 -0.3902  0.4109  0.5069
10479TIP3    H152928   1.357   3.603  12.807  0.5292  1.4594  0.2531
10479TIP3    H252929   1.356   3.529  12.939 -1.3126 -1.2868 -1.1868
10480TIP3   OH252930   1.045   6.782  14.872 -0.0682 -0.1751 -0.2748
10480TIP3    H152931   1.006   6.855  14.920 -3.7059 -0.8331 -1.8269
10480TIP3    H252932   1.022   6.704  14.923 -0.7614 -0.5686 -1.1433
10481TIP3   OH252933   2.937   5.531  11.355 -0.0831  0.1333  0.4174
10481TIP3    H152934   2.915   5.452  11.405  0.8893  0.5460  1.5690
10481TIP3    H252935   2.902   5.602  11.409  0.4866  0.5615  0.2210
10482TIP3   OH252936   5.548   5.394   6.238  0.1510  0.7983  0.3521
10482TIP3    H152937   5.560   5.396   6.333 -1.5119 -0.7069  0.6427
10482TIP3    H252938   5.636   5.405   6.203  1.4607 -2.5318  2.1392
10483TIP3   OH252939   0.188   2.427  15.288 -0.1379  0.2762 -0.3588
10483TIP3    H152940   0.251   2.369  15.245 -0.3856 -1.1216  1.0524
10483TIP3    H252941   0.119   2.440  15.224  1.5355  1.8549 -1.9546
10484TIP3   OH252942   1.208   0.941  13.923  0.3477 -0.1146 -0.3517
10484TIP3    H152943   1.115   0.924  13.908  0.3580 -0.3618 -0.1417
10484TIP3    H252944   1.228   0.898  14.006  0.6004  0.1180 -0.2900
10485TIP3   OH252945   1.563   1.028  12.785  0.0053  0.0048 -0.5882
10485TIP3    H152946   1.562   1.033  12.880 -2.5453  3.0549 -0.5874
10485TIP3    H252947   1.496   0.964  12.763 -0.1723  0.0906 -0.3040
10486TIP3   OH252948   1.085   0.490   3.308  0.0175 -0.1331 -0.1590
10486TIP3    H152949   1.130   0.483   3.392 -0.4061  2.0119  0.3034
10486TIP3    H252950   0.996   0.457   3.326 -0.0197  0.1590  0.1986
10487TIP3   OH252951   1.469   5.892   3.795 -0.2457  0.1389 -0.1900
10487TIP3    H152952   1.390   5.863   3.841  2.0226 -1.0344  3.3209
10487TIP3    H252953   1.506   5.959   3.852  2.4058 -0.8798 -0.5911
10488TIP3   OH252954   6.811   1.239  13.634 -0.0678 -0.4403 -0.8050
10488TIP3    H152955   6.716   1.223  13.634 -0.1867  0.2156 -0.1925
10488TIP3    H252956   6.825   1.294  13.557 -0.4909  1.0429  0.1311
10489TIP3   OH252957   1.917   5.680   5.640 -0.0126  0.2483  0.5779
10489TIP3    H152958   1.898   5.770   5.666 -1.4806 -0.1833  1.0649
10489TIP3    H252959   1.932   5.685   5.545 -0.1787  0.9815  0.5886
10490TIP3   OH252960   2.214   2.402  10.695  0.8537  0.0193  0.0698
10490TIP3    H152961   2.279   2.396  10.765 -0.8503  0.1880  1.7485
10490TIP3    H252962   2.190   2.311  10.676  0.3133  0.0215  0.7131
10491TIP3   OH252963   3.661   1.278   1.814  0.2521  0.0737  0.4172
10491TIP3    H152964   3.574   1.244   1.837  0.5366 -0.3414  0.9045
10491TIP3    H252965   3.706   1.288   1.897  0.8934 -0.3264  0.1277
10492TIP3   OH252966   4.386   3.567   3.680 -0.1221 -0.1663  0.2263
10492TIP3    H152967   4.349   3.655   3.673 -1.0989 -0.6692 -1.7589
10492TIP3    H252968   4.350   3.532   3.761  0.6397  1.3908  1.2768
10493TIP3   OH252969   1.031   6.253   0.026 -0.5636 -0.0707  0.5956
10493TIP3    H152970   0.992   6.171   0.055  1.3619 -0.9307  0.8654
10493TIP3    H252971   1.102   6.270   0.089 -0.1493  1.1672 -0.1591
10494TIP3   OH252972   1.772   2.798  12.713  0.0956  0.3992 -0.5949
10494TIP3    H152973   1.867   2.807  12.725  0.2094 -0.2649 -0.9672
10494TIP3    H252974   1.756   2.704  12.719 -1.0152  0.6630  2.8731
10495TIP3   OH252975   6.185   0.549   6.582  0.0219  0.4705 -0.3378
10495TIP3    H152976   6.203   0.628   6.531  0.5730  0.9849  0.6261
10495TIP3    H252977   6.219   0.568   6.669  0.0248 -0.7788 -0.0419
10496TIP3   OH252978   2.792   5.244   5.625  0.2072  0.6570  0.0036
10496TIP3    H152979   2.763   5.180   5.689 -0.2596 -0.2163 -1.0550
10496TIP3    H252980   2.881   5.217   5.602 -0.4251 -0.3679 -1.3445
10497TIP3   OH252981   1.603   1.934  14.681 -0.6012 -0.3325 -0.3080
10497TIP3    H152982   1.666   1.871  14.717  1.3792  1.0998 -1.1132
10497TIP3    H252983   1.540   1.948  14.752 -0.1583 -1.9792  0.4483
10498TIP3   OH252984   3.911   1.200   1.190  0.0027 -0.6295  0.4805
10498TIP3    H152985   3.955   1.229   1.269 -0.2067  1.9455 -0.2562
10498TIP3    H252986   3.949   1.254   1.120 -0.5560 -2.0912 -1.0331
10499TIP3   OH252987   2.182   4.567   4.725 -0.4490  0.4244  0.1604
10499TIP3    H152988   2.168   4.541   4.634 -0.7146 -0.4796  0.4530
10499TIP3    H252989   2.132   4.504   4.777 -1.4854  1.7862  0.8896
10500TIP3   OH252990   0.107   4.650  13.397  0.3141 -0.1417 -0.2280
10500TIP3    H152991   0.097   4.735  13.355  2.0462  0.6863  0.9026
10500TIP3    H252992   0.155   4.597  13.334 -0.3221 -0.1387 -0.7279
10501TIP3   OH252993   6.564   6.750  12.973 -0.0870  0.0490 -0.1350
10501TIP3    H152994   6.522   6.695  12.907  1.3514 -0.5808 -0.5509
10501TIP3    H252995   6.602   6.689  13.035  0.9103  0.5663 -0.2091
10502TIP3   OH252996   1.744   5.742   3.102 -0.1646 -0.7448  0.4867
10502TIP3    H152997   1.667   5.785   3.064 -0.3973 -2.2360 -0.8612
10502TIP3    H252998   1.753   5.661   3.052  2.7285 -0.3083  0.1082
10503TIP3   OH252999   2.072   1.975  12.736 -0.0192  0.6322  0.1628
10503TIP3    H153000   2.153   1.974  12.685 -1.3261 -3.2361 -2.3609
10503TIP3    H253001   2.098   1.947  12.824  1.5328  1.0561 -0.1353
10504TIP3   OH253002   5.295   6.642   6.754  0.1205  0.1788 -0.2119
10504TIP3    H153003   5.364   6.578   6.741  0.3794  0.6239 -1.1806
10504TIP3    H253004   5.310   6.708   6.686 -1.1537  0.3715 -0.3425
10505TIP3   OH253005   6.481   2.178  15.997 -0.4166 -0.0735  0.5168
10505TIP3    H153006   6.508   2.270  15.997 -1.3618  0.2306  2.4178
10505TIP3    H253007   6.558   2.131  16.029 -0.8838  0.4168  2.4815
10506TIP3   OH253008   0.205   1.530   4.563  0.0732  0.6007  0.0774
10506TIP3    H153009   0.111   1.523   4.546  0.1520 -0.7165  0.1003
10506TIP3    H253010   0.245   1.527   4.476  0.2920 -2.9802  0.1720
10507TIP3   OH253011   6.747   3.532  16.803  0.5074  0.4418 -0.0792
10507TIP3    H153012   6.671   3.574  16.842  1.1821  1.2388  0.4300
10507TIP3    H253013   6.809   3.603  16.789  0.6612  0.0240 -1.7516
10508TIP3   OH253014   1.207   6.760   3.297 -0.1348  0.3706  0.0703
10508TIP3    H153015   1.226   6.840   3.346 -0.6157  0.9414 -0.6683
10508TIP3    H253016   1.157   6.789   3.221 -0.3094 -0.6323 -0.2115
10509TIP3   OH253017   1.356   2.865   3.216  0.2521 -0.2190  0.3022
10509TIP3    H153018   1.345   2.770   3.224 -0.8540 -0.2102 -0.7964
10509TIP3    H253019   1.435   2.875   3.164 -0.2141 -0.5778 -0.4924
10510TIP3   OH253020   0.073   0.749   5.839 -0.0326  0.0146 -0.0804
10510TIP3    H153021   0.106   0.836   5.815  0.9137 -0.3264 -0.0881
10510TIP3    H253022   0.149   0.706   5.880 -1.1383  0.0348  2.1281
10511TIP3   OH253023   5.476   0.911  17.009 -0.3445 -0.1381  0.1788
10511TIP3    H153024   5.394   0.869  17.036 -1.1651  2.0162  1.2108
10511TIP3    H253025   5.476   0.995  17.055  1.9883  0.3283 -0.5848
10512TIP3   OH253026   2.042   2.103   5.109 -0.2347 -0.8284 -0.5602
10512TIP3    H153027   1.962   2.153   5.094  0.6873  0.5223 -1.0952
10512TIP3    H253028   2.055   2.053   5.028  0.5061  0.4647 -1.2656
10513TIP3   OH253029   5.437   4.999   4.061 -0.1404  0.1458 -0.4006
10513TIP3    H153030   5.462   4.987   3.969  0.0547 -2.3885 -0.0914
10513TIP3    H253031   5.351   4.958   4.068 -0.7801  1.5604  0.2899
10514TIP3   OH253032   1.890   3.612   3.012  0.5910 -0.2322  0.1039
10514TIP3    H153033   1.839   3.567   3.080 -1.8037  0.3964 -1.1811
10514TIP3    H253034   1.879   3.705   3.032  1.0157 -0.0854 -0.3395
10515TIP3   OH253035   5.907   4.763   5.939 -0.3445 -0.3782 -0.0381
10515TIP3    H153036   5.870   4.721   6.016  1.1913 -1.2623  0.2602
10515TIP3    H253037   5.866   4.718   5.865 -3.4658  1.8892  0.1027
10516TIP3   OH253038   4.237   2.990   1.549 -0.0438 -0.3319 -0.7110
10516TIP3    H153039   4.297   2.926   1.510  1.4818 -0.0543  1.0609
10516TIP3    H253040   4.283   3.074   1.540  1.2061 -0.4370  2.9835
10517TIP3   OH253041   3.979   2.646  15.059  0.7594 -0.1771  1.4320
10517TIP3    H153042   3.933   2.720  15.019  0.5782 -0.7493  0.5509
10517TIP3    H253043   4.071   2.675  15.062  0.9162 -0.4402 -0.2051
10518TIP3   OH253044   3.942   0.816   0.738  0.4611  0.0835  0.0987
10518TIP3    H153045   3.919   0.809   0.645 -0.0778 -1.8061  0.3372
10518TIP3    H253046   3.984   0.902   0.746 -0.9199  0.9808 -1.5677
10519TIP3   OH253047   2.941   3.624  12.744  1.0197  0.4883 -0.0845
10519TIP3    H153048   2.952   3.591  12.834  0.8579  0.5261 -0.0512
10519TIP3    H253049   3.026   3.660  12.722  1.0112  0.6353  0.1186
10520TIP3   OH253050   2.356   0.158  14.372 -0.3712  0.0316  0.9777
10520TIP3    H153051   2.273   0.148  14.325 -0.5700  0.8169  1.1412
10520TIP3    H253052   2.351   0.097  14.445  0.6126 -2.4489 -0.8707
10521TIP3   OH253053   6.299   1.035  15.814 -0.1787 -0.0349 -0.1645
10521TIP3    H153054   6.393   1.047  15.824 -0.3510  1.1392  0.2541
10521TIP3    H253055   6.287   0.941  15.808  0.9134 -0.2653  0.9175
10522TIP3   OH253056   2.311   2.014  13.430  0.5118 -0.5349  0.0520
10522TIP3    H153057   2.346   1.967  13.355 -0.7414  0.8769 -1.5009
10522TIP3    H253058   2.317   1.952  13.503  2.7309 -1.5822 -0.9509
10523TIP3   OH253059   0.895   1.989   2.664 -0.4091 -0.2503  0.2756
10523TIP3    H153060   0.803   1.969   2.644 -1.0384  1.5146  1.2166
10523TIP3    H253061   0.891   2.055   2.733  1.5928 -0.3121  0.5132
10524TIP3   OH253062   0.563   5.325  16.118  0.2222  0.0827  0.1726
10524TIP3    H153063   0.648   5.362  16.139  0.3967  0.0018 -0.3673
10524TIP3    H253064   0.579   5.231  16.111  0.2378  0.1306 -0.5814
10525TIP3   OH253065   5.636   6.302  11.084 -0.1574  0.0227  0.0375
10525TIP3    H153066   5.690   6.381  11.091 -0.7923  0.3766  1.3861
10525TIP3    H253067   5.684   6.236  11.133  0.4705 -0.5087 -1.2571
10526TIP3   OH253068   6.334   4.504  13.698 -0.4988  0.2775  0.0964
10526TIP3    H153069   6.276   4.563  13.747 -0.4768  0.3891 -0.0139
10526TIP3    H253070   6.386   4.461  13.766 -1.6793 -0.8794  0.3291
10527TIP3   OH253071   0.219   6.731  16.375  0.3952  0.2958 -0.3046
10527TIP3    H153072   0.277   6.786  16.427  0.6457 -0.9013  0.7136
10527TIP3    H253073   0.152   6.791  16.342 -1.2463  0.7646  3.4457
10528TIP3   OH253074   2.018   1.494  11.874  0.3339  0.5868 -0.3447
10528TIP3    H153075   2.076   1.514  11.947  1.2810  1.4080 -1.2770
10528TIP3    H253076   1.930   1.511  11.906  0.7894  1.6834  0.3759
10529TIP3   OH253077   4.448   1.172  16.082  0.1162 -0.3486 -0.1590
10529TIP3    H153078   4.473   1.084  16.053 -1.7151 -1.2258  0.7613
10529TIP3    H253079   4.420   1.216  16.002  1.1659 -0.5382 -0.6503
10530TIP3   OH253080   4.563   2.572   1.480 -0.1070 -0.2647 -0.3750
10530TIP3    H153081   4.565   2.515   1.404  0.1126 -1.1205  0.2581
10530TIP3    H253082   4.605   2.653   1.450 -1.2056 -0.0949 -1.5287
10531TIP3   OH253083   6.227   5.926   1.149  0.0211 -0.0412  0.2654
10531TIP3    H153084   6.241   5.864   1.077 -0.3142  0.3350 -0.1311
10531TIP3    H253085   6.163   5.883   1.206 -1.5530  0.6454 -0.9117
10532TIP3   OH253086   0.858   0.651  13.921  0.8380 -0.5898 -0.5924
10532TIP3    H153087   0.901   0.581  13.971  1.0979  0.2209  0.3435
10532TIP3    H253088   0.891   0.732  13.960  0.6786  0.0638 -1.7793
10533TIP3   OH253089   1.233   6.146  11.395 -0.1416  0.7110 -0.4041
10533TIP3    H153090   1.321   6.168  11.364 -0.0501  0.2512 -0.4738
10533TIP3    H253091   1.182   6.134  11.314 -0.4494  1.6694 -0.3667
10534TIP3   OH253092   6.340   1.047  11.387  0.5012  0.2226  0.3295
10534TIP3    H153093   6.301   1.022  11.303  0.3223 -1.4943  0.8928
10534TIP3    H253094   6.265   1.063  11.444  0.5404  3.7278 -0.3798
10535TIP3   OH253095   2.142   5.845  11.072  0.2486 -0.1213 -0.4317
10535TIP3    H153096   2.193   5.838  10.992 -0.7973 -1.8457 -0.9961
10535TIP3    H253097   2.058   5.882  11.044  0.0882 -0.1778 -0.0270
10536TIP3   OH253098   0.503   3.953   1.683 -0.1336  0.4984  0.1509
10536TIP3    H153099   0.410   3.931   1.681 -0.1601  0.6363 -0.1283
10536TIP3    H253100   0.528   3.961   1.591  0.4884 -0.9280  0.1546
10537TIP3   OH253101   6.423   4.475  16.797 -0.1887 -0.1186 -0.5209
10537TIP3    H153102   6.431   4.561  16.838  0.1270 -0.3115 -0.1649
10537TIP3    H253103   6.393   4.493  16.708 -0.8428  0.3147 -0.2218
10538TIP3   OH253104   4.158   5.580  13.420  0.0693  0.0840  0.5421
10538TIP3    H153105   4.108   5.645  13.469 -0.5048 -0.7680  1.1228
10538TIP3    H253106   4.177   5.512  13.484 -0.3013 -0.8483 -0.3117
10539TIP3   OH253107   2.492   5.013  13.361 -0.4512  0.1601 -0.5477
10539TIP3    H153108   2.490   4.933  13.308  1.9257  0.4009 -1.0940
10539TIP3    H253109   2.580   5.017  13.397 -1.2578  1.2944  1.5048
10540TIP3   OH253110   5.577   1.979  11.169  0.2940 -0.2256  0.1844
10540TIP3    H153111   5.482   1.985  11.183  0.1400 -2.6394  0.7206
10540TIP3    H253112   5.590   1.889  11.140  2.3616  0.3023 -0.6458
10541TIP3   OH253113   4.148   3.318  14.236  0.1520 -0.2088  0.1958
10541TIP3    H153114   4.104   3.327  14.152 -0.7875  0.6984  0.7567
10541TIP3    H253115   4.157   3.408  14.268  1.5428 -0.4520  0.5514
10542TIP3   OH253116   0.672   5.130   5.415  0.0093 -0.1616  0.5475
10542TIP3    H153117   0.617   5.155   5.340  0.5083 -2.4266 -0.6711
10542TIP3    H253118   0.626   5.057   5.455  2.3854 -2.7203 -1.0344
10543TIP3   OH253119   2.780   4.445  14.264 -0.1475 -0.5356 -0.1598
10543TIP3    H153120   2.829   4.441  14.183 -0.3668  0.8539 -0.3757
10543TIP3    H253121   2.771   4.353  14.291  0.9908 -0.9229 -1.0413
10544TIP3   OH253122   6.683   4.279   0.000 -0.4635 -0.0597  0.2383
10544TIP3    H153123   6.732   4.324  -0.068  0.9784 -0.5509  0.9244
10544TIP3    H253124   6.729   4.299   0.081 -0.9416 -1.1714  0.8110
10545TIP3   OH253125   4.761   4.475  16.870 -0.2770  0.3762 -0.8670
10545TIP3    H153126   4.810   4.553  16.895 -0.1364  0.2475 -0.7397
10545TIP3    H253127   4.816   4.431  16.805 -0.5473  0.6002 -1.2529
10546TIP3   OH253128   6.554   4.316  12.465  0.2265  0.8508  0.2070
10546TIP3    H153129   6.533   4.405  12.436  0.3725  0.7223 -0.2973
10546TIP3    H253130   6.564   4.266  12.384  0.8291  0.5297  0.4752
10547TIP3   OH253131   1.743   1.462   4.239 -0.2665 -0.0138 -0.0432
10547TIP3    H153132   1.670   1.448   4.179 -0.6814  0.0312  0.4376
10547TIP3    H253133   1.709   1.435   4.324  0.4097 -0.3674  0.1213
10548TIP3   OH253134   0.087   4.025  16.960  0.7127  0.9535  0.2251
10548TIP3    H153135   0.113   3.971  17.034  2.6900  2.0979  0.4259
10548TIP3    H253136   0.063   3.962  16.892  0.8724 -0.1342  1.1431
10549TIP3   OH253137   2.227   1.917  11.587  0.4132  0.5971 -0.0830
10549TIP3    H153138   2.271   1.854  11.531  1.4922 -0.4303  1.7995
10549TIP3    H253139   2.290   1.934  11.658 -1.9934 -0.6529  2.5638
10550TIP3   OH253140   1.371   6.667   1.089  0.2792 -0.0822  0.2961
10550TIP3    H153141   1.378   6.699   1.179  1.9411  1.5670 -0.3420
10550TIP3    H253142   1.459   6.639   1.066 -0.1004 -0.4270 -0.8363
10551TIP3   OH253143   5.498   1.173   2.482 -0.2502 -0.2523  0.0331
10551TIP3    H153144   5.408   1.148   2.504 -0.6394  2.7273  2.3934
10551TIP3    H253145   5.550   1.141   2.556  0.6055 -1.3876 -1.0156
10552TIP3   OH253146   5.838   1.804  11.424 -0.0082 -0.2637  0.1850
10552TIP3    H153147   5.910   1.740  11.430 -0.1115 -0.3755  0.2226
10552TIP3    H253148   5.759   1.751  11.420 -0.0824 -0.1416  0.0231
10553TIP3   OH253149   5.192   4.365  13.417 -0.5556 -0.5996  0.0494
10553TIP3    H153150   5.210   4.279  13.380 -0.2422 -0.6875  0.3963
10553TIP3    H253151   5.266   4.419  13.389 -0.1705 -0.7401  0.7761
10554TIP3   OH253152   3.023   0.678   0.492  0.4925  1.4157 -0.0540
10554TIP3    H153153   2.977   0.628   0.559  2.6080 -1.5430 -0.6423
10554TIP3    H253154   2.985   0.649   0.409  2.6043 -0.3353 -0.4814
10555TIP3   OH253155   0.841   3.302  13.814 -0.3119 -0.1043  0.5438
10555TIP3    H153156   0.934   3.279  13.811 -0.6928 -1.8484  0.6862
10555TIP3    H253157   0.827   3.331  13.904 -0.4529 -2.7027  1.4575
10556TIP3   OH253158   4.479   2.404  11.529  0.2572  0.1513 -0.0827
10556TIP3    H153159   4.477   2.363  11.443 -1.0103  0.1580 -0.0769
10556TIP3    H253160   4.387   2.405  11.557  0.6444  0.2239  1.2337
10557TIP3   OH253161   6.057   1.266  15.076 -0.1404  0.6630  0.6121
10557TIP3    H153162   6.136   1.295  15.121 -0.4389 -1.9186  3.0409
10557TIP3    H253163   6.079   1.178  15.044 -1.9738 -0.0967  1.3112
10558TIP3   OH253164   0.967   6.601   1.320  0.5235 -0.1018  0.3027
10558TIP3    H153165   1.021   6.602   1.399 -0.1724 -0.8344  0.8068
10558TIP3    H253166   0.878   6.586   1.352 -0.0535  1.4581 -0.4839
10559TIP3   OH253167   4.307   3.600  13.699  0.0632  0.3295  0.2943
10559TIP3    H153168   4.355   3.569  13.622  0.0900 -0.2067  0.5199
10559TIP3    H253169   4.375   3.627  13.760  0.1237 -0.8034  0.7707
10560TIP3   OH253170   1.961   5.568   1.276  0.2719 -0.2218  0.3771
10560TIP3    H153171   1.969   5.617   1.358  0.7132 -0.5152  0.5124
10560TIP3    H253172   2.051   5.544   1.254  0.3185  0.9698 -0.8837
10561TIP3   OH253173   1.169   3.787   3.365 -0.2375  0.3687 -0.2679
10561TIP3    H153174   1.260   3.763   3.384 -0.9348 -0.9927  1.7399
10561TIP3    H253175   1.139   3.832   3.444 -1.8914 -1.1038  0.0009
10562TIP3   OH253176   3.827   2.147   4.805 -0.2831 -0.1192  0.0858
10562TIP3    H153177   3.844   2.207   4.877  1.5679  0.2209 -0.5834
10562TIP3    H253178   3.849   2.060   4.840 -2.6229 -0.4632  0.9375
10563TIP3   OH253179   1.250   2.829  13.718 -0.1158  0.0627  0.2661
10563TIP3    H153180   1.213   2.915  13.736 -0.2370 -0.4116  2.5506
10563TIP3    H253181   1.194   2.768  13.766  1.8242 -0.9531  1.3630
10564TIP3   OH253182   1.496   6.708   2.306 -0.1353  0.5158  0.0351
10564TIP3    H153183   1.427   6.769   2.332 -0.9438  0.5672 -2.0224
10564TIP3    H253184   1.575   6.743   2.347 -0.9197  1.8366  0.5064
10565TIP3   OH253185   5.176   6.099   1.123  0.1314  0.2058  0.2346
10565TIP3    H153186   5.129   6.094   1.207  1.9671 -1.6479  1.2344
10565TIP3    H253187   5.246   6.034   1.131 -0.3028 -0.8753 -3.1904
10566TIP3   OH253188   2.252   6.812  13.385  0.1075  0.1358  0.5515
10566TIP3    H153189   2.201   6.863  13.447 -0.9039  0.2070 -0.3092
10566TIP3    H253190   2.283   6.876  13.321  1.8000  0.1926  1.3538
10567TIP3   OH253191   2.839   4.566   3.758  0.1090  0.9472 -0.0411
10567TIP3    H153192   2.818   4.593   3.848  2.5157  0.7111  0.6567
10567TIP3    H253193   2.820   4.472   3.757  0.0357  0.9576  0.2157
10568TIP3   OH253194   5.702   0.618   0.119 -0.4604  0.5743 -0.0537
10568TIP3    H153195   5.682   0.692   0.062 -1.2212  0.4436  0.0327
10568TIP3    H253196   5.696   0.542   0.061  1.4348  0.6501 -0.4079
10569TIP3   OH253197   1.234   3.027   2.134 -0.6920  0.4714  0.2609
10569TIP3    H153198   1.287   2.966   2.186  1.0991  1.6131 -0.1365
10569TIP3    H253199   1.207   3.094   2.197 -2.1809 -0.3799  0.5762
10570TIP3   OH253200   2.096   2.541   3.165  0.1286 -0.1317  0.2877
10570TIP3    H153201   2.124   2.491   3.088 -0.3612 -0.4368  0.3042
10570TIP3    H253202   2.140   2.499   3.239  0.0415 -0.2814  0.2545
10571TIP3   OH253203   3.773   4.874  17.030 -0.2904 -0.1763 -0.7494
10571TIP3    H153204   3.764   4.964  17.061 -1.2016  0.0236 -1.5429
10571TIP3    H253205   3.761   4.880  16.935  1.8076 -0.8536 -1.1047
10572TIP3   OH253206   0.822   3.906  12.017  0.0794  0.0242  0.3249
10572TIP3    H153207   0.821   3.812  11.999  0.7790 -0.5991  3.0168
10572TIP3    H253208   0.877   3.943  11.948  1.4904 -1.8617  0.3593
10573TIP3   OH253209   5.900   6.023  16.444  0.1265  0.4409 -0.1804
10573TIP3    H153210   5.809   5.997  16.436  0.4929 -0.4531 -2.0389
10573TIP3    H253211   5.949   5.940  16.446  0.9361  0.9101  0.0316
10574TIP3   OH253212   0.896   1.733  14.173 -0.1795  0.0836 -0.3952
10574TIP3    H153213   0.807   1.698  14.172 -1.0625  1.9309  2.0219
10574TIP3    H253214   0.923   1.727  14.264  0.6922  2.8559 -0.3677
10575TIP3   OH253215   3.102   3.380  12.157 -0.3139  0.0954 -0.3109
10575TIP3    H153216   3.088   3.412  12.068  0.1104 -0.5447 -0.6192
10575TIP3    H253217   3.186   3.336  12.154 -0.3279 -0.0000  0.3942
10576TIP3   OH253218   2.021   5.222   5.701  0.6719  0.9557  1.2109
10576TIP3    H153219   2.097   5.166   5.684 -0.0369  0.1234  0.6918
10576TIP3    H253220   2.057   5.310   5.710  1.6681  0.6022  0.7705
10577TIP3   OH253221   2.117   4.381   3.973 -0.1181 -0.3562 -0.7149
10577TIP3    H153222   2.177   4.441   3.929 -2.1173  0.4515 -2.5392
10577TIP3    H253223   2.038   4.382   3.918 -0.6657 -3.8383 -0.2381
10578TIP3   OH253224   2.221   6.088  15.345 -0.3562  0.1339 -0.3695
10578TIP3    H153225   2.140   6.110  15.389 -1.3317  0.1153 -2.0722
10578TIP3    H253226   2.217   5.993  15.335  0.3273  0.0177  0.3406
10579TIP3   OH253227   4.147   6.385   4.778  0.0646  0.7101  0.4146
10579TIP3    H153228   4.150   6.471   4.735  1.3832  0.5371  0.1176
10579TIP3    H253229   4.172   6.323   4.709  0.2780  0.2169  0.9221
10580TIP3   OH253230   5.158   0.462   6.286 -0.1573  0.3767 -0.6112
10580TIP3    H153231   5.087   0.443   6.347  0.8833  0.3153  0.6431
10580TIP3    H253232   5.154   0.393   6.221  0.3340 -1.1619  0.9212
10581TIP3   OH253233   4.991   2.842  12.067 -0.1083 -0.4705  0.2216
10581TIP3    H153234   4.955   2.919  12.022 -0.3538 -0.1880  0.8899
10581TIP3    H253235   5.044   2.878  12.138 -0.8019 -0.9081  0.9818
10582TIP3   OH253236   5.496   3.338   4.024  0.1182  0.2246  0.7851
10582TIP3    H153237   5.513   3.281   4.099  0.2015  0.1121  0.6792
10582TIP3    H253238   5.412   3.380   4.046 -0.6503 -0.9607  0.2494
10583TIP3   OH253239   1.877   0.752   6.322 -0.1235 -0.6205  0.2517
10583TIP3    H153240   1.927   0.762   6.403 -0.7587  0.9086  0.4786
10583TIP3    H253241   1.801   0.699   6.347  0.0105 -0.7016  0.4950
10584TIP3   OH253242   0.504   0.951  13.814  0.1272  0.3986  0.3591
10584TIP3    H153243   0.509   0.998  13.731 -0.7701 -0.1045 -0.0047
10584TIP3    H253244   0.410   0.941  13.829  0.2283 -2.5602 -0.3672
10585TIP3   OH253245   2.566   4.233  12.720  0.6765  0.0458  0.0687
10585TIP3    H153246   2.548   4.292  12.647 -2.1236 -1.2616 -0.4104
10585TIP3    H253247   2.523   4.151  12.697  3.2940 -1.8394  1.3223
10586TIP3   OH253248   3.097   6.328   3.976  0.4772 -0.3130  0.5913
10586TIP3    H153249   3.154   6.328   3.899 -0.3431  2.0493 -0.1035
10586TIP3    H253250   3.156   6.343   4.050  0.8359  2.6618 -0.1655
10587TIP3   OH253251   6.148   3.698   4.527  0.2091 -0.2102  0.3922
10587TIP3    H153252   6.186   3.779   4.560 -0.5267  0.6772 -0.8386
10587TIP3    H253253   6.115   3.721   4.440  1.2208 -2.1948 -0.5699
10588TIP3   OH253254   6.513   0.741   0.246  1.2964  0.4290 -0.2075
10588TIP3    H153255   6.427   0.709   0.275  1.9253 -1.1464  0.0376
10588TIP3    H253256   6.532   0.815   0.303  1.3188 -0.9493  1.6779
10589TIP3   OH253257   6.548   6.132  14.169 -0.2272  0.2849 -0.2250
10589TIP3    H153258   6.531   6.044  14.136 -0.4348 -0.3648  1.4753
10589TIP3    H253259   6.595   6.176  14.099  3.1119 -2.3233  0.1422
10590TIP3   OH253260   5.483   1.650   4.556  0.6084 -0.5152 -0.1110
10590TIP3    H153261   5.548   1.580   4.563 -0.7860 -1.8206  0.2544
10590TIP3    H253262   5.467   1.659   4.462  1.5064  0.0474 -0.2323
10591TIP3   OH253263   4.664   1.084   3.346  0.3483  0.2223  0.1601
10591TIP3    H153264   4.712   1.147   3.400  1.3420 -1.3546  1.2027
10591TIP3    H253265   4.724   1.063   3.274 -0.1116  0.6899 -0.3693
10592TIP3   OH253266   3.174   5.149  14.582 -0.0562 -0.6045 -0.0521
10592TIP3    H153267   3.210   5.236  14.599  3.1979 -2.0518  1.4628
10592TIP3    H253268   3.224   5.117  14.506 -0.4995 -1.5022  0.0209
10593TIP3   OH253269   1.673   5.479  12.265  0.0423  0.4261 -0.3452
10593TIP3    H153270   1.767   5.476  12.283 -0.2635  0.5400  1.5063
10593TIP3    H253271   1.659   5.564  12.223  0.7984  0.2931 -0.8652
10594TIP3   OH253272   2.026   1.480  14.860 -0.6958  0.2963 -0.1459
10594TIP3    H153273   2.032   1.574  14.847 -0.7339  0.2972 -0.1573
10594TIP3    H253274   2.106   1.445  14.821 -1.3359  0.1825 -1.4139
10595TIP3   OH253275   5.291   4.652  11.247 -0.0453  0.0464  0.3527
10595TIP3    H153276   5.241   4.722  11.205 -0.7496 -0.8576 -0.3581
10595TIP3    H253277   5.342   4.613  11.176 -0.3047 -0.7073  0.5781
10596TIP3   OH253278   3.183   4.159   1.378 -0.1360  0.1302  0.1544
10596TIP3    H153279   3.094   4.122   1.386 -0.6114  1.2449  0.1392
10596TIP3    H253280   3.206   4.186   1.467  0.7229 -1.3077  0.4006
10597TIP3   OH253281   3.389   2.722   3.152  0.3467  0.0916  0.9841
10597TIP3    H153282   3.466   2.666   3.142  1.1199  1.4406 -1.3897
10597TIP3    H253283   3.419   2.792   3.210  0.9821  0.6348  0.0363
10598TIP3   OH253284   4.846   6.579   1.772 -0.7487  0.1550 -0.6305
10598TIP3    H153285   4.869   6.490   1.746  0.0620  0.5558 -1.3526
10598TIP3    H253286   4.876   6.633   1.699 -1.0029  1.0406 -0.0877
10599TIP3   OH253287   6.591   5.935  10.766 -0.5190  0.1101 -0.5863
10599TIP3    H153288   6.564   5.987  10.690 -1.6769  2.2420  1.1886
10599TIP3    H253289   6.667   5.982  10.801  0.1192 -0.9613 -0.4747
10600TIP3   OH253290   0.086   0.383   1.548 -0.1143  0.1879  0.1230
10600TIP3    H153291   0.004   0.346   1.514  1.2240 -1.9268 -1.0460
10600TIP3    H253292   0.121   0.434   1.475  1.2928 -1.8878 -0.7524
10601TIP3   OH253293   5.501   5.921   4.965  0.0044  0.3587  0.2110
10601TIP3    H153294   5.498   6.017   4.970  2.3117  0.5990 -1.2160
10601TIP3    H253295   5.527   5.903   4.874  0.0674 -1.6036  0.5736
10602TIP3   OH253296   4.188   5.433   4.178  0.6189 -0.0565  0.1294
10602TIP3    H153297   4.241   5.485   4.117  1.4926  0.3290  1.1821
10602TIP3    H253298   4.230   5.446   4.263 -1.1789  0.2591  1.0115
10603TIP3   OH253299   4.827   0.946   4.120  0.1059 -0.5100 -0.5025
10603TIP3    H153300   4.849   0.996   4.199 -2.1998  1.2885 -0.8940
10603TIP3    H253301   4.909   0.901   4.097  0.7318 -1.5794  3.1708
10604TIP3   OH253302   0.934   5.258   0.511  0.9474  0.2286 -0.5650
10604TIP3    H153303   0.981   5.179   0.483 -0.9862 -0.4750 -2.0352
10604TIP3    H253304   0.982   5.288   0.588  2.9996 -1.1667 -1.2021
10605TIP3   OH253305   0.387   0.267  14.216 -0.3060  0.1377 -0.3123
10605TIP3    H153306   0.354   0.212  14.146 -1.7548 -0.4725  0.7899
10605TIP3    H253307   0.309   0.300  14.260  0.5508  0.7874  0.7980
10606TIP3   OH253308   0.331   3.759  12.382 -0.3869 -0.2199  0.2150
10606TIP3    H153309   0.420   3.758  12.418 -0.4887 -1.8144  0.5013
10606TIP3    H253310   0.332   3.690  12.315 -1.5826 -0.6884  0.6565
10607TIP3   OH253311   0.067   3.517  13.210  0.3765  0.3071 -0.0341
10607TIP3    H153312   0.112   3.486  13.288 -0.2955  2.1107  1.1457
10607TIP3    H253313   0.132   3.569  13.163  0.7911 -0.8069 -0.7385
10608TIP3   OH253314   6.393   1.409  11.769  0.4473  0.2320 -0.6571
10608TIP3    H153315   6.369   1.500  11.752 -0.7220  0.3084  1.2043
10608TIP3    H253316   6.318   1.371  11.814  2.3164 -0.5322  2.1318
10609TIP3   OH253317   5.199   0.817  12.589  0.3973 -0.1615  0.6207
10609TIP3    H153318   5.222   0.769  12.669 -0.5988  0.1892  1.1390
10609TIP3    H253319   5.188   0.908  12.618  1.1018  0.1794 -0.1298
10610TIP3   OH253320   3.461   5.598  13.560  0.6937  0.0324 -0.5601
10610TIP3    H153321   3.411   5.665  13.606  0.3030 -0.2365 -0.5814
10610TIP3    H253322   3.462   5.626  13.469 -0.1523 -0.3913 -0.7058
10611TIP3   OH253323   5.913   4.771   6.456 -0.3395 -0.0017  0.0552
10611TIP3    H153324   5.997   4.816   6.446 -0.1517 -0.0089  1.4020
10611TIP3    H253325   5.936   4.678   6.457 -0.5051 -0.0595 -0.6943
10612TIP3   OH253326   2.938   6.566  11.198  0.3879  0.1681 -0.2416
10612TIP3    H153327   2.954   6.551  11.105 -0.4839 -0.9706 -0.2474
10612TIP3    H253328   2.850   6.604  11.201  1.1740  2.0709  0.0254
10613TIP3   OH253329   6.321   3.386   1.198 -0.3760 -0.3210  1.0509
10613TIP3    H153330   6.247   3.338   1.162 -0.1594 -0.5004  0.8400
10613TIP3    H253331   6.354   3.330   1.268  0.0479 -0.6183  0.6232
10614TIP3   OH253332   2.824   4.094   4.159 -0.3482  0.4682  0.0012
10614TIP3    H153333   2.882   4.145   4.103 -0.9306 -0.0122 -1.0662
10614TIP3    H253334   2.740   4.141   4.157 -0.1726  0.8502  1.0775
10615TIP3   OH253335   6.089   0.837   0.024 -0.0700  0.4436 -0.0445
10615TIP3    H153336   6.118   0.748   0.007  0.5757  0.6441 -0.0427
10615TIP3    H253337   6.094   0.881  -0.061 -2.1021  0.0367 -0.4320
10616TIP3   OH253338   2.398   1.683   0.800  0.0196 -0.2342 -0.2547
10616TIP3    H153339   2.392   1.627   0.723  1.9775  0.5019 -0.9815
10616TIP3    H253340   2.307   1.704   0.821 -0.5565 -0.4896 -2.3147
10617TIP3   OH253341   0.987   0.228  12.975 -0.1060  0.3283  0.0433
10617TIP3    H153342   0.951   0.306  13.018  1.2521  0.6905  0.5873
10617TIP3    H253343   1.075   0.254  12.948  1.0304 -1.4648  1.7041
10618TIP3   OH253344   4.904   2.907  12.372  0.6635  0.3463  0.4778
10618TIP3    H153345   4.918   2.854  12.450  0.1412  0.0448  0.3766
10618TIP3    H253346   4.991   2.939  12.348  0.7050  1.2559  1.7491
10619TIP3   OH253347   2.013   1.047  16.292  0.0665 -0.0860 -0.1468
10619TIP3    H153348   2.024   1.142  16.298  0.7414 -0.0394 -1.6424
10619TIP3    H253349   2.078   1.020  16.228  0.3025 -1.6566  0.7243
10620TIP3   OH253350   6.479   4.809   0.421 -0.2176 -0.7760 -0.1897
10620TIP3    H153351   6.437   4.802   0.507  0.8736  0.5300  0.4844
10620TIP3    H253352   6.571   4.789   0.438  0.1389  0.1683 -0.9157
10621TIP3   OH253353   4.029   2.904  11.566  0.2253  0.0859  0.1636
10621TIP3    H153354   3.940   2.900  11.530 -0.3903 -1.5218  1.6751
10621TIP3    H253355   4.074   2.829  11.527  0.7349  0.5543 -0.1529
10622TIP3   OH253356   3.224   3.987   3.316  0.3512  0.4074  0.1044
10622TIP3    H153357   3.220   3.892   3.304 -0.1296  0.1764  1.7837
10622TIP3    H253358   3.285   3.999   3.389 -0.9016  1.2330  1.0641
10623TIP3   OH253359   1.502   5.253  11.914  0.5368 -0.3068  0.0160
10623TIP3    H153360   1.418   5.255  11.959 -1.2360  1.6617 -3.0298
10623TIP3    H253361   1.527   5.161  11.913 -0.1389 -0.6588  3.2647
10624TIP3   OH253362   4.991   2.191  10.793 -0.4737 -0.5649  0.6954
10624TIP3    H153363   4.973   2.285  10.799  2.3556  0.3130 -2.0041
10624TIP3    H253364   4.917   2.155  10.745  0.3079  1.1707 -2.0198
10625TIP3   OH253365   0.488   2.835  12.870  0.4496 -0.2665  0.3735
10625TIP3    H153366   0.420   2.775  12.901 -1.9282  0.6558 -2.5373
10625TIP3    H253367   0.480   2.912  12.926 -0.4634 -0.4505  0.5123
10626TIP3   OH253368   3.075   2.117  15.657  0.2223  0.4661 -0.1582
10626TIP3    H153369   3.141   2.067  15.704 -0.2496  1.6966  1.9216
10626TIP3    H253370   3.014   2.050  15.624  1.7365 -0.5760 -0.9887
10627TIP3   OH253371   4.795   2.826  14.866  0.3347 -0.5634  0.4736
10627TIP3    H153372   4.708   2.799  14.896  0.4604  0.7671  2.1823
10627TIP3    H253373   4.843   2.847  14.946  1.7326  0.2288 -0.5209
10628TIP3   OH253374   5.499   2.107   5.407  0.6188 -0.0523 -0.4698
10628TIP3    H153375   5.433   2.072   5.466  1.3950 -0.4850  0.1482
10628TIP3    H253376   5.458   2.185   5.369 -0.5986 -0.8279 -0.8142
10629TIP3   OH253377   0.388   4.649  16.108  0.9213 -0.2057  0.4277
10629TIP3    H153378   0.298   4.682  16.104  0.2628 -1.9774 -1.3295
10629TIP3    H253379   0.412   4.655  16.200  0.2780  3.3682  0.5015
10630TIP3   OH253380   6.588   5.540   4.144  0.0872  0.2134  0.1793
10630TIP3    H153381   6.553   5.476   4.206 -1.5044  0.1002 -0.7948
10630TIP3    H253382   6.653   5.589   4.195 -0.2936 -0.6827  1.5798
10631TIP3   OH253383   4.028   4.190  14.840  0.6260  0.3196 -0.0808
10631TIP3    H153384   4.078   4.128  14.786  1.0568 -0.0514  0.7235
10631TIP3    H253385   3.954   4.215  14.785  1.3900  0.4420 -1.0861
10632TIP3   OH253386   3.223   6.004  15.357 -0.2873 -0.1071  0.2379
10632TIP3    H153387   3.215   6.010  15.452 -0.7057  1.5185  0.1230
10632TIP3    H253388   3.178   6.082  15.324 -0.0297 -0.5744 -1.2929
10633TIP3   OH253389   2.383   6.628   5.925  0.4419 -0.1212  0.1350
10633TIP3    H153390   2.289   6.636   5.908  0.4562  2.5748  0.8961
10633TIP3    H253391   2.388   6.572   6.003 -0.5962  0.3652  0.5751
10634TIP3   OH253392   6.090   5.952   3.930 -0.3890  0.2076  0.0343
10634TIP3    H153393   6.008   5.964   3.881 -2.0783  0.7271  2.7564
10634TIP3    H253394   6.073   5.877   3.987  0.2788  1.4564  1.9716
10635TIP3   OH253395   6.053   6.280   3.831  0.2389 -0.2621  0.1640
10635TIP3    H153396   6.124   6.278   3.766 -0.2845  1.0701 -0.4785
10635TIP3    H253397   6.002   6.201   3.812 -0.1586  0.3212 -1.3684
10636TIP3   OH253398   5.708   6.395  15.388  0.6101 -0.6549 -0.2078
10636TIP3    H153399   5.773   6.328  15.408  0.1331 -1.9178 -2.5152
10636TIP3    H253400   5.628   6.345  15.369 -0.1178  0.6528 -0.6813
10637TIP3   OH253401   0.325   3.840   5.019  0.1599  0.1195 -0.5555
10637TIP3    H153402   0.416   3.834   4.990  0.2672  0.7024 -0.3658
10637TIP3    H253403   0.326   3.804   5.108  0.3592  0.8101 -0.2676
10638TIP3   OH253404   2.560   3.600   3.072  0.1394 -0.7267 -0.7520
10638TIP3    H153405   2.648   3.637   3.062  0.6314 -1.6170  0.1022
10638TIP3    H253406   2.565   3.547   3.152 -1.3980 -0.1673 -0.2390
10639TIP3   OH253407   0.205   0.639  10.995  0.3295 -0.4316 -0.0158
10639TIP3    H153408   0.200   0.603  10.906 -0.3420 -0.3495 -0.0235
10639TIP3    H253409   0.298   0.656  11.009  0.3121  1.1231 -1.3440
10640TIP3   OH253410   5.091   6.526  17.166  0.3406  0.0686 -0.4211
10640TIP3    H153411   5.062   6.469  17.095 -0.3115  0.2049 -0.2674
10640TIP3    H253412   5.173   6.564  17.134 -0.5908  1.1093 -1.6517
10641TIP3   OH253413   2.187   3.163   5.443 -0.4383 -0.0739 -0.0526
10641TIP3    H153414   2.182   3.145   5.349 -0.9691 -0.7129  0.0904
10641TIP3    H253415   2.261   3.110   5.474 -1.8607 -1.9432  0.3285
10642TIP3   OH253416   3.458   0.402  15.391  0.4560 -0.1048 -0.5773
10642TIP3    H153417   3.466   0.427  15.483  0.6360 -0.3523 -0.5267
10642TIP3    H253418   3.370   0.431  15.366  1.4013  2.5920 -1.1260
10643TIP3   OH253419   5.298   6.366  13.133  0.1573  0.1353  0.3166
10643TIP3    H153420   5.369   6.404  13.081  0.0446 -1.6570 -1.2561
10643TIP3    H253421   5.333   6.282  13.164 -0.7760 -0.1091  0.7400
10644TIP3   OH253422   6.420   0.843  13.443  0.3528 -0.3091 -0.0166
10644TIP3    H153423   6.328   0.818  13.446  0.2272 -0.0290 -1.1203
10644TIP3    H253424   6.461   0.780  13.383  0.8818 -0.4222  0.4501
10645TIP3   OH253425   4.925   0.409   1.986 -0.2351 -0.0091  0.6222
10645TIP3    H153426   4.993   0.343   2.002  0.1215  0.1588 -0.1158
10645TIP3    H253427   4.970   0.476   1.934 -1.2013 -0.3790 -0.7685
10646TIP3   OH253428   1.533   3.977  10.489 -0.2501 -0.0364 -0.0488
10646TIP3    H153429   1.581   4.008  10.566  0.0663 -0.4442 -0.0767
10646TIP3    H253430   1.458   4.036  10.482  0.3947  0.7801 -0.1728
10647TIP3   OH253431   3.734   2.670   5.300  0.2273  0.2029  0.1660
10647TIP3    H153432   3.767   2.731   5.367 -1.8053  0.5186  0.9422
10647TIP3    H253433   3.763   2.584   5.330 -0.7178  0.3334  1.5408
10648TIP3   OH253434   2.639   4.459  12.159  0.5221 -0.5746 -0.7188
10648TIP3    H153435   2.616   4.524  12.092 -0.3605 -1.7355 -1.5960
10648TIP3    H253436   2.734   4.456  12.159  0.6775  1.9194  0.5673
10649TIP3   OH253437   1.081   2.237   3.113 -0.2338  0.6222  0.3058
10649TIP3    H153438   1.089   2.258   3.206 -2.7582  1.7347  0.3460
10649TIP3    H253439   1.001   2.281   3.085  0.2145 -0.0554 -2.3096
10650TIP3   OH253440   0.676   2.158   1.477 -0.0094 -0.0621 -0.8998
10650TIP3    H153441   0.763   2.148   1.517 -0.5594 -0.0868  0.3360
10650TIP3    H253442   0.694   2.199   1.392  1.1799  0.3402 -0.4819
10651TIP3   OH253443   4.617   1.206  13.070  0.3061 -0.2574  0.6625
10651TIP3    H153444   4.670   1.131  13.098 -0.1565 -1.0692 -0.5624
10651TIP3    H253445   4.681   1.277  13.057  0.9261 -0.8497  0.4329
10652TIP3   OH253446   5.419   0.079   1.374  0.3919  0.1213 -0.1633
10652TIP3    H153447   5.338   0.129   1.391  2.2690  2.5864  2.5752
10652TIP3    H253448   5.445   0.105   1.286 -0.5810  1.1813 -0.1595
10653TIP3   OH253449   5.375   4.020  15.336  0.6033  0.1463  0.0948
10653TIP3    H153450   5.322   4.084  15.384 -0.7577 -0.9720  0.1411
10653TIP3    H253451   5.464   4.032  15.369 -0.3464 -0.9862  3.4218
10654TIP3   OH253452   6.239   3.132  17.080  0.0426  0.4411 -0.2460
10654TIP3    H153453   6.232   3.200  17.013  2.9347 -0.1210 -1.2765
10654TIP3    H253454   6.306   3.073  17.046  1.0460 -0.3223  2.7879
10655TIP3   OH253455   2.580   0.815   2.481  0.1351 -0.1467 -0.0182
10655TIP3    H153456   2.490   0.821   2.449 -0.0624  0.1383  0.5677
10655TIP3    H253457   2.634   0.823   2.403 -0.3441  0.0230 -0.3357
10656TIP3   OH253458   6.325   1.840  12.228 -0.4236  0.2079 -0.4864
10656TIP3    H153459   6.329   1.878  12.316 -2.5432  0.0348 -0.2530
10656TIP3    H253460   6.411   1.856  12.190  0.6074  0.0801  1.6994
10657TIP3   OH253461   0.471   5.066   4.889 -0.5025  0.5144  0.4915
10657TIP3    H153462   0.376   5.074   4.891 -0.7629 -0.9311 -1.9738
10657TIP3    H253463   0.492   5.048   4.797  2.2050  1.1020  0.8952
10658TIP3   OH253464   6.452   4.105   1.067  0.0527 -0.3499  0.0849
10658TIP3    H153465   6.459   4.172   1.135 -0.5755  2.2761 -2.2811
10658TIP3    H253466   6.363   4.071   1.077  0.1775 -0.4599  0.9445
10659TIP3   OH253467   6.313   0.571   3.002  0.7041 -0.5130  0.2198
10659TIP3    H153468   6.373   0.615   2.941  0.0262 -1.0610 -0.8839
10659TIP3    H253469   6.369   0.517   3.056  1.2201 -1.0602 -0.8270
10660TIP3   OH253470   1.205   0.994  14.396  0.3880 -0.0723 -0.4344
10660TIP3    H153471   1.168   1.080  14.375  1.0474 -0.0727 -1.6789
10660TIP3    H253472   1.297   1.012  14.417 -0.1305 -0.1295  2.1800
10661TIP3   OH253473   2.955   0.285  16.755 -0.4826 -0.2332  0.9219
10661TIP3    H153474   2.866   0.321  16.748 -1.0815 -0.6420  4.3923
10661TIP3    H253475   2.944   0.192  16.736 -1.0006 -0.4236  2.0526
10662TIP3   OH253476   6.746   0.945   0.772 -0.7185  0.8142 -0.1746
10662TIP3    H153477   6.823   0.947   0.716 -0.7801  1.3293 -0.2444
10662TIP3    H253478   6.687   0.882   0.730 -0.7116  1.0989 -0.6148
10663TIP3   OH253479   1.854   2.670   1.846  0.2281  0.0952 -0.0215
10663TIP3    H153480   1.841   2.706   1.934 -2.2528  0.5111 -0.4900
10663TIP3    H253481   1.901   2.738   1.799  0.7119  0.2807  0.7098
10664TIP3   OH253482   2.679   4.418  11.619  0.3467 -0.1591 -0.1232
10664TIP3    H153483   2.591   4.394  11.588 -0.4115  1.8125  0.3524
10664TIP3    H253484   2.729   4.435  11.539  0.0230 -0.3896 -0.3773
10665TIP3   OH253485   6.310   2.864   3.032  0.3192 -0.0486  0.6506
10665TIP3    H153486   6.316   2.945   3.083  0.7208  0.9711 -0.9280
10665TIP3    H253487   6.254   2.887   2.958 -0.6619 -1.6271  0.8626
10666TIP3   OH253488   0.584   5.525   3.674  0.3198 -0.1012  0.3721
10666TIP3    H153489   0.668   5.550   3.713  0.6079  1.4254 -1.0816
10666TIP3    H253490   0.537   5.608   3.663 -0.4350 -0.6636 -0.9110
10667TIP3   OH253491   6.154   4.858  12.028 -0.3171 -0.2566  0.4269
10667TIP3    H153492   6.062   4.841  12.051  0.2679 -0.9920  2.4410
10667TIP3    H253493   6.152   4.943  11.984 -1.9142 -0.0099  0.8993
10668TIP3   OH253494   6.694   4.535   6.039 -0.3964 -0.2558  0.1291
10668TIP3    H153495   6.761   4.601   6.057 -1.9761  1.1631  1.1467
10668TIP3    H253496   6.625   4.553   6.103 -2.0619 -1.1763 -1.3272
10669TIP3   OH253497   5.613   3.892  16.953  0.2261 -0.1035  0.3937
10669TIP3    H153498   5.539   3.874  17.011 -0.4059 -1.1773 -0.6998
10669TIP3    H253499   5.616   3.817  16.894  0.2399  1.3648 -1.5766
10670TIP3   OH253500   2.070   0.836   3.397 -0.7128 -0.3371  0.1287
10670TIP3    H153501   2.057   0.931   3.396  2.8362  0.2564 -0.4597
10670TIP3    H253502   1.988   0.802   3.361 -2.4272  2.3853  1.0734
10671TIP3   OH253503   0.275   5.335   2.687 -0.8489  0.1980 -0.2092
10671TIP3    H153504   0.353   5.352   2.739 -0.3722  0.1298 -0.8854
10671TIP3    H253505   0.287   5.389   2.609 -1.1868 -0.2752 -0.5918
10672TIP3   OH253506   0.541   1.674  16.113 -0.2849 -0.2069 -0.1537
10672TIP3    H153507   0.534   1.701  16.021 -3.7250 -0.3608 -0.0481
10672TIP3    H253508   0.530   1.579  16.110  3.6124 -0.8212  0.1951
10673TIP3   OH253509   2.343   3.515  15.344 -0.1509  1.1173 -0.4403
10673TIP3    H153510   2.325   3.422  15.358 -0.4551  1.2442  0.0194
10673TIP3    H253511   2.421   3.533  15.397 -0.1521  1.1527 -0.4506
10674TIP3   OH253512   4.350   4.154  13.646 -0.4390 -0.2600  0.4973
10674TIP3    H153513   4.279   4.216  13.629 -0.4927  0.1194  2.0240
10674TIP3    H253514   4.315   4.070  13.618 -0.9238  0.1523 -0.1748
10675TIP3   OH253515   3.692   0.687  16.247  0.3325  0.2332 -0.5216
10675TIP3    H153516   3.664   0.719  16.161 -0.5114 -1.0514 -0.7462
10675TIP3    H253517   3.637   0.610  16.263  0.7739  0.2061  0.9853
10676TIP3   OH253518   5.675   5.834  15.366  1.1393  0.1893  0.1654
10676TIP3    H153519   5.588   5.851  15.330  1.2223 -1.4701 -0.9059
10676TIP3    H253520   5.658   5.798  15.454  0.8522  1.8054  0.8083
10677TIP3   OH253521   2.447   2.191  16.473  0.0428  0.5224 -0.2056
10677TIP3    H153522   2.473   2.164  16.385 -1.7313  0.7224 -0.8256
10677TIP3    H253523   2.448   2.287  16.469 -0.7869  0.5378 -0.2672
10678TIP3   OH253524   4.562   1.318  16.955  0.0808  0.2594  0.3950
10678TIP3    H153525   4.539   1.366  17.035  1.6633 -0.3606  1.2636
10678TIP3    H253526   4.562   1.226  16.982 -0.5911 -0.0580 -0.6503
10679TIP3   OH253527   3.380   2.804   0.198 -0.0976  0.4103  0.3202
10679TIP3    H153528   3.420   2.747   0.132 -1.2378 -0.6125  0.4714
10679TIP3    H253529   3.401   2.762   0.282  0.7163  1.3005  0.5802
10680TIP3   OH253530   6.318   1.646   5.218  0.0681 -0.2832  0.5811
10680TIP3    H153531   6.275   1.702   5.283 -0.5660  0.6099 -0.5641
10680TIP3    H253532   6.257   1.574   5.203 -0.6951  0.5391 -0.4207
10681TIP3   OH253533   3.975   2.136   2.522 -0.0599 -0.1138 -0.4020
10681TIP3    H153534   3.953   2.086   2.600 -0.0759 -1.3748 -1.1763
10681TIP3    H253535   3.897   2.130   2.467 -0.2374  1.1858 -0.3316
10682TIP3   OH253536   3.639   4.403   1.067  0.6146  0.2522 -0.1870
10682TIP3    H153537   3.617   4.311   1.048 -0.9427  0.5376  0.0962
10682TIP3    H253538   3.706   4.425   1.002  1.7348 -1.3571  0.3524
10683TIP3   OH253539   0.847   2.385  14.866 -0.1714  0.3247 -0.1094
10683TIP3    H153540   0.787   2.440  14.917  0.3840  0.7170  0.1372
10683TIP3    H253541   0.862   2.309  14.921 -1.9140 -0.7079 -0.9677
10684TIP3   OH253542   3.100   4.261   0.939  0.5501  0.3373 -0.5572
10684TIP3    H153543   3.054   4.342   0.916  1.4979  1.0470  0.0125
10684TIP3    H253544   3.034   4.210   0.986  0.8504  2.2461  2.1975
10685TIP3   OH253545   1.285   2.931  15.007 -0.0536 -0.1553 -0.1952
10685TIP3    H153546   1.287   3.015  15.053  0.7897 -0.5286  0.4533
10685TIP3    H253547   1.320   2.868  15.069  1.8178 -0.5560 -1.5609
10686TIP3   OH253548   5.378   1.143   6.187 -0.0130  0.8035 -0.2622
10686TIP3    H153549   5.368   1.075   6.253  1.4891 -0.8457 -1.6241
10686TIP3    H253550   5.470   1.168   6.192 -0.3219  2.0358 -0.4582
10687TIP3   OH253551   0.195   0.499  10.751  0.0241 -0.0634 -0.9296
10687TIP3    H153552   0.232   0.570  10.699  0.1969  0.3353 -0.2832
10687TIP3    H253553   0.243   0.421  10.723 -0.4233  0.0030 -1.9062
10688TIP3   OH253554   5.465   0.105   1.041  0.0421 -0.2760  0.3334
10688TIP3    H153555   5.483   0.193   1.007 -0.7875  0.1028  0.8556
10688TIP3    H253556   5.386   0.077   0.996 -1.2703  0.3648  2.1251
10689TIP3   OH253557   3.634   6.021  16.192  0.0580  0.1350 -0.4215
10689TIP3    H153558   3.716   5.996  16.234  0.4197 -0.6395 -1.5276
10689TIP3    H253559   3.660   6.049  16.104 -0.7634  0.8480 -0.4515
10690TIP3   OH253560   2.080   1.299   4.042 -0.1537 -0.0861 -0.3571
10690TIP3    H153561   2.073   1.347   3.960 -0.3455 -1.9477 -1.4814
10690TIP3    H253562   2.013   1.231   4.036  0.3863 -0.7698  0.9880
10691TIP3   OH253563   4.274   1.871  15.586 -0.2788  0.6093 -0.6362
10691TIP3    H153564   4.191   1.833  15.558 -0.2874  0.3562 -0.2654
10691TIP3    H253565   4.338   1.838  15.523 -0.3092  0.0936 -0.3965
10692TIP3   OH253566   5.194   4.349   6.579 -0.1523  0.1844  0.2733
10692TIP3    H153567   5.177   4.305   6.663  1.6299 -0.6880  0.2287
10692TIP3    H253568   5.124   4.414   6.571 -1.2399 -0.7479  1.7039
10693TIP3   OH253569   0.439   1.894  15.226  0.6342  0.1917 -0.1294
10693TIP3    H153570   0.385   1.816  15.213  2.5592 -1.2838  0.2738
10693TIP3    H253571   0.520   1.876  15.179  1.3984  1.6789  0.5291
10694TIP3   OH253572   4.925   2.842  15.720  0.2937 -0.0355 -0.0503
10694TIP3    H153573   5.009   2.875  15.752  0.7481 -1.1473 -0.0320
10694TIP3    H253574   4.896   2.908  15.656  1.6119 -0.0472 -0.6980
10695TIP3   OH253575   4.670   2.752  15.275 -0.3818  0.0387 -0.5708
10695TIP3    H153576   4.621   2.821  15.321 -1.7389  0.7907 -2.9647
10695TIP3    H253577   4.618   2.673  15.289  0.0092 -0.0651  0.3678
10696TIP3   OH253578   2.552   4.524   3.767  0.1307  0.1457  0.3021
10696TIP3    H153579   2.645   4.542   3.775  0.3670 -1.1954  0.9502
10696TIP3    H253580   2.539   4.509   3.673  0.4235  1.0054  0.1197
10697TIP3   OH253581   0.973   0.442  16.597  0.1231  0.0427 -0.2929
10697TIP3    H153582   0.886   0.481  16.600  0.5198  1.0751 -1.4912
10697TIP3    H253583   0.968   0.379  16.524 -0.5767 -2.4095  1.7449
10698TIP3   OH253584   1.528   6.552  15.090  0.0468  0.2312  0.3215
10698TIP3    H153585   1.604   6.511  15.049  0.6109  0.5610  1.0106
10698TIP3    H253586   1.482   6.479  15.132 -0.2296 -0.0253 -0.4202
10699TIP3   OH253587   6.182   2.767  15.920  0.1081  0.0985  0.5227
10699TIP3    H153588   6.226   2.687  15.893 -0.6279 -0.2609  0.3664
10699TIP3    H253589   6.229   2.795  15.999  0.4342 -0.4260  0.5162
10700TIP3   OH253590   5.113   3.003  12.228 -0.0088 -0.1563 -0.0228
10700TIP3    H153591   5.101   3.097  12.213  1.5172  0.0800  0.0988
10700TIP3    H253592   5.207   2.993  12.241 -0.1989 -1.6644  0.3083
10701TIP3   OH253593   1.940   3.889  15.929  0.0374 -0.0277  0.6055
10701TIP3    H153594   1.903   3.908  15.843 -0.3044 -2.3021  0.1819
10701TIP3    H253595   1.895   3.948  15.989 -0.8232  0.5379 -0.5666
10702TIP3   OH253596   2.497   6.245  13.155 -0.1915  0.2708  0.0269
10702TIP3    H153597   2.402   6.246  13.141 -0.2695 -0.0485  0.5241
10702TIP3    H253598   2.508   6.212  13.244  0.4635 -1.4184 -0.6476
10703TIP3   OH253599   0.707   0.543  15.163 -0.0674  0.0993 -0.2010
10703TIP3    H153600   0.777   0.608  15.175 -0.3454  0.3294  0.2219
10703TIP3    H253601   0.728   0.474  15.226 -1.0823  0.9230  1.0906
10704TIP3   OH253602   1.319   5.205  13.459  0.4134  0.7383  1.1126
10704TIP3    H153603   1.379   5.143  13.500 -1.0072 -1.4314  0.0795
10704TIP3    H253604   1.307   5.172  13.370 -0.3936  2.5271  0.5155
10705TIP3   OH253605   3.358   5.980   1.206  0.3114  0.2989  0.0160
10705TIP3    H153606   3.426   6.024   1.156 -0.5173 -0.1985 -1.6315
10705TIP3    H253607   3.286   6.043   1.209 -0.4830 -0.4853 -1.4346
10706TIP3   OH253608   1.426   0.068   3.062  0.1813 -0.0546 -0.5523
10706TIP3    H153609   1.350   0.013   3.080 -2.2321  3.1728  0.1503
10706TIP3    H253610   1.458   0.038   2.977 -1.8957 -1.5443 -0.8976
10707TIP3   OH253611   2.204   2.803  15.658 -0.2243 -0.3940  0.7191
10707TIP3    H153612   2.259   2.879  15.638 -0.5615 -0.6880 -1.6617
10707TIP3    H253613   2.266   2.730  15.664 -0.2054 -0.5294 -0.7896
10708TIP3   OH253614   0.618   0.776   0.774  0.4325 -0.2775  0.1890
10708TIP3    H153615   0.526   0.782   0.746  0.5347  0.7980  0.0738
10708TIP3    H253616   0.613   0.740   0.862 -0.4350  3.5692  1.9250
10709TIP3   OH253617   6.186   1.572   1.123 -0.9599 -0.0569  0.1011
10709TIP3    H153618   6.214   1.643   1.180 -0.3335 -1.2046  1.2626
10709TIP3    H253619   6.223   1.493   1.162 -0.0741 -0.8528 -2.1732
10710TIP3   OH253620   5.519   6.099   3.023  0.2118  0.1528  0.6878
10710TIP3    H153621   5.433   6.124   2.990 -0.8089 -3.8585 -0.2432
10710TIP3    H253622   5.578   6.115   2.950 -0.6084 -1.2189 -0.3157
10711TIP3   OH253623   6.576   3.392   1.505 -0.0188  0.0987 -0.6490
10711TIP3    H153624   6.496   3.425   1.547 -0.6756 -0.6127 -1.3026
10711TIP3    H253625   6.544   3.337   1.433  1.0635 -0.3720 -0.7867
10712TIP3   OH253626   4.967   4.837  14.112 -0.0710 -0.1854  0.1151
10712TIP3    H153627   4.946   4.758  14.061 -0.5120 -0.6492  0.9961
10712TIP3    H253628   5.019   4.890  14.052  0.3289 -1.1914 -0.4640
10713TIP3   OH253629   6.034   5.690  15.871  0.0861  0.1840 -0.3822
10713TIP3    H153630   6.111   5.640  15.897  1.0995  1.7832 -0.1407
10713TIP3    H253631   6.047   5.708  15.778 -0.1725  0.1669 -0.4223
10714TIP3   OH253632   4.432   5.708  10.482 -0.0712  0.0264  0.0607
10714TIP3    H153633   4.431   5.798  10.450 -0.2137 -0.1564 -0.4552
10714TIP3    H253634   4.454   5.656  10.405 -4.2144 -0.8065 -0.7795
10715TIP3   OH253635   1.194   3.379  11.499  0.7009 -0.2878  0.1309
10715TIP3    H153636   1.248   3.457  11.510 -1.8314  1.2957  3.0658
10715TIP3    H253637   1.132   3.402  11.430  0.4781  0.0294  0.4293
10716TIP3   OH253638   5.881   4.997   2.903  0.2189 -0.7126  0.0433
10716TIP3    H153639   5.927   4.916   2.927 -1.4527 -1.7134 -0.0034
10716TIP3    H253640   5.858   5.037   2.986 -2.0271 -2.1331  0.2023
10717TIP3   OH253641   0.898   3.880   0.335 -0.3858 -0.0442  0.4362
10717TIP3    H153642   0.836   3.950   0.356 -1.3000 -0.3243 -1.1974
10717TIP3    H253643   0.933   3.853   0.420 -3.0711 -0.3878  1.5307
10718TIP3   OH253644   2.320   1.818   1.580  1.1553 -0.2010  0.0297
10718TIP3    H153645   2.382   1.781   1.518  1.4143 -1.3202  0.9382
10718TIP3    H253646   2.332   1.768   1.660 -2.2063 -1.8197 -0.2808
10719TIP3   OH253647   4.840   0.453   2.317 -0.7704  0.5292  0.2433
10719TIP3    H153648   4.862   0.535   2.361  1.6004  0.5389 -0.8316
10719TIP3    H253649   4.785   0.480   2.243 -1.4330  0.9374  0.8684
10720TIP3   OH253650   5.075   1.667  16.572  0.1321 -0.0699 -0.3347
10720TIP3    H153651   4.993   1.690  16.528 -1.0022 -0.0817  1.6827
10720TIP3    H253652   5.101   1.746  16.619  1.2539 -0.0960 -0.8709
10721TIP3   OH253653   1.181   4.618  11.151  0.4446 -0.6715 -0.4586
10721TIP3    H153654   1.109   4.611  11.088  0.4314  1.1355 -0.6960
10721TIP3    H253655   1.193   4.712  11.163  2.5936 -0.9250 -0.2286
10722TIP3   OH253656   1.834   6.432   0.128 -0.7059  0.2658  0.0127
10722TIP3    H153657   1.844   6.482   0.209  2.0669 -1.3343  0.7973
10722TIP3    H253658   1.863   6.491   0.059 -2.0254  1.2707  0.2827
10723TIP3   OH253659   1.017   5.114   0.218  0.2026  0.9179 -0.3672
10723TIP3    H153660   0.930   5.076   0.206  0.9804 -0.5026 -2.0377
10723TIP3    H253661   1.025   5.177   0.146  1.4520 -0.8426 -1.8655
10724TIP3   OH253662   5.695   1.687  15.147  0.6370 -0.3208  0.1099
10724TIP3    H153663   5.778   1.641  15.135  0.9323  0.3563 -0.4610
10724TIP3    H253664   5.672   1.717  15.060  0.7949  1.2189  0.5790
10725TIP3   OH253665   3.906   2.530   2.514  0.0527  0.2008  0.1768
10725TIP3    H153666   3.916   2.535   2.609  1.2256 -2.8718  0.3115
10725TIP3    H253667   3.993   2.508   2.481 -0.2319  1.5729 -1.7103
10726TIP3   OH253668   5.658   0.066   3.660 -0.4680 -0.0375  0.7119
10726TIP3    H153669   5.735   0.074   3.716 -0.7674  1.5476  0.9342
10726TIP3    H253670   5.677  -0.010   3.604  0.3925 -0.8537  2.0642
10727TIP3   OH253671   3.181   1.870   0.464  0.5457  0.1132 -0.7042
10727TIP3    H153672   3.269   1.848   0.493  0.6155  1.4514  0.1981
10727TIP3    H253673   3.149   1.934   0.528 -1.2414 -0.6361 -0.7713
10728TIP3   OH253674   5.825   1.291   1.671 -0.2080 -0.3927  0.1226
10728TIP3    H153675   5.836   1.294   1.766 -0.1312 -1.0619  0.1398
10728TIP3    H253676   5.859   1.375   1.640  1.1736 -0.7566  0.5561
10729TIP3   OH253677   5.659   3.543  12.457  0.5952  0.2494 -0.5364
10729TIP3    H153678   5.753   3.529  12.470  0.9589  2.5503 -0.2323
10729TIP3    H253679   5.618   3.467  12.498  2.2359  0.5512  1.8865
10730TIP3   OH253680   4.467   1.048  15.726  0.1188  0.4085 -0.2209
10730TIP3    H153681   4.517   0.971  15.699  1.2767  0.5888  1.2724
10730TIP3    H253682   4.394   1.013  15.776  0.3633  0.2574  0.0328
10731TIP3   OH253683   1.865   1.433  16.692 -0.0725  0.0303  0.3121
10731TIP3    H153684   1.907   1.348  16.681  0.5360  0.2226  1.0776
10731TIP3    H253685   1.902   1.468  16.773 -0.3189  1.0218  0.0111
10732TIP3   OH253686   4.413   1.496   6.108 -0.1895 -0.1226 -0.1278
10732TIP3    H153687   4.408   1.416   6.055  1.7600  0.6675 -1.6583
10732TIP3    H253688   4.328   1.537   6.097 -0.5009 -0.9716 -1.0905
10733TIP3   OH253689   3.608   2.878  11.854 -0.1971 -0.7840 -0.1050
10733TIP3    H153690   3.702   2.896  11.852 -0.3279  0.0534  0.4389
10733TIP3    H253691   3.570   2.944  11.795 -0.4699 -0.8783 -0.0364
10734TIP3   OH253692   4.423   5.737  10.794  0.2541  0.4226 -0.0945
10734TIP3    H153693   4.436   5.788  10.714 -0.5206 -1.0524 -1.2177
10734TIP3    H253694   4.485   5.664  10.787  0.0898  0.2043  0.5958
10735TIP3   OH253695   6.094   4.892  14.835  0.0170 -0.2915  0.2913
10735TIP3    H153696   6.096   4.958  14.766  2.1504 -2.3872 -1.8380
10735TIP3    H253697   6.112   4.941  14.915  0.0549  1.8825 -0.9768
10736TIP3   OH253698   2.618   5.151   4.107 -0.1324 -0.3396 -0.1844
10736TIP3    H153699   2.556   5.223   4.094  2.4481  2.2745  1.0238
10736TIP3    H253700   2.691   5.172   4.048 -0.4619 -3.6026 -1.9698
10737TIP3   OH253701   3.664   2.008  14.578  0.1956  0.1161  0.3014
10737TIP3    H153702   3.695   2.061  14.651 -0.1762 -0.6444  1.0438
10737TIP3    H253703   3.570   1.996  14.596  0.0373  0.1709 -0.4660
10738TIP3   OH253704   2.236   0.014  16.123  0.6785  0.1245 -0.1768
10738TIP3    H153705   2.177   0.059  16.062  0.6937  1.5053  0.7755
10738TIP3    H253706   2.268  -0.061  16.074 -1.0417 -0.0733 -1.0902
10739TIP3   OH253707   5.472   3.941   0.087  0.3932  0.7537 -0.2215
10739TIP3    H153708   5.434   3.883   0.153  0.9214 -1.3557 -1.6549
10739TIP3    H253709   5.564   3.952   0.115  0.1704  1.3432  0.3106
10740TIP3   OH253710   0.370   5.129  14.865 -0.2555 -0.3988 -0.2399
10740TIP3    H153711   0.420   5.156  14.788 -1.4718  2.4303 -0.1790
10740TIP3    H253712   0.278   5.137  14.838 -0.6909 -1.2604  0.9244
10741TIP3   OH253713   4.555   2.995  15.852 -0.5599 -0.3877 -0.6358
10741TIP3    H153714   4.604   3.076  15.837 -1.0248 -0.1822 -1.0784
10741TIP3    H253715   4.472   3.025  15.891 -0.2706 -0.7439  0.2779
10742TIP3   OH253716   2.884   1.648  15.321  0.1400  0.0790 -0.1114
10742TIP3    H153717   2.973   1.679  15.341 -0.2729  0.6121  0.9666
10742TIP3    H253718   2.847   1.716  15.264 -0.1211  0.6762  0.7488
10743TIP3   OH253719   3.117   1.867  11.163  0.3310  0.1461  0.1267
10743TIP3    H153720   3.094   1.835  11.250  1.4308  0.7405  0.6522
10743TIP3    H253721   3.209   1.842  11.152  0.2359  0.1787 -0.8166
10744TIP3   OH253722   3.823   5.300  10.277  0.1519  0.6633  0.4190
10744TIP3    H153723   3.771   5.380  10.270 -0.3571  0.1868 -2.9536
10744TIP3    H253724   3.914   5.329  10.274 -0.0281  1.1570 -0.4568
10745TIP3   OH253725   1.526   0.449   5.937 -0.1295  0.2859  0.5533
10745TIP3    H153726   1.435   0.423   5.948 -0.8909  1.4491 -2.1523
10745TIP3    H253727   1.574   0.366   5.932 -1.8326 -0.7022 -3.1169
10746TIP3   OH253728   1.800   4.179  14.009  0.0571 -0.2402 -0.0417
10746TIP3    H153729   1.747   4.138  14.077  0.9879 -2.5147 -0.5763
10746TIP3    H253730   1.737   4.205  13.942 -0.5523 -1.3574  0.0775
10747TIP3   OH253731   6.657   2.359   4.158  0.6206 -0.0356 -0.0847
10747TIP3    H153732   6.739   2.324   4.195 -0.6059 -2.1370  0.8305
10747TIP3    H253733   6.663   2.338   4.065  0.9496 -0.5852  0.0514
10748TIP3   OH253734   0.758   0.467   2.668  0.2683  0.8426  0.6930
10748TIP3    H153735   0.830   0.530   2.676  2.4977 -1.5779  1.3854
10748TIP3    H253736   0.731   0.450   2.758  0.1343  0.3703  0.5674
10749TIP3   OH253737   6.025   4.847  13.450 -0.3096 -0.2732  0.2962
10749TIP3    H153738   6.020   4.757  13.482  0.0592 -0.1788  0.6303
10749TIP3    H253739   5.934   4.875  13.444 -0.4036 -0.4169  0.9212
10750TIP3   OH253740   5.873   1.978  12.174  0.1336 -0.3431  0.4754
10750TIP3    H153741   5.784   1.981  12.138  1.4215  1.7243 -2.9862
10750TIP3    H253742   5.874   2.046  12.241 -0.8572 -0.3893  0.5556
10751TIP3   OH253743   5.155   0.229   4.972  0.3385  0.9026 -0.3245
10751TIP3    H153744   5.216   0.255   4.903  0.1838 -0.5879 -1.0626
10751TIP3    H253745   5.204   0.165   5.024  0.2999  1.6829  0.6989
10752TIP3   OH253746   0.158   0.605   6.259  0.3923 -0.3527  0.3391
10752TIP3    H153747   0.131   0.691   6.289 -2.2056 -0.9813  0.0482
10752TIP3    H253748   0.211   0.570   6.330  0.2799  0.9284  1.0733
10753TIP3   OH253749   0.702   2.692   2.784  0.7979  0.3976  0.3455
10753TIP3    H153750   0.702   2.602   2.752  0.5586  0.2726  0.7009
10753TIP3    H253751   0.613   2.707   2.814  0.5027  1.1633 -0.8516
10754TIP3   OH253752   0.145   4.125  16.088 -0.1719  0.3228 -0.1701
10754TIP3    H153753   0.108   4.211  16.106 -1.8787 -0.8317  2.5551
10754TIP3    H253754   0.069   4.067  16.084  1.0435 -1.3710  0.2470
10755TIP3   OH253755   3.073   5.758  12.400 -0.3782 -0.6384 -0.1806
10755TIP3    H153756   3.027   5.699  12.340  1.0959 -0.2878 -1.7481
10755TIP3    H253757   3.037   5.844  12.381  0.9024 -0.3530 -1.4603
10756TIP3   OH253758   5.511   4.689   2.451  0.5010  0.5595 -0.4943
10756TIP3    H153759   5.591   4.741   2.448  0.8059  0.1194 -0.1045
10756TIP3    H253760   5.509   4.653   2.539 -0.2010  0.6791 -0.4566
10757TIP3   OH253761   3.262   4.683  15.692 -0.4263  0.6050  0.2236
10757TIP3    H153762   3.295   4.673  15.603 -0.9151  2.6325 -0.2454
10757TIP3    H253763   3.325   4.741  15.735  0.3993 -1.2253  1.5902
10758TIP3   OH253764   5.699   0.373  13.592 -0.3078 -0.0189  0.4741
10758TIP3    H153765   5.703   0.378  13.496  1.9741 -0.4399  0.4966
10758TIP3    H253766   5.697   0.465  13.621 -1.8532  0.1168  0.0593
10759TIP3   OH253767   0.496   4.567   5.458 -0.0590 -0.3379  0.3225
10759TIP3    H153768   0.421   4.616   5.492 -1.9472 -2.1512 -0.9385
10759TIP3    H253769   0.527   4.620   5.384 -1.6618 -0.6320 -0.6314
10760TIP3   OH253770   0.829   3.342  13.055 -0.1326  0.4898  0.2087
10760TIP3    H153771   0.744   3.378  13.033  0.3077  2.2338  1.2101
10760TIP3    H253772   0.827   3.329  13.150 -0.3644 -2.4986 -0.1165
10761TIP3   OH253773   0.174   6.267   3.191 -0.1541 -0.1155  0.1443
10761TIP3    H153774   0.145   6.341   3.137 -0.9564 -1.2274 -1.0008
10761TIP3    H253775   0.193   6.306   3.277 -0.8175  1.3705 -0.3510
10762TIP3   OH253776   0.296   1.660   5.089  0.1974 -0.4888  0.6331
10762TIP3    H153777   0.284   1.624   5.177  0.4179  1.0192  1.3150
10762TIP3    H253778   0.290   1.584   5.031  1.8605 -1.8217  2.0722
10763TIP3   OH253779   4.593   0.925  16.086  0.3892 -0.3409  0.0508
10763TIP3    H153780   4.638   0.878  16.156  0.6900  0.9173  0.7453
10763TIP3    H253781   4.613   0.875  16.007  2.3419 -0.3121  0.4525
10764TIP3   OH253782   1.372   1.911   2.991 -0.4923 -0.2420  0.1826
10764TIP3    H153783   1.456   1.955   2.977 -0.8625  0.4716  0.1716
10764TIP3    H253784   1.371   1.839   2.928 -0.0602 -0.0082 -0.0939
10765TIP3   OH253785   4.443   0.828   4.955  0.0217  0.3418  0.2150
10765TIP3    H153786   4.518   0.824   4.896  0.6761 -1.7256  1.1010
10765TIP3    H253787   4.470   0.889   5.024  0.7152 -0.0244  0.2790
10766TIP3   OH253788   1.036   1.682  17.135 -0.4406 -0.1714  0.0964
10766TIP3    H153789   1.086   1.752  17.175 -0.8359  0.2937 -0.2134
10766TIP3    H253790   1.101   1.616  17.111  0.2354  1.0616 -1.6748
10767TIP3   OH253791   2.671   2.848   3.949 -0.0528  0.2241  0.4586
10767TIP3    H153792   2.677   2.754   3.931  0.9706  0.3064  0.2999
10767TIP3    H253793   2.585   2.873   3.916 -0.7124 -0.8233  1.3184
10768TIP3   OH253794   3.338   2.975  15.704 -0.5348  0.2827 -0.4888
10768TIP3    H153795   3.399   2.914  15.746 -1.5992  1.5072  3.1628
10768TIP3    H253796   3.394   3.037  15.658  1.0148  0.7355  1.8524
10769TIP3   OH253797   0.852   6.459  15.409 -0.3377  0.4930  0.5783
10769TIP3    H153798   0.849   6.414  15.494 -2.7629  0.7048  0.6644
10769TIP3    H253799   0.881   6.391  15.348 -0.5781 -0.2257  1.2395
10770TIP3   OH253800   2.596   0.155  12.275 -0.2731  0.8660 -0.5260
10770TIP3    H153801   2.501   0.145  12.284 -0.2321 -1.5890 -1.9290
10770TIP3    H253802   2.628   0.066  12.261  1.9342  1.8917 -2.6363
10771TIP3   OH253803   2.539   4.846   1.612 -0.6818 -0.6197 -0.1425
10771TIP3    H153804   2.490   4.774   1.652 -1.2599 -0.9294 -1.3621
10771TIP3    H253805   2.582   4.806   1.536  0.4984 -0.0718  0.2126
10772TIP3   OH253806   0.935   0.304   4.712 -0.1970 -0.7149  0.7366
10772TIP3    H153807   0.971   0.384   4.675 -1.4470  0.7023  2.4253
10772TIP3    H253808   1.012   0.253   4.739  0.7770 -1.6953 -3.2507
10773TIP3   OH253809   1.910   1.446  12.232 -0.3209  0.6697 -0.6377
10773TIP3    H153810   1.970   1.519  12.217  1.5280 -0.4041  1.0885
10773TIP3    H253811   1.896   1.446  12.327 -1.4008 -0.3860 -0.7755
10774TIP3   OH253812   4.638   2.794   5.063 -0.4773  0.3533 -0.3353
10774TIP3    H153813   4.563   2.821   5.009 -1.1048 -0.8360 -0.1053
10774TIP3    H253814   4.668   2.712   5.022 -0.4053 -0.0966  0.5843
10775TIP3   OH253815   2.484   2.009  16.236 -0.5358 -0.1069 -0.0035
10775TIP3    H153816   2.554   1.958  16.277  1.2852  1.7837 -0.5467
10775TIP3    H253817   2.479   1.975  16.146  2.1113  1.8131 -1.0247
10776TIP3   OH253818   2.300   1.409   0.838 -0.6409 -0.0455  0.0789
10776TIP3    H153819   2.287   1.387   0.930  0.3095 -0.8002  0.0519
10776TIP3    H253820   2.212   1.412   0.801 -0.9663 -1.2349  0.6928
10777TIP3   OH253821   4.852   2.221  17.153  0.0127 -0.1523  0.7471
10777TIP3    H153822   4.887   2.134  17.134 -0.4439 -0.0245 -0.8096
10777TIP3    H253823   4.912   2.257  17.219  2.8018 -0.0225 -1.6603
10778TIP3   OH253824   2.340   1.080   1.700 -0.0054  0.0632  0.0862
10778TIP3    H153825   2.246   1.096   1.691 -0.2824 -1.3494  0.3484
10778TIP3    H253826   2.368   1.145   1.765 -0.2832  2.1917 -1.7792
10779TIP3   OH253827   1.310   2.891   2.348 -0.1932  0.0079  0.2374
10779TIP3    H153828   1.363   2.816   2.377 -2.7783 -2.2105 -0.2872
10779TIP3    H253829   1.275   2.927   2.429  0.0471 -0.1631  0.4225
10780TIP3   OH253830   1.751   5.601   2.506  0.2223  0.2766  0.0594
10780TIP3    H153831   1.805   5.548   2.446 -0.9473 -0.7805 -0.0962
10780TIP3    H253832   1.718   5.672   2.451  2.3844  1.6772  0.4318
10781TIP3   OH253833   6.545   3.541  11.712 -0.0482  0.3189  0.0353
10781TIP3    H153834   6.620   3.599  11.698  0.7693  0.2730  3.4131
10781TIP3    H253835   6.480   3.570  11.648  1.4654  2.8785 -0.4851
10782TIP3   OH253836   2.412   2.414  10.870 -0.5455 -0.4735 -0.0528
10782TIP3    H153837   2.460   2.458  10.801 -0.4261 -0.3339  0.1184
10782TIP3    H253838   2.452   2.446  10.951 -2.1023  1.0901  0.1722
10783TIP3   OH253839   3.757   6.100  12.125  0.5871 -0.0025  0.7405
10783TIP3    H153840   3.674   6.142  12.145 -1.1752 -2.2200 -1.2254
10783TIP3    H253841   3.751   6.013  12.166  0.2521 -1.5575 -2.2794
10784TIP3   OH253842   1.091   3.731  15.245 -0.0395 -0.4531  0.2527
10784TIP3    H153843   1.166   3.695  15.294 -0.1643 -0.4315  0.4605
10784TIP3    H253844   1.019   3.671  15.264 -0.1190 -0.3780  0.1878
10785TIP3   OH253845   5.521   4.061   2.101 -0.0275  0.3769  0.4515
10785TIP3    H153846   5.563   4.133   2.053  0.9988 -0.6700 -0.2982
10785TIP3    H253847   5.429   4.087   2.108  0.3066  1.7233  0.1541
10786TIP3   OH253848   3.639   0.328   4.314 -0.0143 -0.0595 -0.0669
10786TIP3    H153849   3.611   0.288   4.232 -0.2973 -2.0380  0.9428
10786TIP3    H253850   3.733   0.308   4.320 -0.2983 -1.2889  0.7745
10787TIP3   OH253851   2.230   1.832  15.740  0.1716  0.0587 -0.0047
10787TIP3    H153852   2.149   1.798  15.779  0.5056  0.7311  1.3428
10787TIP3    H253853   2.299   1.779  15.778  0.4116 -0.3565 -0.9753
10788TIP3   OH253854   5.622   3.578   2.243  0.0983  0.0858 -0.1600
10788TIP3    H153855   5.556   3.568   2.175  1.8384  1.1413 -2.1187
10788TIP3    H253856   5.692   3.519   2.218  1.2332  1.2708  0.1003
10789TIP3   OH253857   0.448   1.523   5.297 -0.1982 -0.0412 -0.2331
10789TIP3    H153858   0.481   1.515   5.386  0.4060 -0.1707 -0.4656
10789TIP3    H253859   0.454   1.435   5.261 -0.8915 -0.0898 -0.2550
10790TIP3   OH253860   4.823   6.778  15.651 -0.4707  0.1880  0.4461
10790TIP3    H153861   4.873   6.781  15.733  2.4086 -1.6525 -1.0937
10790TIP3    H253862   4.834   6.866  15.614  2.4118 -0.3515 -0.1870
10791TIP3   OH253863   6.165   4.053  10.594  0.2437 -0.9236 -0.0644
10791TIP3    H153864   6.188   4.120  10.658  0.8756  0.0819 -1.2961
10791TIP3    H253865   6.247   4.004  10.580  0.1613 -1.0168 -0.2279
10792TIP3   OH253866   2.115   3.347   0.333 -0.0297  0.2218  0.1322
10792TIP3    H153867   2.118   3.268   0.387 -1.4732 -0.8334 -1.2404
10792TIP3    H253868   2.022   3.356   0.309  0.3731  1.4141 -1.0796
10793TIP3   OH253869   2.709   5.485   2.896 -0.4002  0.2305  0.2865
10793TIP3    H153870   2.714   5.561   2.953  0.7956  1.4605 -1.3693
10793TIP3    H253871   2.681   5.520   2.811  1.8501 -0.8596 -0.9899
10794TIP3   OH253872   4.307   2.886  13.507 -0.3272  0.4676  0.0014
10794TIP3    H153873   4.228   2.918  13.463 -0.9201 -1.1193 -0.1597
10794TIP3    H253874   4.376   2.946  13.479 -1.1225  0.8267 -1.2997
10795TIP3   OH253875   6.693   6.501   5.245  0.2017 -0.0644 -0.1317
10795TIP3    H153876   6.757   6.546   5.299 -1.1274  0.2443  1.2217
10795TIP3    H253877   6.647   6.571   5.199  1.0597 -0.3056 -1.4199
10796TIP3   OH253878   5.199   4.968   1.353 -0.8367 -0.6483 -0.4952
10796TIP3    H153879   5.220   5.030   1.283 -1.3861 -1.7422 -1.6697
10796TIP3    H253880   5.253   4.997   1.426  1.4567 -0.7531 -2.0302
10797TIP3   OH253881   6.331   0.676  14.785 -0.4823  0.2572  0.4398
10797TIP3    H153882   6.307   0.764  14.814 -0.8030  0.8353 -1.4026
10797TIP3    H253883   6.329   0.681  14.689  0.9586 -1.3727  0.2724
10798TIP3   OH253884   2.068   1.546  15.565  0.5784  0.6218 -0.4634
10798TIP3    H153885   2.050   1.640  15.568  0.0017  0.5337 -0.9236
10798TIP3    H253886   2.064   1.524  15.472 -0.5191 -0.0815 -0.2668
10799TIP3   OH253887   1.981   3.987  15.661  0.4902  0.0147  0.2629
10799TIP3    H153888   2.022   4.057  15.609  0.3674 -0.5534 -0.6231
10799TIP3    H253889   1.948   3.925  15.596  1.5429 -1.4248  1.0411
10800TIP3   OH253890   0.705   6.180  16.648 -0.6394 -0.3869 -0.5452
10800TIP3    H153891   0.653   6.160  16.570 -0.8071 -0.3040 -0.4571
10800TIP3    H253892   0.698   6.275  16.659 -0.3224 -0.3524 -0.6338
10801TIP3   OH253893   2.527   5.101  14.177  0.6334  0.3750  0.3755
10801TIP3    H153894   2.580   5.172  14.140  0.6077  0.0938 -0.2087
10801TIP3    H253895   2.585   5.056  14.237  0.9508  0.2900  0.0075
10802TIP3   OH253896   5.812   5.185  14.776 -0.5033  0.5919 -0.0232
10802TIP3    H153897   5.899   5.151  14.757 -0.2496  1.6219 -0.7971
10802TIP3    H253898   5.784   5.138  14.854 -0.2399 -1.4526 -1.0993
10803TIP3   OH253899   1.023   4.082  14.377 -0.0741 -0.6429  0.0794
10803TIP3    H153900   1.016   4.159  14.321  0.7659 -0.7016 -0.1245
10803TIP3    H253901   1.062   4.115  14.458 -1.7853 -0.4580  0.8667
10804TIP3   OH253902   4.090   4.848   2.320 -0.2003 -0.4414  0.7361
10804TIP3    H153903   4.135   4.764   2.328  0.6449  0.0371  1.2292
10804TIP3    H253904   4.106   4.875   2.230  0.6059 -0.2368  0.9302
10805TIP3   OH253905   2.916   0.383  11.320 -0.1780 -0.0145  0.1228
10805TIP3    H153906   2.933   0.476  11.303 -1.9428  0.1710 -0.9605
10805TIP3    H253907   2.905   0.376  11.415  1.1432  0.6542  0.3307
10806TIP3   OH253908   4.022   5.656  11.102  0.5309 -0.3215 -0.0357
10806TIP3    H153909   3.952   5.677  11.164 -0.3787  1.0456 -1.4368
10806TIP3    H253910   3.978   5.610  11.030  1.0262  0.5816 -0.9491
10807TIP3   OH253911   5.281   5.707   4.821 -0.1626  0.0034  0.3470
10807TIP3    H153912   5.367   5.699   4.779 -1.1631 -0.4554 -1.7600
10807TIP3    H253913   5.242   5.785   4.781 -0.8251  0.0889  1.1285
10808TIP3   OH253914   2.690   3.167  12.961 -0.1520 -0.6678  0.3465
10808TIP3    H153915   2.675   3.087  13.012 -1.0146 -0.0860  1.0400
10808TIP3    H253916   2.769   3.205  12.999 -0.6513 -0.3667  1.1292
10809TIP3   OH253917   4.825   2.596   2.707  0.6442  1.2810  0.2287
10809TIP3    H153918   4.807   2.684   2.675 -0.2089  1.8585  2.1914
10809TIP3    H253919   4.845   2.607   2.800 -0.8571 -0.7149  0.8585
10810TIP3   OH253920   2.303   0.027   6.127 -0.1660  0.5897 -0.8194
10810TIP3    H153921   2.256   0.110   6.114  2.0614  2.0636 -0.0146
10810TIP3    H253922   2.283   0.003   6.218  0.9999  1.5277 -0.2823
10811TIP3   OH253923   0.060   3.038   0.421  0.4107 -0.3748  0.3753
10811TIP3    H153924   0.132   3.071   0.368 -0.2249 -1.5626 -1.3042
10811TIP3    H253925  -0.017   3.045   0.365 -1.2832  2.6840  2.7287
10812TIP3   OH253926   4.083   6.745   3.511  0.1791 -0.2679 -0.4638
10812TIP3    H153927   4.085   6.672   3.450 -0.7281  0.6570 -1.6365
10812TIP3    H253928   4.125   6.817   3.464 -3.0945  1.3159 -1.2281
10813TIP3   OH253929   0.685   0.515   5.742 -0.3027  0.0839 -0.5115
10813TIP3    H153930   0.729   0.486   5.662  2.3322 -2.7793  1.7138
10813TIP3    H253931   0.755   0.550   5.796 -1.3789 -1.1058  1.7672
10814TIP3   OH253932   4.663   4.766   1.675 -0.0022 -0.4504  0.1809
10814TIP3    H153933   4.756   4.752   1.693 -0.0013  0.1078  0.6555
10814TIP3    H253934   4.624   4.679   1.680  0.4386 -0.6417  0.3173
10815TIP3   OH253935   2.766   6.047  12.595  0.4413 -0.0239  0.0457
10815TIP3    H153936   2.839   6.010  12.545 -1.1663 -0.0287 -2.4490
10815TIP3    H253937   2.687   6.012  12.552 -1.0701  0.6361  2.1247
10816TIP3   OH253938   5.059   1.044   0.541  0.4538  0.7026 -0.6356
10816TIP3    H153939   5.083   1.005   0.625 -2.4668 -0.4266 -0.2133
10816TIP3    H253940   5.020   1.129   0.564  1.5382  1.3280 -1.0547
10817TIP3   OH253941   2.732   4.685   3.984 -0.1457  0.0892 -0.0927
10817TIP3    H153942   2.782   4.680   4.065 -1.2561  0.2066  0.6083
10817TIP3    H253943   2.742   4.776   3.956  2.5106 -0.5401 -1.6057
10818TIP3   OH253944   0.636   1.094  12.435  0.2352  0.6235  0.1130
10818TIP3    H153945   0.648   0.999  12.432  0.0555  0.4467  2.6643
10818TIP3    H253946   0.609   1.118  12.346  0.2729 -1.7044 -0.5891
10819TIP3   OH253947   3.942   1.441  16.795 -0.2381 -0.3556  0.4916
10819TIP3    H153948   3.915   1.361  16.840 -1.2920  0.6049  1.6342
10819TIP3    H253949   3.988   1.491  16.862  0.6627 -0.1059 -0.2931
10820TIP3   OH253950   6.162   0.217  14.342  0.3881  0.1549 -0.4603
10820TIP3    H153951   6.221   0.171  14.283  2.4994  1.0883  0.8348
10820TIP3    H253952   6.151   0.304  14.302  1.7984  0.7786  0.4226
10821TIP3   OH253953   2.841   5.783   3.832 -0.2047 -0.2281  0.1177
10821TIP3    H153954   2.748   5.763   3.821 -0.4695  0.6819  0.6174
10821TIP3    H253955   2.860   5.761   3.923 -0.2502  0.7752  0.3790
10822TIP3   OH253956   6.543   3.956   4.087 -0.0061  0.4594 -0.2837
10822TIP3    H153957   6.449   3.955   4.071 -0.4936  0.7021  2.2457
10822TIP3    H253958   6.563   4.047   4.110  0.1893 -0.1682  2.3300
10823TIP3   OH253959   5.136   5.458  16.832 -0.0034  0.1915 -0.2741
10823TIP3    H153960   5.224   5.421  16.842  0.2910  1.0256  0.3430
10823TIP3    H253961   5.117   5.451  16.739  1.5137  1.7179 -0.7501
10824TIP3   OH253962   2.923   0.957   0.982 -0.1606 -0.0600 -0.0557
10824TIP3    H153963   2.833   0.941   0.954 -0.1982 -0.4158  0.2549
10824TIP3    H253964   2.914   1.007   1.064 -0.1110 -1.2682  0.7039
10825TIP3   OH253965   1.953   0.292  14.829  0.1063  0.4982  0.2948
10825TIP3    H153966   2.020   0.285  14.897 -0.8619 -1.3507  1.1110
10825TIP3    H253967   1.891   0.357  14.863  0.6135  0.9918  0.2888
10826TIP3   OH253968   0.688   3.041   3.854 -0.1670 -0.1378 -0.0236
10826TIP3    H153969   0.739   3.022   3.776 -0.0565  0.2788 -0.0528
10826TIP3    H253970   0.750   3.080   3.915 -0.6671  1.4266 -0.4672
10827TIP3   OH253971   3.876   2.112   0.135 -0.1211  0.3991 -1.1056
10827TIP3    H153972   3.899   2.032   0.088 -0.9076 -0.1014 -0.6733
10827TIP3    H253973   3.945   2.174   0.113 -0.0425 -0.0759 -2.2606
10828TIP3   OH253974   4.868   2.333   5.682  0.4087  0.2211  0.4385
10828TIP3    H153975   4.794   2.272   5.684  0.4236  0.2226  1.2839
10828TIP3    H253976   4.938   2.288   5.729  1.6605 -0.6449 -2.0920
10829TIP3   OH253977   6.558   0.487  14.739 -0.7152  0.2940 -0.2153
10829TIP3    H153978   6.592   0.555  14.679 -0.2737  0.3452  0.0895
10829TIP3    H253979   6.483   0.529  14.782 -0.1960  0.7397  0.2735
10830TIP3   OH253980   6.495   3.400  16.309  0.0188 -0.3540  0.1889
10830TIP3    H153981   6.560   3.459  16.347  0.3105 -0.5408 -0.0157
10830TIP3    H253982   6.440   3.457  16.255  0.0915 -0.2161  0.2585
10831TIP3   OH253983   5.833   0.625   4.419  0.1882 -0.4928 -0.1525
10831TIP3    H153984   5.928   0.638   4.418 -0.0815  1.7124 -0.5787
10831TIP3    H253985   5.798   0.700   4.467 -1.4613 -0.1906 -1.7121
10832TIP3   OH253986   4.970   3.196   2.831  0.4055  0.4108  0.5830
10832TIP3    H153987   4.946   3.289   2.825 -1.3626 -0.0638 -0.9437
10832TIP3    H253988   4.910   3.160   2.896 -0.1823  0.0101 -0.1665
10833TIP3   OH253989   1.367   4.153  14.949  0.3645 -0.0369 -0.2986
10833TIP3    H153990   1.397   4.104  15.025  0.2098  0.6071  0.1810
10833TIP3    H253991   1.433   4.135  14.882 -0.1574 -1.6311 -0.4379
10834TIP3   OH253992   5.742   6.081  16.092  0.6831 -0.0699  0.2409
10834TIP3    H153993   5.665   6.106  16.143  0.5478 -0.7275  0.3624
10834TIP3    H253994   5.730   5.988  16.074  0.8396  0.0959 -0.8045
10835TIP3   OH253995   2.451   4.435  10.805 -0.5926  0.6097  0.1748
10835TIP3    H153996   2.362   4.467  10.796 -0.5500  1.2995  1.7943
10835TIP3    H253997   2.466   4.381  10.728 -2.1223  1.1433 -0.5199
10836TIP3   OH253998   3.830   4.627  12.922 -0.1139 -0.1500  0.5957
10836TIP3    H153999   3.841   4.532  12.918  2.2583 -0.0032  1.7472
10836TIP3    H254000   3.738   4.639  12.948 -1.1272 -2.0052 -1.7528
10837TIP3   OH254001   2.998   5.210  14.159 -0.2436 -0.6143 -0.3573
10837TIP3    H154002   2.967   5.283  14.213  2.3293  0.6610 -0.4279
10837TIP3    H254003   2.993   5.243  14.069  1.0886 -0.4156 -0.3783
10838TIP3   OH254004   6.128   0.572   2.008  0.4902 -0.0053 -0.5433
10838TIP3    H154005   6.126   0.658   1.967 -1.9412 -0.5432 -1.7953
10838TIP3    H254006   6.149   0.589   2.100  0.6112  1.8526 -0.8778
10839TIP3   OH254007   3.281   3.410  14.688 -0.1605 -0.3714 -0.8553
10839TIP3    H154008   3.290   3.505  14.682 -0.3923 -0.2963 -0.1000
10839TIP3    H254009   3.327   3.377  14.611  1.3813  0.2742 -0.2569
10840TIP3   OH254010   0.051   4.468   2.606 -0.6490 -0.1731 -0.8814
10840TIP3    H154011   0.135   4.479   2.652 -0.1211  0.3444 -1.9316
10840TIP3    H254012  -0.008   4.530   2.649 -0.4547 -0.3989 -0.2652
10841TIP3   OH254013   3.294   1.740   2.020  0.1044 -0.3865 -0.0824
10841TIP3    H154014   3.292   1.709   2.111  0.0800 -0.5067 -0.1242
10841TIP3    H254015   3.202   1.738   1.992  0.0483  0.1033  0.0427
10842TIP3   OH254016   2.385   5.419   2.515  0.2751 -0.4683  0.5750
10842TIP3    H154017   2.314   5.399   2.454  0.3828  0.6566  0.0465
10842TIP3    H254018   2.460   5.437   2.459  0.3610  0.6447  1.0192
10843TIP3   OH254019   1.060   0.352  15.157  0.2476 -0.6021  0.0184
10843TIP3    H154020   1.152   0.336  15.136  0.8061 -1.0234  2.3944
10843TIP3    H254021   1.056   0.445  15.177 -0.1549 -0.3132 -1.3410
10844TIP3   OH254022   4.989   0.556  14.586 -0.1883 -0.1189  0.0871
10844TIP3    H154023   4.937   0.476  14.579 -0.4642  0.0019  0.7545
10844TIP3    H254024   5.058   0.535  14.649 -0.2217  0.1473  0.2132
10845TIP3   OH254025   3.426   1.073  15.097 -0.1587  0.0423  0.1611
10845TIP3    H154026   3.521   1.076  15.085 -0.1553 -0.4964  0.0093
10845TIP3    H254027   3.392   1.045  15.011 -0.3669 -0.8779  0.5305
10846TIP3   OH254028   1.589   2.772  12.921  0.1350 -0.2878  0.9918
10846TIP3    H154029   1.583   2.679  12.899 -0.8897 -0.1821  0.7918
10846TIP3    H254030   1.641   2.810  12.850 -1.8584 -0.2163 -0.5140
10847TIP3   OH254031   1.058   2.729   4.306 -0.4910  0.3633  0.2871
10847TIP3    H154032   1.083   2.696   4.393  0.3419 -0.0732 -0.1046
10847TIP3    H254033   0.996   2.665   4.272 -1.1050  0.7262  0.6995
10848TIP3   OH254034   5.620   0.827  14.282 -0.6086 -0.4631 -0.0515
10848TIP3    H154035   5.669   0.900  14.320 -1.7507  0.8044 -0.9443
10848TIP3    H254036   5.594   0.774  14.357  1.4309 -0.7448  0.5028
10849TIP3   OH254037   5.832   4.832   3.679 -0.4108 -0.1115  0.2639
10849TIP3    H154038   5.795   4.815   3.592 -2.0298  1.4523  0.5922
10849TIP3    H254039   5.793   4.765   3.735  1.4956 -1.8387 -0.3364
10850TIP3   OH254040   2.600   5.512   1.911  0.1139  0.6878  0.0624
10850TIP3    H154041   2.574   5.432   1.956  0.8062  0.3634 -0.1017
10850TIP3    H254042   2.535   5.523   1.842 -0.1757  0.4501  0.2958
10851TIP3   OH254043   2.285   5.228  15.293  0.4311 -0.1730  0.0258
10851TIP3    H154044   2.304   5.160  15.229  0.8633  0.2014 -0.2494
10851TIP3    H254045   2.191   5.219  15.311 -0.3201  1.3453 -2.5918
10852TIP3   OH254046   6.043   2.618  14.590  0.2976  0.3526  0.0464
10852TIP3    H154047   6.128   2.601  14.631 -0.6494 -2.1707  1.1661
10852TIP3    H254048   6.018   2.535  14.550 -1.7261  0.9594 -0.0755
10853TIP3   OH254049   3.621   4.568   0.238 -0.4014  0.0659 -0.2758
10853TIP3    H154050   3.651   4.477   0.229 -1.5752 -0.4315  0.4776
10853TIP3    H254051   3.685   4.608   0.297 -0.4195 -0.5823  0.2075
10854TIP3   OH254052   4.860   0.556   3.627  0.7697 -0.4233  0.4367
10854TIP3    H154053   4.928   0.623   3.624  1.6997 -1.3325 -2.4074
10854TIP3    H254054   4.879   0.506   3.706  1.5559  1.1139  1.2771
10855TIP3   OH254055   1.197   6.099   0.447  0.3496  0.5420  0.8195
10855TIP3    H154056   1.189   6.040   0.522  1.4734 -0.6057  0.0849
10855TIP3    H254057   1.234   6.044   0.377  0.0415  1.7614 -0.3498
10856TIP3   OH254058   3.323   4.301  11.508 -0.0416  0.8573 -0.1747
10856TIP3    H154059   3.360   4.261  11.430 -1.0854 -0.4499 -0.0355
10856TIP3    H254060   3.248   4.246  11.530  0.8260  0.5483  2.3474
10857TIP3   OH254061   1.273   3.472   4.766  0.4689  0.4398  0.4570
10857TIP3    H154062   1.230   3.556   4.749 -0.2729  0.3088  1.6096
10857TIP3    H254063   1.201   3.409   4.767  1.1593 -0.4888 -1.8646
10858TIP3   OH254064   5.179   5.534   0.203  0.3374 -0.1944  0.0520
10858TIP3    H154065   5.130   5.576   0.274  0.0162  0.0637 -0.3142
10858TIP3    H254066   5.271   5.540   0.230  0.1166 -1.5666  1.2146
10859TIP3   OH254067   2.914   3.299   5.165  0.1559 -0.1707  0.3912
10859TIP3    H154068   2.883   3.255   5.245 -3.0548  2.7056  0.9475
10859TIP3    H254069   2.857   3.266   5.096 -1.1764  1.7383  0.5112
10860TIP3   OH254070   2.571   5.653   4.929  0.3604  0.8277 -0.1499
10860TIP3    H154071   2.522   5.576   4.902 -0.1279  0.3794  1.8187
10860TIP3    H254072   2.648   5.617   4.975  0.1026  1.4868  0.8281
10861TIP3   OH254073   2.819   4.011  17.258  0.2157  0.6563 -0.0807
10861TIP3    H154074   2.753   4.060  17.307 -0.5933  0.3365 -0.8350
10861TIP3    H254075   2.877   4.078  17.223  1.3143  0.8643  1.9644
10862TIP3   OH254076   2.346   4.837   3.887 -0.0618  0.2381 -0.2749
10862TIP3    H154077   2.262   4.839   3.842  0.1400  1.0778 -0.6208
10862TIP3    H254078   2.399   4.903   3.843  0.8083 -0.3239 -0.1083
10863TIP3   OH254079   2.122   4.614   3.623  0.1484  0.3468 -0.4994
10863TIP3    H154080   2.128   4.519   3.616  2.8618  0.2681  1.3312
10863TIP3    H254081   2.179   4.647   3.553 -1.6373  0.7404 -1.8419
10864TIP3   OH254082   3.119   1.884   2.918 -0.0702 -0.0149 -0.2148
10864TIP3    H154083   3.152   1.912   2.833  1.3674  0.9705  0.6218
10864TIP3    H254084   3.197   1.867   2.970 -0.9099 -1.5428  0.6511
10865TIP3   OH254085   3.736   1.472  15.862 -0.4221  0.5597 -0.7686
10865TIP3    H154086   3.815   1.476  15.808 -0.1506 -0.7535 -0.4995
10865TIP3    H254087   3.769   1.455  15.950 -1.0536 -3.7352 -1.1495
10866TIP3   OH254088   0.656   3.668   5.834  0.3678 -0.1552 -0.1879
10866TIP3    H154089   0.642   3.659   5.740 -0.4266  0.1321 -0.0972
10866TIP3    H254090   0.623   3.755   5.856 -1.2157 -0.9374  0.6813
10867TIP3   OH254091   4.580   0.582  15.416  0.2641  0.4728 -0.1618
10867TIP3    H154092   4.610   0.524  15.486 -1.2842  3.4842  3.2839
10867TIP3    H254093   4.659   0.604  15.367  1.5905 -0.9140  1.2715
10868TIP3   OH254094   3.111   5.981  11.543  0.6620 -0.3996  0.2902
10868TIP3    H154095   3.057   5.927  11.484  0.3131 -0.0462  0.2815
10868TIP3    H254096   3.088   6.071  11.521  0.9978 -0.2533  0.5338
10869TIP3   OH254097   6.773   1.454  12.921  0.6167 -0.5460 -0.0988
10869TIP3    H154098   6.694   1.505  12.935 -1.0725 -2.7128 -1.0844
10869TIP3    H254099   6.756   1.406  12.839  2.2402 -2.3108  0.5231
10870TIP3   OH254100   5.663   1.784  13.397 -0.2728 -0.1460 -0.1052
10870TIP3    H154101   5.749   1.744  13.407 -0.9260 -1.9633 -1.2893
10870TIP3    H254102   5.607   1.738  13.459 -1.2208 -1.7668 -2.0638
10871TIP3   OH254103   4.351   1.428   4.002  0.0139  0.3591  0.4674
10871TIP3    H154104   4.383   1.440   4.092  1.3817  0.4432  0.0031
10871TIP3    H254105   4.259   1.405   4.012 -0.0315  1.0243  1.8608
10872TIP3   OH254106   3.024   2.206  15.281  0.0187 -0.0443  0.3997
10872TIP3    H154107   3.023   2.151  15.203 -2.9481 -0.7259  0.8003
10872TIP3    H254108   3.075   2.155  15.345  2.5396  0.5625 -1.0186
10873TIP3   OH254109   0.857   6.304   1.598 -0.2679  0.2388  0.2704
10873TIP3    H154110   0.932   6.264   1.553  0.5015  0.9106  0.9089
10873TIP3    H254111   0.897   6.364   1.662 -1.3211 -0.2202  1.4072
10874TIP3   OH254112   2.247   0.981   4.148 -0.4657 -0.0916  0.1327
10874TIP3    H154113   2.256   1.069   4.185  0.3610 -0.8542  1.8396
10874TIP3    H254114   2.171   0.988   4.089 -2.0757  1.1693  2.1920
10875TIP3   OH254115   5.652   0.933   1.195  0.5972 -0.1230  0.6742
10875TIP3    H154116   5.708   0.858   1.215  0.1785 -2.0287 -4.0675
10875TIP3    H254117   5.563   0.902   1.215  0.5250 -0.5051 -0.2017
10876TIP3   OH254118   5.475   6.454   4.428  0.0374  0.4826 -0.0723
10876TIP3    H154119   5.491   6.508   4.505 -0.6553  0.8865 -0.2031
10876TIP3    H254120   5.532   6.491   4.361  0.8236 -0.0223  0.3010
10877TIP3   OH254121   3.746   2.109  14.959 -0.8208  0.6649 -0.2604
10877TIP3    H154122   3.674   2.123  14.898 -2.2532 -3.5505  0.1071
10877TIP3    H254123   3.704   2.108  15.046  0.1674  0.8847  0.2348
10878TIP3   OH254124   6.713   1.144  12.347 -0.4132 -0.8940 -0.7445
10878TIP3    H154125   6.747   1.229  12.376 -1.8341 -0.1856 -1.0979
10878TIP3    H254126   6.665   1.164  12.266 -2.4700 -1.6777  0.2177
10879TIP3   OH254127   1.233   1.015  16.833 -0.3586  0.1291  0.4710
10879TIP3    H154128   1.311   0.998  16.780 -0.6079 -1.1368  0.4682
10879TIP3    H254129   1.177   0.939  16.817 -1.0717  0.4455  1.4097
10880TIP3   OH254130   2.775   5.107   4.687  0.1373  0.0405  0.2935
10880TIP3    H154131   2.771   5.074   4.597 -0.7170  0.4894  0.1613
10880TIP3    H254132   2.730   5.040   4.739 -0.1151  0.1878  0.2653
10881TIP3   OH254133   3.807   1.206   1.579 -0.1257 -0.1907  0.7574
10881TIP3    H154134   3.747   1.269   1.619 -1.0894 -0.4240 -0.2615
10881TIP3    H254135   3.751   1.135   1.550  0.8744 -1.2597  1.3450
10882TIP3   OH254136   3.669   6.192  14.656  0.0581 -0.2581  0.0035
10882TIP3    H154137   3.672   6.288  14.663 -0.2628 -0.1527 -1.1340
10882TIP3    H254138   3.584   6.174  14.616  0.9021 -0.8861 -1.5918
10883TIP3   OH254139   4.727   3.741   5.462 -0.5050  0.4939 -0.2060
10883TIP3    H154140   4.821   3.749   5.473 -0.5327  0.8709 -0.2278
10883TIP3    H254141   4.697   3.699   5.543 -0.5012  1.7370  0.4675
10884TIP3   OH254142   2.372   3.696   3.470  0.1146  0.3342  0.3286
10884TIP3    H154143   2.455   3.742   3.459 -0.3992  0.6751 -2.8854
10884TIP3    H254144   2.373   3.629   3.402 -2.1352  0.1786  0.3876
10885TIP3   OH254145   4.232   6.308   4.407  0.8545  0.1214  0.1030
10885TIP3    H154146   4.176   6.368   4.357  0.1225 -0.4350  0.2310
10885TIP3    H254147   4.321   6.339   4.391  0.5472  0.6969 -0.5507
10886TIP3   OH254148   6.804   4.403   0.232 -0.4383  0.1664  0.1788
10886TIP3    H154149   6.852   4.383   0.312 -2.4460  2.5403  2.1315
10886TIP3    H254150   6.714   4.376   0.249 -1.5863  3.4860  0.0774
10887TIP3   OH254151   2.135   1.409  12.516  0.3132 -0.4844  0.4212
10887TIP3    H154152   2.166   1.366  12.436 -1.1810 -0.4445 -0.2084
10887TIP3    H254153   2.041   1.391  12.518 -0.5448  3.1800 -0.1582
10888TIP3   OH254154   4.635   4.694   4.077  0.0410 -0.1633 -0.6350
10888TIP3    H154155   4.663   4.612   4.118  1.6430  0.5564 -0.2159
10888TIP3    H254156   4.559   4.722   4.128 -0.4746 -1.3200 -0.7277
10889TIP3   OH254157   0.607   0.109   2.305  0.0986 -0.3301  0.5457
10889TIP3    H154158   0.659   0.180   2.343  1.0421 -1.4874  1.5228
10889TIP3    H254159   0.523   0.114   2.349  0.2851 -0.0398  0.8750
10890TIP3   OH254160   6.594   2.522  13.643 -0.0414  0.0864  0.5389
10890TIP3    H154161   6.507   2.542  13.607 -0.7669 -0.5174  1.8914
10890TIP3    H254162   6.637   2.608  13.649 -0.0704  0.2727 -1.2194
10891TIP3   OH254163   0.765   6.648  15.153 -0.2247  0.0787  0.0032
10891TIP3    H154164   0.838   6.646  15.091  1.5455  0.1515  1.9725
10891TIP3    H254165   0.805   6.633  15.238 -2.6668 -0.8283  1.0862
10892TIP3   OH254166   0.348   1.265   5.049 -0.5660  0.1112 -0.5537
10892TIP3    H154167   0.350   1.301   4.961 -1.2307 -0.2245 -0.7125
10892TIP3    H254168   0.273   1.308   5.091  0.2130  0.8673  0.1162
10893TIP3   OH254169   2.887   2.838  14.414  0.1303  0.3270  0.3757
10893TIP3    H154170   2.901   2.925  14.377  0.9322 -0.0445 -0.2202
10893TIP3    H254171   2.957   2.784  14.376  1.2102  0.0009  2.6789
10894TIP3   OH254172   4.884   3.651   4.237  1.0074 -0.1622 -0.2701
10894TIP3    H154173   4.870   3.745   4.238 -1.1043 -0.3475 -2.2814
10894TIP3    H254174   4.929   3.632   4.319 -3.1338  1.9667  2.8577
10895TIP3   OH254175   2.982   0.570   0.215 -0.7792 -0.3413 -0.3805
10895TIP3    H154176   2.954   0.570   0.123 -1.4199 -0.2035 -0.1927
10895TIP3    H254177   2.903   0.546   0.264 -0.5773  0.1097  0.1770
10896TIP3   OH254178   4.963   3.971   4.945  0.6213  0.3024 -0.1956
10896TIP3    H154179   5.035   4.030   4.967 -1.2378  2.4523  0.4609
10896TIP3    H254180   4.884   4.017   4.975 -1.1414 -1.4361 -1.8968
10897TIP3   OH254181   4.441   6.385   0.803 -0.6539 -0.3738  0.1816
10897TIP3    H154182   4.415   6.445   0.733 -0.9044 -0.5472  0.1235
10897TIP3    H254183   4.360   6.365   0.849 -0.6119 -0.8383  0.0625
10898TIP3   OH254184   0.593   1.992   5.862 -0.6019 -1.1053 -0.2299
10898TIP3    H154185   0.649   2.023   5.933 -0.4974 -3.2810  0.6918
10898TIP3    H254186   0.654   1.952   5.799 -0.9832 -2.5802  0.2992
10899TIP3   OH254187   3.843   2.728  10.610 -0.6772 -0.3276  0.7075
10899TIP3    H154188   3.883   2.642  10.597 -0.2649 -0.0316 -0.0476
10899TIP3    H254189   3.904   2.789  10.569 -0.6838  0.3912  1.7236
10900TIP3   OH254190   3.649   3.685   6.349  0.6598  0.2079 -0.0013
10900TIP3    H154191   3.627   3.596   6.321 -1.0925  0.4368  0.5063
10900TIP3    H254192   3.737   3.700   6.315  0.3152 -1.0850 -1.5755
10901TIP3   OH254193   4.473   1.340  13.667 -0.4335 -0.5996  0.5147
10901TIP3    H154194   4.380   1.322  13.680 -1.1714  2.7651  1.0247
10901TIP3    H254195   4.483   1.346  13.572 -0.1650 -3.1465  0.3331
10902TIP3   OH254196   5.752   0.173   6.438 -0.1817  0.4681  0.0182
10902TIP3    H154197   5.839   0.137   6.422  0.7443  1.6169  2.1531
10902TIP3    H254198   5.709   0.109   6.495 -0.6607  0.0556 -0.7788
10903TIP3   OH254199   3.665   5.925  12.290 -0.2338  0.2403  0.2284
10903TIP3    H154200   3.579   5.891  12.314 -1.0171  0.8746 -1.5160
10903TIP3    H254201   3.727   5.870  12.339 -1.5890 -0.6384  1.0350
10904TIP3   OH254202   4.970   3.731  15.031  0.0431  0.1959 -0.2389
10904TIP3    H154203   4.959   3.636  15.034 -0.7428  0.2948  0.0396
10904TIP3    H254204   5.064   3.744  15.044  0.8327 -0.7155 -3.8400
10905TIP3   OH254205   0.086   1.424  13.426 -0.1591 -0.0643  0.7331
10905TIP3    H154206   0.059   1.499  13.479 -0.9862  0.3572 -0.2368
10905TIP3    H254207   0.180   1.416  13.440  0.3829  2.5938 -0.8796
10906TIP3   OH254208   3.184   4.268  14.193 -0.1203 -0.2539 -0.3708
10906TIP3    H154209   3.249   4.280  14.262  0.5647 -1.2307 -0.8219
10906TIP3    H254210   3.224   4.309  14.116 -0.2840 -0.3549 -0.5108
10907TIP3   OH254211   6.705   1.035  12.866 -0.1435 -0.1843 -0.5083
10907TIP3    H154212   6.699   1.031  12.770  2.1995 -3.3972 -0.6783
10907TIP3    H254213   6.620   1.002  12.896 -0.0836 -1.4593 -1.6092
10908TIP3   OH254214   2.695   2.752  13.808  0.1474 -0.2605 -0.2183
10908TIP3    H154215   2.676   2.772  13.899 -0.0783 -0.5593 -0.1988
10908TIP3    H254216   2.710   2.658  13.806 -1.0158 -0.4561 -0.6722
10909TIP3   OH254217   3.043   6.595   1.032 -0.2823  0.4363  0.3394
10909TIP3    H154218   2.969   6.634   0.984 -0.0214  2.3760  1.4162
10909TIP3    H254219   3.120   6.643   1.001  0.5997 -1.5440 -0.7471
10910TIP3   OH254220   3.561   5.231   1.198 -1.0248 -0.5770 -0.5720
10910TIP3    H154221   3.559   5.225   1.294 -0.7323  2.7519 -0.2338
10910TIP3    H254222   3.493   5.171   1.169 -1.4051 -1.3872  1.7191
10911TIP3   OH254223   6.635   2.712  16.561 -0.0889 -0.6190 -0.3353
10911TIP3    H154224   6.581   2.763  16.501 -0.1219 -1.3203 -0.9076
10911TIP3    H254225   6.676   2.645  16.506  3.8563  1.7333 -0.6030
10912TIP3   OH254226   2.852   2.549   4.080  0.5917  0.4074  0.4627
10912TIP3    H154227   2.909   2.474   4.062  1.9346  0.8980  2.3723
10912TIP3    H254228   2.795   2.554   4.003  1.1485 -1.9102 -0.1969
10913TIP3   OH254229   1.116   1.486  13.123  0.6245  0.1158  0.4391
10913TIP3    H154230   1.127   1.420  13.055 -1.0645 -0.7124  0.9145
10913TIP3    H254231   1.193   1.542  13.115  0.3658  0.2116 -2.3180
10914TIP3   OH254232   2.303   3.709   4.272  0.2716  0.4285  0.2367
10914TIP3    H154233   2.229   3.763   4.299 -0.7877 -0.4262 -0.8704
10914TIP3    H254234   2.360   3.769   4.224  0.6788  1.2542  1.7068
10915TIP3   OH254235   4.035   5.882   3.812  0.0978 -0.1846 -0.2350
10915TIP3    H154236   4.067   5.871   3.902 -0.5250 -1.3564 -0.1430
10915TIP3    H254237   4.076   5.964   3.783 -0.5713  0.8345  1.4917
10916TIP3   OH254238   2.876   2.468  13.157  0.1013  0.2158 -0.3092
10916TIP3    H154239   2.905   2.558  13.172  0.4767  0.0029  0.2936
10916TIP3    H254240   2.801   2.457  13.216  0.2323  0.0477 -0.1718
10917TIP3   OH254241   5.213   3.614  11.084  0.0951  0.3342  0.3042
10917TIP3    H154242   5.288   3.673  11.086  0.3223  0.1786 -1.5969
10917TIP3    H254243   5.138   3.670  11.105  0.4720  1.0310 -0.1623
10918TIP3   OH254244   2.923   1.526   1.447  0.5988  0.0318  0.0383
10918TIP3    H154245   3.016   1.535   1.423  0.8892  0.8128  1.3259
10918TIP3    H254246   2.876   1.570   1.377  1.3088  0.9313  0.1028
10919TIP3   OH254247   1.527   1.529   3.402 -0.1537 -0.0441 -0.0477
10919TIP3    H154248   1.614   1.493   3.390 -0.6151 -1.9753  1.8578
10919TIP3    H254249   1.536   1.590   3.476 -0.8223 -2.2146  1.9404
10920TIP3   OH254250   0.039   0.036   3.076  0.0343 -0.2070 -0.5420
10920TIP3    H154251   0.109   0.101   3.069 -1.3693  1.2986 -1.3712
10920TIP3    H254252   0.085  -0.048   3.081  1.9023  0.7764 -0.0672
10921TIP3   OH254253   2.149   6.686   1.894 -0.2584  0.2947  0.1147
10921TIP3    H154254   2.058   6.714   1.905  0.2070  1.8599  0.2831
10921TIP3    H254255   2.200   6.749   1.946  0.9642 -0.1767 -0.4678
10922TIP3   OH254256   2.072   1.075  12.952  0.1559  0.1541 -0.3002
10922TIP3    H154257   2.031   1.084  12.866  1.7615  0.7755 -1.0305
10922TIP3    H254258   2.155   1.031  12.935  0.5033  0.2892  0.9360
10923TIP3   OH254259   0.145   2.428   5.794 -0.1557 -0.1356  0.1467
10923TIP3    H154260   0.065   2.447   5.844 -0.6374 -0.6203 -0.4326
10923TIP3    H254261   0.143   2.334   5.780 -0.9108  0.1777 -2.2376
10924TIP3   OH254262   5.693   0.584   4.680 -0.3841  0.6301  0.5021
10924TIP3    H154263   5.652   0.653   4.628 -0.0390 -0.3646 -1.2133
10924TIP3    H254264   5.762   0.550   4.622  1.3423  0.7352  2.3964
10925TIP3   OH254265   2.685   0.007  16.350  0.2543 -0.5271 -0.0501
10925TIP3    H154266   2.637   0.088  16.330  2.0570  0.3709 -1.0312
10925TIP3    H254267   2.636  -0.033  16.422 -1.0185  1.1443  0.0800
10926TIP3   OH254268   2.588   5.358  10.447 -0.2613 -0.4043  0.2158
10926TIP3    H154269   2.673   5.397  10.425 -0.0679 -0.8974  0.0640
10926TIP3    H254270   2.548   5.419  10.508 -0.4107  0.5554 -0.8058
10927TIP3   OH254271   4.649   0.434  13.144  0.5645 -0.1606 -0.3629
10927TIP3    H154272   4.609   0.516  13.114  2.5784  1.4280  0.9914
10927TIP3    H254273   4.741   0.441  13.117  1.4600 -0.5821  2.2658
10928TIP3   OH254274   5.708   4.427  10.614  0.1981 -0.1511  0.2371
10928TIP3    H154275   5.742   4.421  10.524  1.3015  0.7800  0.5592
10928TIP3    H254276   5.631   4.371  10.615  0.2796 -0.3235 -1.2482
10929TIP3   OH254277   6.271   6.151   0.337 -0.3620 -0.2400 -0.3660
10929TIP3    H154278   6.217   6.212   0.287 -0.7100 -0.2680 -0.0264
10929TIP3    H254279   6.215   6.075   0.352 -0.8913  0.4577  1.5578
10930TIP3   OH254280   0.370   1.493   3.803  0.4177  0.2396  0.2288
10930TIP3    H154281   0.463   1.480   3.782  1.1701  1.0441  2.6902
10930TIP3    H254282   0.371   1.531   3.891 -2.2615  0.5333  0.2000
10931TIP3   OH254283   2.328   3.486  16.675 -0.6028  0.1224 -0.6130
10931TIP3    H154284   2.343   3.411  16.618 -1.1875  0.0300 -0.6561
10931TIP3    H254285   2.403   3.544  16.661  1.2391 -1.6129  1.3641
10932TIP3   OH254286   4.824   0.218   5.571 -0.0301  0.0430  0.8013
10932TIP3    H154287   4.863   0.294   5.614  0.0635  1.0837 -1.0291
10932TIP3    H254288   4.740   0.250   5.537  0.3413 -0.4140 -0.6405
10933TIP3   OH254289   5.469   1.609  12.987  1.1939 -0.3772  0.2252
10933TIP3    H154290   5.464   1.513  12.981  0.9536 -0.3349 -0.2938
10933TIP3    H254291   5.378   1.638  12.977  1.2337 -0.1035  0.6356
10934TIP3   OH254292   0.651   1.326   2.364  0.6018  0.1651  0.4247
10934TIP3    H154293   0.581   1.363   2.419  0.7929  0.9974  0.1082
10934TIP3    H254294   0.631   1.357   2.276  1.1580  0.0820  0.2684
10935TIP3   OH254295   0.234   3.165  12.695 -0.0245  0.2621 -0.4722
10935TIP3    H154296   0.196   3.215  12.767 -1.9213 -0.3283 -1.0193
10935TIP3    H254297   0.187   3.195  12.618 -1.0682 -2.1729 -0.8516
10936TIP3   OH254298   5.715   6.366  16.004  0.2609  0.2172 -0.6637
10936TIP3    H154299   5.661   6.315  15.944 -1.1066  0.0089  0.6939
10936TIP3    H254300   5.803   6.330  15.994 -0.1989 -0.6912 -1.5650
10937TIP3   OH254301   1.941   2.666   1.186  0.6061 -0.1409 -0.0353
10937TIP3    H154302   1.951   2.579   1.148  4.5861  0.4554 -0.8305
10937TIP3    H254303   1.992   2.663   1.267 -0.7076  0.9878  0.8801
10938TIP3   OH254304   4.555   5.804   2.190  0.1536  0.0696  0.0359
10938TIP3    H154305   4.506   5.831   2.268  0.4734 -2.5885  1.2639
10938TIP3    H254306   4.630   5.864   2.187 -1.1003  1.7279  0.3510
10939TIP3   OH254307   0.511   0.310   5.714 -0.1123 -0.1491 -0.0851
10939TIP3    H154308   0.545   0.232   5.758 -0.4702 -1.3486 -1.8606
10939TIP3    H254309   0.579   0.377   5.728  0.5476 -0.9862  0.8200
10940TIP3   OH254310   5.386   5.470  11.626  0.0252  0.2241  0.1543
10940TIP3    H154311   5.399   5.378  11.648  0.3938  0.3777  0.5909
10940TIP3    H254312   5.454   5.516  11.675 -2.2690  1.1127  2.7428
10941TIP3   OH254313   5.798   1.199   0.257  0.4124 -0.4510 -0.1100
10941TIP3    H154314   5.892   1.188   0.241  0.3868  0.5812 -1.0755
10941TIP3    H254315   5.788   1.290   0.283 -0.6624  0.4341 -3.1721
10942TIP3   OH254316   5.050   0.164   4.015  0.2558 -0.0832 -0.1528
10942TIP3    H154317   5.128   0.185   3.964  1.7598 -1.3684  1.4811
10942TIP3    H254318   5.084   0.125   4.095 -2.0571  0.4498  1.1749
10943TIP3   OH254319   6.366   6.173  12.491  0.2307  0.2738  0.1763
10943TIP3    H154320   6.326   6.249  12.534  0.4566  0.3586  0.2396
10943TIP3    H254321   6.378   6.200  12.400 -0.3520  0.0531  0.0371
10944TIP3   OH254322   3.261   1.865  13.203 -0.4682  0.2718 -0.0828
10944TIP3    H154323   3.173   1.879  13.237 -0.1417  0.4384  0.7246
10944TIP3    H254324   3.318   1.882  13.278  0.1504 -2.0526  0.0421
10945TIP3   OH254325   2.832   2.223  17.115  0.3338  0.5846  0.1566
10945TIP3    H154326   2.875   2.230  17.030 -0.9724  0.5397 -0.5372
10945TIP3    H254327   2.887   2.274  17.174  0.4273  1.9660 -1.0559
10946TIP3   OH254328   0.334   5.077  16.840 -0.0727 -0.0664  0.3954
10946TIP3    H154329   0.262   5.063  16.779  0.5182  1.3052 -0.6954
10946TIP3    H254330   0.412   5.048  16.792  0.3612  0.7183  0.5952
10947TIP3   OH254331   5.470   4.528   2.023  0.4125 -0.8781 -0.1379
10947TIP3    H154332   5.389   4.570   1.992  1.2842  0.7381 -0.3341
10947TIP3    H254333   5.525   4.522   1.946  0.3150 -2.5046 -0.1260
10948TIP3   OH254334   5.176   0.778   5.133  0.0913  0.4849 -0.0433
10948TIP3    H154335   5.232   0.725   5.076  0.8320  1.0550  0.1443
10948TIP3    H254336   5.218   0.774   5.219 -0.7372  0.0530  0.3578
10949TIP3   OH254337   4.086   6.714  10.492  0.1870  0.3099  0.6222
10949TIP3    H154338   4.020   6.699  10.425  0.2912  1.1981  0.3050
10949TIP3    H254339   4.042   6.693  10.574 -0.1487 -0.1395  0.3344
10950TIP3   OH254340   2.960   5.535   1.369  0.0982  0.5592 -0.5755
10950TIP3    H154341   2.976   5.563   1.459 -2.4654  1.3754 -0.3043
10950TIP3    H254342   3.019   5.590   1.317 -0.8078  2.5613  0.3932
10951TIP3   OH254343   2.905   3.472   1.525 -0.5792 -0.4461  0.3956
10951TIP3    H154344   2.843   3.417   1.574 -0.2306 -0.4714  0.8059
10951TIP3    H254345   2.852   3.509   1.454 -0.9686 -0.8058  0.4915
10952TIP3   OH254346   0.481   0.974   1.681  0.1171  0.4305  0.1447
10952TIP3    H154347   0.417   0.981   1.752  0.0227  0.0643  0.0976
10952TIP3    H254348   0.464   0.889   1.642 -0.1222  0.8214 -0.6154
10953TIP3   OH254349   3.935   6.746   3.247  0.0850  0.2940  0.3597
10953TIP3    H154350   3.855   6.734   3.197  0.4668  0.2446 -0.2584
10953TIP3    H254351   3.949   6.662   3.291 -0.2341  0.3245  0.5194
10954TIP3   OH254352   3.621   4.932   0.193 -0.4001 -0.3420  0.0154
10954TIP3    H154353   3.623   5.013   0.142 -0.7003 -0.5187 -0.2854
10954TIP3    H254354   3.705   4.890   0.177 -0.6014 -0.5365 -0.5786
10955TIP3   OH254355   2.212   1.344   6.053 -0.1675 -0.4872 -0.1651
10955TIP3    H154356   2.295   1.319   6.012  0.5354 -0.1197  1.0115
10955TIP3    H254357   2.221   1.437   6.073 -1.0110 -0.3563 -0.3278
10956TIP3   OH254358   4.440   3.909  11.440  0.3079 -0.2056  0.1764
10956TIP3    H154359   4.353   3.888  11.406 -0.0261 -0.4685  1.1427
10956TIP3    H254360   4.477   3.824  11.464  2.0710 -0.4585 -2.9694
10957TIP3   OH254361   3.437   4.675  11.604  0.5496 -0.8457 -0.7810
10957TIP3    H154362   3.497   4.667  11.530 -1.3898  0.6342 -2.6258
10957TIP3    H254363   3.493   4.702  11.677  2.3680 -1.2578 -1.9392
10958TIP3   OH254364   4.207   5.792  11.344  0.0421  0.0763 -0.1561
10958TIP3    H154365   4.293   5.799  11.304  0.4481  0.5985  0.7563
10958TIP3    H254366   4.198   5.700  11.367  0.9080  0.2207  0.8655
10959TIP3   OH254367   5.598   6.722  13.189  0.0392  0.6642  0.0674
10959TIP3    H154368   5.637   6.726  13.276 -0.6061 -1.6204  0.5328
10959TIP3    H254369   5.631   6.640  13.152  0.1736  1.5039 -1.8032
10960TIP3   OH254370   1.060   5.923  17.201 -0.4974  0.2055  0.2984
10960TIP3    H154371   1.046   5.904  17.294 -0.4236 -0.1439  0.2412
10960TIP3    H254372   0.972   5.923  17.163 -0.4619 -0.5806  0.1985
10961TIP3   OH254373   0.582   0.176   6.275  0.1999 -0.4658  0.3159
10961TIP3    H154374   0.558   0.102   6.331 -0.5130 -0.4885 -0.0009
10961TIP3    H254375   0.634   0.233   6.331  1.9853 -1.8705  0.1802
10962TIP3   OH254376   5.854   5.143   5.487  0.5287 -0.3409 -0.0981
10962TIP3    H154377   5.924   5.094   5.444  0.1282  0.4309 -1.7251
10962TIP3    H254378   5.897   5.221   5.521  0.7205 -0.5911  0.2349
10963TIP3   OH254379   0.775   1.000   5.031  0.1095 -0.2834 -0.0421
10963TIP3    H154380   0.809   1.057   5.101 -0.0427 -0.7795  0.4436
10963TIP3    H254381   0.718   1.057   4.979  0.9787  0.3328 -0.3390
10964TIP3   OH254382   2.362   4.105  15.628  0.2220  0.2774  0.6155
10964TIP3    H154383   2.439   4.144  15.669  0.5058  1.1651 -0.6787
10964TIP3    H254384   2.343   4.163  15.554 -1.6921  0.0710  0.8996
10965TIP3   OH254385   2.660   6.632   2.549 -0.3182 -0.0282  0.2885
10965TIP3    H154386   2.649   6.684   2.469 -1.0218 -0.3895  0.1450
10965TIP3    H254387   2.643   6.542   2.521  0.5479 -0.3082  0.6081
10966TIP3   OH254388   6.392   3.103  15.739 -0.5152  0.3549 -0.0660
10966TIP3    H154389   6.302   3.119  15.767 -0.4662  1.6602 -0.6239
10966TIP3    H254390   6.402   3.153  15.658  1.0277  1.0904  0.5334
10967TIP3   OH254391   1.573   4.717  15.831 -0.6460 -0.8921  0.2158
10967TIP3    H154392   1.592   4.629  15.864 -0.7742 -1.0470 -0.1091
10967TIP3    H254393   1.477   4.719  15.824 -0.5728 -1.7268 -2.3670
10968TIP3   OH254394   5.193   3.801   4.016  0.2376  0.4630 -0.0830
10968TIP3    H154395   5.103   3.785   3.989  0.2910 -1.4756  0.7055
10968TIP3    H254396   5.242   3.727   3.980  1.4399  1.2646 -0.1432
10969TIP3   OH254397   0.529   1.406  14.145  0.3493  0.0287  0.5982
10969TIP3    H154398   0.503   1.351  14.219 -1.2205  0.1992  0.2069
10969TIP3    H254399   0.558   1.488  14.184 -0.1863  0.0086  1.0520
10970TIP3   OH254400   2.091   2.157   1.212 -1.1976  0.0731  0.1606
10970TIP3    H154401   2.145   2.167   1.290  1.6336 -0.5956 -1.5849
10970TIP3    H254402   2.099   2.065   1.189  0.5410  0.8134 -2.5587
10971TIP3   OH254403   4.113   6.117  17.179 -0.5444 -0.3428  0.4450
10971TIP3    H154404   4.187   6.176  17.192 -1.2821  0.4468  1.1447
10971TIP3    H254405   4.065   6.153  17.105 -1.7826  0.8024  1.7400
10972TIP3   OH254406   6.080   0.566   3.157  0.3789  0.0072 -0.3174
10972TIP3    H154407   6.010   0.531   3.101  0.3423 -1.1004  0.3818
10972TIP3    H254408   6.156   0.570   3.100 -0.6217  3.0004 -1.6288
10973TIP3   OH254409   6.645   0.937  16.135  1.1289 -0.1515  0.1771
10973TIP3    H154410   6.610   0.891  16.211 -0.0473  0.6480  0.1472
10973TIP3    H254411   6.570   0.947  16.076  2.2208 -1.6700 -1.5891
10974TIP3   OH254412   2.975   2.706  13.216  0.2462 -0.2016 -0.0699
10974TIP3    H154413   2.941   2.756  13.290  0.9500  1.5216 -0.8800
10974TIP3    H254414   3.064   2.682  13.241 -0.1725 -1.2995  0.4190
10975TIP3   OH254415   2.244   1.089  12.640 -0.0545 -0.9874  0.2592
10975TIP3    H154416   2.150   1.103  12.624  0.5218  2.0389 -1.1603
10975TIP3    H254417   2.247   1.045  12.725 -2.7362  0.9755  1.5281
10976TIP3   OH254418   0.480   4.567  10.528 -0.4408 -0.4846 -0.0089
10976TIP3    H154419   0.479   4.545  10.435 -0.5632  1.2768 -0.4757
10976TIP3    H254420   0.400   4.528  10.563 -0.3016 -1.3144 -0.5959
10977TIP3   OH254421   4.416   4.791  10.543 -0.2340  0.1372 -0.3577
10977TIP3    H154422   4.399   4.847  10.468 -0.2479 -2.4846 -2.4841
10977TIP3    H254423   4.363   4.712  10.527  1.8863 -1.6847  0.9399
10978TIP3   OH254424   6.420   1.433  15.616 -0.8124 -0.7538 -0.2792
10978TIP3    H154425   6.493   1.449  15.557 -2.0982 -2.0654 -2.3804
10978TIP3    H254426   6.351   1.397  15.559 -2.8840 -0.1450  1.6886
10979TIP3   OH254427   4.736   2.384  12.764 -0.2807  0.4604 -0.2732
10979TIP3    H154428   4.727   2.417  12.854 -0.0613  0.4157 -0.2346
10979TIP3    H254429   4.683   2.444  12.711  1.3219  1.8014 -0.4275
10980TIP3   OH254430   6.276   0.424  15.029 -0.0797  0.2340  0.3077
10980TIP3    H154431   6.369   0.402  15.036 -0.0748 -0.6760 -1.7992
10980TIP3    H254432   6.274   0.520  15.039  1.4472  0.6063 -2.0983
10981TIP3   OH254433   3.212   2.548  12.759  0.4341  0.0460  0.2329
10981TIP3    H154434   3.234   2.456  12.745  1.5759  0.3634 -0.1781
10981TIP3    H254435   3.120   2.548  12.783  0.0308 -1.0916 -1.1799
10982TIP3   OH254436   0.240   5.823   0.237  0.4950  0.9088  0.1140
10982TIP3    H154437   0.287   5.772   0.170  1.2632  1.0485  0.5340
10982TIP3    H254438   0.147   5.806   0.219  0.6986 -2.0179  1.2846
10983TIP3   OH254439   1.014   5.610   2.963  0.0507 -0.4827 -0.1315
10983TIP3    H154440   0.941   5.549   2.959 -0.8795  0.4492  1.6918
10983TIP3    H254441   0.976   5.693   2.991  1.3669  0.8472 -2.0041
10984TIP3   OH254442   4.672   2.009   0.396 -0.0463  0.3652 -1.0543
10984TIP3    H154443   4.691   2.075   0.329 -0.7716 -0.0833 -1.7297
10984TIP3    H254444   4.756   1.964   0.411  0.3648  1.1913 -0.8576
10985TIP3   OH254445   0.480   5.378   4.282  0.1734  0.3437 -0.7565
10985TIP3    H154446   0.417   5.308   4.263  1.1288 -1.3840  1.9131
10985TIP3    H254447   0.437   5.431   4.349  0.6095  0.5832 -0.6631
10986TIP3   OH254448   5.429   0.137  14.207 -0.3730 -0.5558 -0.1701
10986TIP3    H154449   5.392   0.062  14.254 -3.4284  0.2821 -0.9949
10986TIP3    H254450   5.401   0.124  14.116  0.3322  0.8551 -0.6127
10987TIP3   OH254451   5.075   1.943   0.317  0.5502 -0.2199  0.6116
10987TIP3    H154452   5.161   1.983   0.304  0.0299  1.2303  1.4331
10987TIP3    H254453   5.089   1.850   0.300  1.8251  0.2653 -1.3393
10988TIP3   OH254454   5.266   1.842   0.002 -0.1182 -0.0366 -0.0257
10988TIP3    H154455   5.222   1.800  -0.073 -1.2133  0.7983  0.1159
10988TIP3    H254456   5.258   1.778   0.073  0.2718 -0.5300 -0.4187
10989TIP3   OH254457   4.272   4.376   4.120 -0.3657  0.4689 -0.1366
10989TIP3    H154458   4.311   4.417   4.197 -1.2213  1.8595 -0.4065
10989TIP3    H254459   4.345   4.364   4.059  0.4045 -1.0673  1.0333
10990TIP3   OH254460   5.573   2.216  12.454  0.0564  0.4891  0.1957
10990TIP3    H154461   5.499   2.162  12.426  0.5599 -0.0734 -0.0828
10990TIP3    H254462   5.566   2.221  12.549  0.4953 -0.8171  0.3150
10991TIP3   OH254463   1.283   0.775   6.041 -0.7325  0.0799 -0.2367
10991TIP3    H154464   1.310   0.730   5.962 -0.1265  0.4364 -0.2373
10991TIP3    H254465   1.215   0.719   6.079  1.6902 -2.1935  1.1056
10992TIP3   OH254466   4.162   0.927   0.134  0.0112  0.4030 -0.2025
10992TIP3    H154467   4.109   0.848   0.121  1.2901 -0.3999 -0.7272
10992TIP3    H254468   4.143   0.982   0.058  1.0711 -0.5679 -1.2045
10993TIP3   OH254469   1.787   3.440  15.827  0.0222  0.9453 -0.1180
10993TIP3    H154470   1.876   3.408  15.811 -0.0846  0.0495  0.9430
10993TIP3    H254471   1.732   3.363  15.817 -0.6501  1.5102 -0.8253
10994TIP3   OH254472   4.424   5.490   2.583 -0.4213  0.1430  0.6057
10994TIP3    H154473   4.379   5.562   2.627  1.3766  2.4019 -0.9902
10994TIP3    H254474   4.415   5.510   2.489  0.5782 -1.4411  0.1350
10995TIP3   OH254475   2.646   3.081   1.347  0.4238  0.2726 -0.2301
10995TIP3    H154476   2.737   3.112   1.338  0.4148  0.7646  1.1796
10995TIP3    H254477   2.593   3.155   1.315  0.5017  0.0909 -0.7932
10996TIP3   OH254478   5.398   2.486  10.708  0.6879  0.1082  0.0777
10996TIP3    H154479   5.326   2.536  10.746  1.2377 -0.0276  1.3586
10996TIP3    H254480   5.367   2.461  10.621 -0.4463  0.8164  0.2570
10997TIP3   OH254481   4.429   4.661  14.040 -0.1235  0.2448  0.2731
10997TIP3    H154482   4.477   4.743  14.051  0.6779 -0.1052 -0.5077
10997TIP3    H254483   4.372   4.657  14.116  2.3300 -0.1838  2.2187
10998TIP3   OH254484   1.055   0.305   1.859 -0.5566 -0.1451  1.1595
10998TIP3    H154485   1.013   0.351   1.787  1.8898  0.4916  0.0272
10998TIP3    H254486   1.020   0.216   1.855 -1.0419  0.0943 -0.3162
10999TIP3   OH254487   5.254   6.371   2.288  0.7749 -0.0714 -0.3587
10999TIP3    H154488   5.235   6.292   2.338  1.2020  0.3007  0.4097
10999TIP3    H254489   5.323   6.345   2.228  0.1841 -0.5522 -0.8446
11000TIP3   OH254490   1.074   3.335   1.413 -0.5824  0.4519 -0.5575
11000TIP3    H154491   1.047   3.327   1.504  0.5845  1.5951 -0.0808
11000TIP3    H254492   1.110   3.249   1.391 -2.2337 -0.2977 -0.4324
11001TIP3   OH254493   4.214   5.764  16.426  0.2233  0.3034  0.1452
11001TIP3    H154494   4.174   5.816  16.495 -1.3762 -1.0315  0.3083
11001TIP3    H254495   4.244   5.684  16.470  0.2988 -0.0318 -0.4934
11002TIP3   OH254496   4.417   3.007  12.599 -0.0537  0.0115  1.0353
11002TIP3    H154497   4.505   3.000  12.634 -0.0048  0.0004  0.9116
11002TIP3    H254498   4.417   2.950  12.522  0.3977  1.4508 -0.0801
11003TIP3   OH254499   5.181   4.027   3.626 -0.0730 -0.2594  0.1138
11003TIP3    H154500   5.261   4.047   3.577 -0.8760  0.6327 -0.9093
11003TIP3    H254501   5.114   4.080   3.583 -0.9097  0.2259  1.9586
11004TIP3   OH254502   2.803   1.093  16.668  0.2591 -0.1863 -0.3238
11004TIP3    H154503   2.751   1.096  16.749  0.0245 -2.2825 -0.3423
11004TIP3    H254504   2.819   1.000  16.653  1.1616  0.2161 -2.1677
11005TIP3   OH254505   2.738   1.952  13.243  0.2259  0.2388 -0.6211
11005TIP3    H154506   2.697   1.889  13.185  1.1639 -0.2923 -0.7306
11005TIP3    H254507   2.702   1.933  13.329  0.9108 -0.8189 -0.5590
11006TIP3   OH254508   6.381   1.044  15.277  0.2286 -0.5988 -0.8207
11006TIP3    H154509   6.310   0.984  15.254 -0.4457  0.6516 -2.1188
11006TIP3    H254510   6.354   1.128  15.242  1.7326  0.2142 -0.1216
11007TIP3   OH254511   5.785   0.292   0.251 -0.1131 -0.3594  0.5369
11007TIP3    H154512   5.838   0.246   0.316  0.1522  0.0100  0.5820
11007TIP3    H254513   5.724   0.344   0.303 -0.9750 -1.2906  0.4888
11008TIP3   OH254514   4.206   0.331  13.159 -0.2279 -0.0499  0.3906
11008TIP3    H154515   4.129   0.280  13.132 -1.7905  1.4503  1.7857
11008TIP3    H254516   4.278   0.268  13.156 -1.0149 -1.0214 -3.0522
11009TIP3   OH254517   1.110   2.949  13.455 -0.2059 -0.6713  0.4148
11009TIP3    H154518   1.200   2.929  13.432 -0.2105 -2.3391  1.6950
11009TIP3    H254519   1.063   2.866  13.447 -2.1068  0.4845 -2.0571
11010TIP3   OH254520   6.629   2.092  14.189  0.9399  0.4459 -0.0015
11010TIP3    H154521   6.697   2.032  14.221  0.0334  0.0883  1.3296
11010TIP3    H254522   6.581   2.118  14.267  0.1840  1.5165 -0.7936
11011TIP3   OH254523   0.382   1.736  14.454  0.2581 -0.3119 -0.2002
11011TIP3    H154524   0.292   1.735  14.421 -0.6744  0.0131  2.1667
11011TIP3    H254525   0.430   1.787  14.388 -1.6294  0.9050 -0.7313
11012TIP3   OH254526   3.210   4.800  14.205 -0.3533 -0.2067 -0.2805
11012TIP3    H154527   3.164   4.759  14.133 -1.4372  0.2189  0.1442
11012TIP3    H254528   3.209   4.736  14.276 -0.4979 -0.1098 -0.1944
11013TIP3   OH254529   2.921   2.137   0.295 -0.5706 -0.2196  0.1235
11013TIP3    H154530   2.893   2.226   0.273 -1.3954 -0.7873 -1.2944
11013TIP3    H254531   2.993   2.119   0.234 -0.8150 -0.7230 -0.0268
11014TIP3   OH254532   0.430   0.586  15.207  0.0718  0.4508 -0.1438
11014TIP3    H154533   0.400   0.496  15.217  0.9483  0.2898  1.3767
11014TIP3    H254534   0.524   0.578  15.188  0.2057  1.0240  0.2390
11015TIP3   OH254535   0.544   5.187   3.807  0.8469  0.4915 -0.3110
11015TIP3    H154536   0.542   5.138   3.725 -1.2960  0.7319 -0.4578
11015TIP3    H254537   0.455   5.182   3.840  2.1024 -1.7827  3.3531
11016TIP3   OH254538   5.850   6.515   5.596  1.0195 -0.2252  0.3503
11016TIP3    H154539   5.766   6.554   5.573  0.7657 -0.2597  1.2021
11016TIP3    H254540   5.828   6.427   5.626  1.2794  0.0264  1.2903
11017TIP3   OH254541   6.590   0.990  17.014  0.3967 -0.0960 -0.8252
11017TIP3    H154542   6.590   1.075  17.058  0.7495 -1.1959  1.4385
11017TIP3    H254543   6.500   0.959  17.021  0.9151 -1.2934  1.3421
11018TIP3   OH254544   5.131   4.092  10.831 -0.4619 -0.7794  0.1018
11018TIP3    H154545   5.110   4.001  10.813  0.2520 -1.1239  0.9324
11018TIP3    H254546   5.179   4.122  10.753  1.3896 -1.8315  0.7894
11019TIP3   OH254547   3.054   6.696   6.010  0.1432 -0.3637  0.8555
11019TIP3    H154548   3.060   6.789   5.988 -0.4835 -0.2508  1.1587
11019TIP3    H254549   3.135   6.678   6.058  1.3961 -0.5282 -1.1870
11020TIP3   OH254550   3.138   2.240  17.199  0.0733  0.3692  0.2974
11020TIP3    H154551   3.114   2.322  17.157  1.6368  0.8469  0.2962
11020TIP3    H254552   3.223   2.217  17.162  0.1219 -0.7388  1.0292
11021TIP3   OH254553   3.574   6.727   4.385  0.0432 -0.1496 -0.3264
11021TIP3    H154554   3.651   6.699   4.335  0.6942  1.2246 -0.1318
11021TIP3    H254555   3.527   6.785   4.325  1.4851  2.5405  0.9648
11022TIP3   OH254556   0.080   1.041   5.842  0.1964  0.0701  0.0481
11022TIP3    H154557   0.158   1.096   5.854  1.3568 -1.9441  2.8675
11022TIP3    H254558   0.021   1.067   5.913 -0.8012  0.1037 -0.7726
11023TIP3   OH254559   1.377   1.730  15.211  0.3372 -0.1323 -0.4881
11023TIP3    H154560   1.468   1.738  15.238 -0.1296 -1.2229  1.5667
11023TIP3    H254561   1.347   1.648  15.250 -2.1898  1.3398  0.9563
11024TIP3   OH254562   0.250   5.441   0.291  0.1038  0.3605  0.1291
11024TIP3    H154563   0.286   5.360   0.256 -2.4103 -0.2591 -1.1984
11024TIP3    H254564   0.289   5.510   0.236  1.3637  0.0121  0.5407
11025TIP3   OH254565   0.052   6.413  13.902  0.2701  0.4893  0.2090
11025TIP3    H154566   0.065   6.328  13.861  1.4608  1.0953 -0.7604
11025TIP3    H254567   0.001   6.463  13.837  0.0939  0.7051  0.5106
11026TIP3   OH254568   3.847   3.883  13.885 -0.4277 -0.0326 -0.5268
11026TIP3    H154569   3.799   3.864  13.804 -0.3463 -0.4664 -0.4768
11026TIP3    H254570   3.892   3.966  13.868 -0.0504 -0.3491 -1.0905
11027TIP3   OH254571   2.820   6.723  12.554  0.5499 -0.4585  0.7691
11027TIP3    H154572   2.737   6.677  12.561  0.1573 -0.0910 -0.9021
11027TIP3    H254573   2.868   6.700  12.633 -1.1330 -0.6840  1.7655
11028TIP3   OH254574   2.068   3.891   4.341  0.2331 -0.0210  0.7608
11028TIP3    H154575   1.984   3.892   4.295  0.6412 -1.5848 -0.0893
11028TIP3    H254576   2.044   3.889   4.434 -0.7124 -1.4943  0.5168
11029TIP3   OH254577   0.029   4.267  13.240  0.1798  0.6850 -0.2814
11029TIP3    H154578   0.069   4.181  13.225 -0.1825  0.9103 -2.8888
11029TIP3    H254579  -0.026   4.254  13.318  2.3717 -0.5962  1.1859
11030TIP3   OH254580   3.252   6.285   3.710  0.0825 -0.1119 -0.4202
11030TIP3    H154581   3.334   6.237   3.705  0.9905  1.2398  0.6555
11030TIP3    H254582   3.266   6.363   3.656 -0.0432  0.6937  0.6628
11031TIP3   OH254583   4.396   5.170  17.085 -0.4799 -0.0959 -0.0367
11031TIP3    H154584   4.483   5.208  17.069 -0.2341 -0.4085  0.5462
11031TIP3    H254585   4.408   5.076  17.072 -0.6498 -0.1784  0.3837
11032TIP3   OH254586   1.322   2.102  12.384  0.5076  0.7547  0.9261
11032TIP3    H154587   1.270   2.022  12.378  0.7147  0.6866 -0.5442
11032TIP3    H254588   1.268   2.163  12.432 -0.3147  0.2208  0.6951
11033TIP3   OH254589   1.661   5.639   0.008 -0.2528  0.0447 -0.3450
11033TIP3    H154590   1.703   5.717   0.045  0.4100 -0.5302  0.1380
11033TIP3    H254591   1.640   5.664  -0.082  0.4141  0.6170 -0.3524
11034TIP3   OH254592   2.021   1.956  13.389 -0.1759  0.4020  0.4281
11034TIP3    H154593   2.097   1.966  13.445  0.7721  0.7386 -0.8722
11034TIP3    H254594   2.026   1.865  13.359 -1.4408 -0.1942  1.9187
11035TIP3   OH254595   4.617   6.358   2.835  0.7010  0.3122  0.3254
11035TIP3    H154596   4.586   6.447   2.850  0.5778  0.3330 -0.0437
11035TIP3    H254597   4.708   6.369   2.805 -0.3063  0.5651 -3.0772
11036TIP3   OH254598   3.759   3.820  15.902  0.2434 -0.3272 -0.3123
11036TIP3    H154599   3.770   3.861  15.988  0.2814  0.0432 -0.4916
11036TIP3    H254600   3.790   3.730  15.914  2.4061  0.3483 -0.5152
11037TIP3   OH254601   1.940   5.413  13.721  0.1999 -0.2523  0.2934
11037TIP3    H154602   1.959   5.470  13.796  0.7346 -0.7562  0.5543
11037TIP3    H254603   2.027   5.388  13.688 -0.0253 -0.8298  0.1261
11038TIP3   OH254604   1.885   4.377   5.935 -0.5239  0.0891  0.3730
11038TIP3    H154605   1.934   4.378   5.853 -0.0844  0.2999  0.6311
11038TIP3    H254606   1.846   4.464   5.942  1.4688  0.9561  1.5630
11039TIP3   OH254607   6.189   5.846   1.546  0.9302  0.2680 -0.4018
11039TIP3    H154608   6.269   5.816   1.590  0.9616  0.2540 -0.4679
11039TIP3    H254609   6.137   5.886   1.615 -0.7855 -3.2024  0.5289
11040TIP3   OH254610   3.826   0.220  16.618 -0.0345 -0.3229 -0.2307
11040TIP3    H154611   3.788   0.207  16.705 -0.1789 -1.7417 -0.4816
11040TIP3    H254612   3.752   0.246  16.563 -0.2093 -0.8165 -0.2288
11041TIP3   OH254613   1.978   5.602   3.658 -0.0180 -0.0853  0.5154
11041TIP3    H154614   2.017   5.683   3.690 -1.0863 -0.1550  2.0731
11041TIP3    H254615   1.891   5.600   3.698 -0.3331 -1.5873 -0.1948
11042TIP3   OH254616   1.191   3.102   1.334 -0.0244 -0.2792 -0.7777
11042TIP3    H154617   1.261   3.110   1.269  0.6044 -2.0317 -0.3760
11042TIP3    H254618   1.163   3.010   1.327 -0.2405 -0.3822  1.1224
11043TIP3   OH254619   1.018   4.961  13.214  0.6079 -0.0605 -0.1124
11043TIP3    H154620   0.943   4.988  13.267  0.6639  1.7907 -0.9327
11043TIP3    H254621   1.086   4.942  13.279  0.2912  0.9688  0.5503
11044TIP3   OH254622   0.903   0.282   4.393 -0.6217 -0.4595 -0.6969
11044TIP3    H154623   0.970   0.246   4.335  0.4602 -0.7211  0.6618
11044TIP3    H254624   0.905   0.225   4.470 -0.7557  0.8982  0.3592
11045TIP3   OH254625   5.794   0.543  14.204  0.5848  0.2333 -0.0655
11045TIP3    H154626   5.705   0.517  14.182  0.2937  1.0994  0.0382
11045TIP3    H254627   5.801   0.634  14.173  1.1479  0.4655  0.7001
11046TIP3   OH254628   6.032   1.664  15.350  0.1863  0.6055  0.6096
11046TIP3    H154629   6.017   1.647  15.257 -0.0954  1.4019  0.5024
11046TIP3    H254630   6.128   1.662  15.360  0.1820 -1.0434  0.6240
11047TIP3   OH254631   5.593   4.500   5.442 -0.1358  0.4319  0.2783
11047TIP3    H154632   5.503   4.524   5.420 -0.4540 -0.7496  0.2355
11047TIP3    H254633   5.644   4.579   5.424 -0.8394  0.4914 -1.6887
11048TIP3   OH254634   6.292   0.123   4.740  0.0256  0.0598 -0.5637
11048TIP3    H154635   6.235   0.046   4.739 -0.0303 -0.0058  2.1162
11048TIP3    H254636   6.244   0.187   4.687 -0.3918 -1.3727 -2.0228
11049TIP3   OH254637   4.721   2.442   1.694 -0.6029  0.5092 -0.3346
11049TIP3    H154638   4.673   2.459   1.613 -1.3236 -1.1565 -0.3061
11049TIP3    H254639   4.723   2.347   1.701  1.8877  0.5278  0.2035
11050TIP3   OH254640   0.513   6.092  14.676 -0.2929 -0.7068  0.8467
11050TIP3    H154641   0.504   6.021  14.739 -0.2026 -0.3607  1.2575
11050TIP3    H254642   0.441   6.152  14.697  1.4204  0.8878  2.5829
11051TIP3   OH254643   1.479   4.142  11.335 -0.7555  0.1309 -0.2242
11051TIP3    H154644   1.565   4.131  11.294 -0.2485 -0.5853  0.9852
11051TIP3    H254645   1.418   4.147  11.262  0.1468 -0.9042 -1.0793
11052TIP3   OH254646   3.641   5.362  16.375 -0.3408 -0.3036 -0.2304
11052TIP3    H154647   3.670   5.453  16.362 -1.0816 -0.0628 -0.2591
11052TIP3    H254648   3.718   5.309  16.354 -0.1203  0.2903 -0.9671
11053TIP3   OH254649   0.007   0.055  14.135 -0.1757  0.5246 -0.1267
11053TIP3    H154650  -0.088   0.055  14.144 -0.3055  2.0788 -1.1160
11053TIP3    H254651   0.037   0.126  14.193  0.3524  0.2212 -0.0220
11054TIP3   OH254652   5.067   4.062  13.594 -0.2382 -0.0729 -0.4998
11054TIP3    H154653   5.022   4.105  13.521 -0.9105  1.2594  0.6392
11054TIP3    H254654   5.066   4.128  13.664  1.6147 -0.7913  0.2669
11055TIP3   OH254655   3.855   6.027  11.605 -0.2569  0.4791 -0.1709
11055TIP3    H154656   3.885   6.117  11.618 -0.9801  0.9690 -1.7135
11055TIP3    H254657   3.838   5.994  11.693  0.4439  1.6899  0.4359
11056TIP3   OH254658   4.678   1.239   3.994 -0.1457  0.5696  0.1959
11056TIP3    H154659   4.604   1.256   3.935  0.2261  1.8931  0.0737
11056TIP3    H254660   4.638   1.198   4.071 -0.5009 -2.3503 -1.3930
11057TIP3   OH254661   5.197   4.642  15.470 -0.2313 -0.0504 -0.3037
11057TIP3    H154662   5.116   4.662  15.424  0.7747  3.4930 -0.8886
11057TIP3    H254663   5.191   4.692  15.552  1.6234  1.0366 -0.7622
11058TIP3   OH254664   6.551   0.137   2.958 -0.0478 -0.2049 -0.0659
11058TIP3    H154665   6.567   0.138   2.864  0.0004 -1.5345 -0.0923
11058TIP3    H254666   6.493   0.212   2.973 -1.0545 -0.6844 -1.3521
11059TIP3   OH254667   6.681   4.080  13.677  0.4089 -0.1580  0.4987
11059TIP3    H154668   6.642   3.993  13.684  0.5397 -0.1973  0.7847
11059TIP3    H254669   6.610   4.136  13.648  0.6730 -0.6184 -1.1090
11060TIP3   OH254670   0.331   6.671  16.951 -0.2224  0.2660  0.0761
11060TIP3    H154671   0.362   6.660  16.860 -2.3552  0.5190 -0.7284
11060TIP3    H254672   0.318   6.765  16.960  0.8893  0.3523  1.0081
11061TIP3   OH254673   3.656   0.253  13.346  0.6000 -0.3543 -0.2046
11061TIP3    H154674   3.606   0.299  13.278 -0.4518 -0.0981  0.7078
11061TIP3    H254675   3.726   0.209  13.299  0.3404  0.4381 -1.3624
11062TIP3   OH254676   3.709   6.120  13.168 -0.4491  0.3001  0.4656
11062TIP3    H154677   3.751   6.200  13.200 -0.0875 -0.2665  1.4775
11062TIP3    H254678   3.698   6.134  13.074  0.0794  1.3205  0.5414
11063TIP3   OH254679   2.270   3.520  14.500 -0.4216  0.1473  0.4420
11063TIP3    H154680   2.309   3.522  14.587  1.0110  0.3756 -0.1788
11063TIP3    H254681   2.247   3.612  14.482  0.6425  0.3442  0.0105
11064TIP3   OH254682   3.706   6.023   1.966 -0.1318  0.9988  0.3125
11064TIP3    H154683   3.647   5.948   1.979  0.1003  0.6871 -0.4074
11064TIP3    H254684   3.690   6.050   1.876  1.8978 -0.0313 -0.4219
11065TIP3   OH254685   4.501   6.051  11.464 -0.2255  0.1395 -0.7040
11065TIP3    H154686   4.448   6.071  11.387 -0.3745  1.9222 -0.1886
11065TIP3    H254687   4.592   6.055  11.434 -0.3101 -0.9124 -1.1420
11066TIP3   OH254688   4.950   1.958  11.998  0.2873  0.1647 -0.3626
11066TIP3    H154689   4.917   1.907  11.924  0.2818 -2.0940  1.0851
11066TIP3    H254690   4.996   2.032  11.958 -2.3246  0.7822 -2.5397
11067TIP3   OH254691   2.060   5.677  16.434 -0.4412 -0.0076 -0.6839
11067TIP3    H154692   1.971   5.706  16.414 -0.6238 -0.4225 -0.4721
11067TIP3    H254693   2.108   5.691  16.353 -0.1155  2.4237 -0.1620
11068TIP3   OH254694   3.450   5.566   2.305 -0.2445  0.0302 -0.3320
11068TIP3    H154695   3.508   5.497   2.273 -0.6224 -0.3745 -0.1643
11068TIP3    H254696   3.475   5.578   2.396  2.3029  2.6988 -1.2427
11069TIP3   OH254697   0.527   0.707  14.447 -0.0074  0.1148  0.1648
11069TIP3    H154698   0.457   0.685  14.386 -1.0251 -0.7172  1.5734
11069TIP3    H254699   0.606   0.707  14.393 -0.5480 -2.7042 -0.8289
11070TIP3   OH254700   3.410   6.054   4.370  0.1689 -0.5317 -0.1154
11070TIP3    H154701   3.456   6.130   4.334  0.9230 -1.4375 -1.1173
11070TIP3    H254702   3.473   6.014   4.431 -0.5770  0.1697  1.1561
11071TIP3   OH254703   3.756   6.473   1.188  0.1301  0.1063  0.5885
11071TIP3    H154704   3.707   6.465   1.106  2.2532 -3.0929 -0.5659
11071TIP3    H254705   3.690   6.495   1.253 -1.6575  2.8089 -1.9002
11072TIP3   OH254706   2.182   4.282  14.587 -0.9350  0.1922 -0.4002
11072TIP3    H154707   2.205   4.299  14.495 -0.9108 -2.2271 -0.9276
11072TIP3    H254708   2.252   4.323  14.637  0.3953 -0.4625 -1.6235
11073TIP3   OH254709   6.108   2.616   2.818 -0.0547  0.8880  0.2801
11073TIP3    H154710   6.197   2.625   2.852  0.0271  0.3130  0.2353
11073TIP3    H254711   6.053   2.618   2.897  0.1748 -0.9703  0.5470
11074TIP3   OH254712   1.188   2.925  15.330  0.3594 -1.0768  0.3495
11074TIP3    H154713   1.127   2.993  15.360  0.8758  0.8542 -2.5870
11074TIP3    H254714   1.275   2.963  15.346  0.6527 -0.8739 -1.5681
11075TIP3   OH254715   5.351   1.433   0.050 -0.2171 -0.5866 -0.0058
11075TIP3    H154716   5.325   1.491   0.123  0.8378 -1.7555  1.3541
11075TIP3    H254717   5.421   1.480   0.005  1.0285 -0.9961  1.4348
11076TIP3   OH254718   0.927   2.829   0.616  0.2103 -0.2261 -0.3968
11076TIP3    H154719   0.942   2.914   0.574  0.6103  0.4012  0.9603
11076TIP3    H254720   0.984   2.830   0.693 -1.2389 -0.9254  0.7340
11077TIP3   OH254721   6.044   2.473  11.026  0.0972 -1.0074  0.1705
11077TIP3    H154722   6.058   2.464  10.932  0.1907  1.1144 -0.0679
11077TIP3    H254723   6.111   2.417  11.065  3.3922  1.7130 -1.0616
11078TIP3   OH254724   0.374   0.279   3.953 -0.2114 -0.3418 -0.1137
11078TIP3    H154725   0.443   0.244   4.009  1.5221 -1.4396 -2.7344
11078TIP3    H254726   0.397   0.370   3.938 -0.5265 -0.1248  0.6906
11079TIP3   OH254727   6.564   4.754   5.280  0.1714 -0.0273  0.1443
11079TIP3    H154728   6.506   4.803   5.223  0.7742  1.4013  0.7207
11079TIP3    H254729   6.528   4.665   5.281 -1.3824  0.5741 -0.3245
11080TIP3   OH254730   2.532   3.832   2.864  0.7984 -0.3061 -0.1927
11080TIP3    H154731   2.538   3.737   2.855  0.1383 -0.6125  1.9706
11080TIP3    H254732   2.447   3.854   2.825 -0.8027 -1.2020  2.4766
11081TIP3   OH254733   6.726   6.053  11.334 -0.1029  0.6104  0.1551
11081TIP3    H154734   6.758   6.096  11.413  0.9164 -0.2567  0.2327
11081TIP3    H254735   6.732   5.959  11.353  0.0587  0.3919 -0.8946
11082TIP3   OH254736   2.092   4.589   0.639  0.2731 -0.2658  0.6475
11082TIP3    H154737   2.076   4.604   0.732  1.8036  0.5401  0.8103
11082TIP3    H254738   2.185   4.565   0.634  0.8128  1.9020 -0.8783
11083TIP3   OH254739   5.302   4.557  17.106  0.5004  0.1081 -0.4182
11083TIP3    H154740   5.248   4.479  17.095  0.5445  0.0911 -0.5153
11083TIP3    H254741   5.254   4.611  17.169  0.1901  0.2573 -0.7759
11084TIP3   OH254742   2.777   0.119   5.394 -0.1280 -0.0848  0.1369
11084TIP3    H154743   2.797   0.212   5.388  2.3781 -0.5960 -0.6770
11084TIP3    H254744   2.683   0.115   5.408 -0.2745  2.5588  0.3064
11085TIP3   OH254745   6.009   0.118   2.747 -0.0020 -0.0977  0.1273
11085TIP3    H154746   6.086   0.124   2.803  0.9616  0.1927 -1.1926
11085TIP3    H254747   5.936   0.140   2.805  1.1776  2.7511  0.7348
11086TIP3   OH254748   6.268   1.727  16.097  0.0549 -0.1210  0.0172
11086TIP3    H154749   6.302   1.670  16.166 -0.5537 -0.9488 -0.3476
11086TIP3    H254750   6.234   1.667  16.031  0.5268  0.6549 -0.9670
11087TIP3   OH254751   1.260   0.115  16.429 -0.0726 -0.2383  0.0533
11087TIP3    H154752   1.297   0.033  16.398  2.0783 -0.3065  2.5029
11087TIP3    H254753   1.323   0.148  16.493 -1.2435  2.9376 -0.2263
11088TIP3   OH254754   2.221   6.206   5.319 -0.2858  0.4090 -0.1040
11088TIP3    H154755   2.292   6.148   5.349  0.0177  0.3597 -0.9048
11088TIP3    H254756   2.142   6.154   5.330 -0.1825  0.3890  0.6052
11089TIP3   OH254757   0.973   6.457   1.836 -0.5864  0.0956  0.1435
11089TIP3    H154758   0.914   6.403   1.890 -0.1971  0.2216  0.7080
11089TIP3    H254759   1.057   6.453   1.882 -0.3660  0.5864 -0.2125
11090TIP3   OH254760   0.278   0.690  11.322 -0.2622  0.0118  0.4701
11090TIP3    H154761   0.206   0.631  11.344 -0.3727 -0.2777 -0.6101
11090TIP3    H254762   0.327   0.644  11.253  0.4155  0.6048  0.5380
11091TIP3   OH254763   5.614   3.002   5.324 -0.4045 -0.4034  0.0754
11091TIP3    H154764   5.708   2.986   5.333 -0.2663  1.0093  1.5504
11091TIP3    H254765   5.594   3.068   5.390 -2.7484 -1.7625  0.8455
11092TIP3   OH254766   2.092   6.137   1.706  0.7830 -0.6527  0.3049
11092TIP3    H154767   2.151   6.170   1.638  0.2381 -0.3599 -0.0384
11092TIP3    H254768   2.009   6.122   1.660  0.3831 -0.3751  0.9223
11093TIP3   OH254769   3.921   5.823   5.839  0.4072  0.3074  0.1083
11093TIP3    H154770   3.926   5.834   5.744  0.0622  2.1662  0.2628
11093TIP3    H254771   3.925   5.913   5.874  1.8861 -0.3928  1.9272
11094TIP3   OH254772   5.730   2.171  10.576 -0.3820 -0.4012 -0.0051
11094TIP3    H154773   5.671   2.096  10.569 -1.2949  0.2093  0.9696
11094TIP3    H254774   5.752   2.192  10.485  0.0658 -1.9629 -0.2924
11095TIP3   OH254775   2.973   0.557  16.452  0.0919 -0.1817 -0.1930
11095TIP3    H154776   2.964   0.595  16.364 -0.5195  1.1940  0.4443
11095TIP3    H254777   2.896   0.500  16.461  0.5995 -1.0059 -0.8481
11096TIP3   OH254778   2.651   2.823  12.510  0.5802  0.0478 -0.0873
11096TIP3    H154779   2.735   2.794  12.545  0.9281  1.5381  0.3788
11096TIP3    H254780   2.659   2.918  12.502 -0.3001  0.0128 -2.1039
11097TIP3   OH254781   5.576   4.717   1.093  0.3507 -0.1685  0.0481
11097TIP3    H154782   5.534   4.675   1.169  0.4483 -0.2188  0.0746
11097TIP3    H254783   5.504   4.739   1.035  0.2011  0.6716  0.5503
11098TIP3   OH254784   2.284   4.062  11.703  0.1464 -0.4667 -0.0448
11098TIP3    H154785   2.299   4.060  11.798 -1.6205 -0.3326  0.2824
11098TIP3    H254786   2.359   4.017  11.666  0.2124 -1.7585  1.5233
11099TIP3   OH254787   4.692   3.983   2.565  0.4560 -0.2249 -0.2530
11099TIP3    H154788   4.743   3.968   2.644 -0.2820 -0.0586  0.2728
11099TIP3    H254789   4.755   4.013   2.500  0.8472  1.2749  0.7646
11100TIP3   OH254790   4.380   0.085  13.349  0.0388 -0.8932  0.1211
11100TIP3    H154791   4.428   0.168  13.355  0.0795 -0.9729  1.0478
11100TIP3    H254792   4.402   0.051  13.263 -0.8959  0.6148 -0.7763
11101TIP3   OH254793   2.410   2.460   4.429 -0.8326  0.4431  0.2585
11101TIP3    H154794   2.488   2.417   4.393 -0.4247  0.9688  0.5051
11101TIP3    H254795   2.353   2.473   4.353 -0.1231  1.2351 -0.1578
11102TIP3   OH254796   0.157   0.937   5.451  0.2818 -0.5430 -0.4667
11102TIP3    H154797   0.186   1.029   5.451 -0.8386 -0.1649  0.3030
11102TIP3    H254798   0.148   0.915   5.359  2.0645 -0.3983 -0.7262
11103TIP3   OH254799   1.672   4.229   3.365 -0.4330 -0.7636 -0.1397
11103TIP3    H154800   1.704   4.224   3.275 -0.1447 -1.0205 -0.0244
11103TIP3    H254801   1.683   4.141   3.399  0.8346 -0.3354  0.6135
11104TIP3   OH254802   6.657   3.008  14.009 -0.0302 -0.3330  0.1652
11104TIP3    H154803   6.701   3.073  13.954 -1.4237 -0.8380 -1.6471
11104TIP3    H254804   6.689   3.026  14.097  0.0849  2.4179 -0.3434
11105TIP3   OH254805   4.861   0.991  16.640 -0.1390  0.6808  0.6376
11105TIP3    H154806   4.803   0.984  16.564 -0.4998  0.4561  0.9266
11105TIP3    H254807   4.940   1.034  16.607 -0.6632  1.4283  0.3443
11106TIP3   OH254808   0.061   4.039  16.470 -0.9680 -0.1917 -0.0831
11106TIP3    H154809  -0.013   3.980  16.454 -0.1404 -1.5389  0.7802
11106TIP3    H254810   0.138   3.981  16.467 -0.0022  1.0739 -0.3875
11107TIP3   OH254811   4.191   5.720   4.663 -0.0327  0.3125 -0.2365
11107TIP3    H154812   4.240   5.801   4.679  0.1150  0.2609 -0.4319
11107TIP3    H254813   4.099   5.746   4.672  0.0193  0.4708 -0.1523
11108TIP3   OH254814   1.564   2.354  13.603 -0.6322 -0.0242  0.5258
11108TIP3    H154815   1.548   2.443  13.635 -0.9814  0.1250 -0.0498
11108TIP3    H254816   1.481   2.328  13.563 -0.1824 -0.1644 -0.3452
11109TIP3   OH254817   4.507   1.491  15.718  0.0051 -0.3114 -0.6580
11109TIP3    H154818   4.470   1.545  15.789  3.9703 -0.3362  1.7197
11109TIP3    H254819   4.542   1.554  15.655 -0.0901 -0.2203 -0.6209
11110TIP3   OH254820   4.695   5.664  16.822  0.4024  0.4535  0.6399
11110TIP3    H154821   4.649   5.702  16.896 -1.6281 -0.4769 -0.0849
11110TIP3    H254822   4.732   5.582  16.856 -0.2085  0.2109  0.7306
11111TIP3   OH254823   1.056   4.987  16.468 -0.0518  0.3048  0.0629
11111TIP3    H154824   1.098   5.015  16.387  1.2408  1.1258  0.9711
11111TIP3    H254825   0.977   4.941  16.440  0.0534  1.0931 -1.6309
11112TIP3   OH254826   2.570   3.877   5.304 -0.0123  0.1249 -0.2894
11112TIP3    H154827   2.475   3.868   5.309 -0.1617 -0.4485 -2.7729
11112TIP3    H254828   2.589   3.884   5.210  2.4532 -0.4479  0.0833
11113TIP3   OH254829   3.057   2.407   1.724 -0.2208 -0.3396 -0.2774
11113TIP3    H154830   2.986   2.453   1.769  0.4822 -0.1623  0.6750
11113TIP3    H254831   3.018   2.378   1.641 -1.0575  0.8006 -0.3104
11114TIP3   OH254832   4.988   5.635   1.821  0.2063 -0.2440  0.0575
11114TIP3    H154833   4.955   5.589   1.744  0.7207 -0.6685  0.0857
11114TIP3    H254834   4.952   5.586   1.895 -0.7882  0.5244  0.1006
11115TIP3   OH254835   4.471   2.805   2.287  0.2882  0.6077  0.0550
11115TIP3    H154836   4.384   2.785   2.322  0.4777  0.0424  0.2040
11115TIP3    H254837   4.481   2.746   2.213  1.7262 -1.4646  1.8002
11116TIP3   OH254838   6.639   6.147  12.899  0.4129  0.0817  0.0456
11116TIP3    H154839   6.563   6.110  12.855 -0.0694  0.6454  0.3881
11116TIP3    H254840   6.714   6.111  12.851 -0.0701 -0.2566 -0.4745
11117TIP3   OH254841   4.982   0.249   5.183 -0.4292 -0.0624 -0.2904
11117TIP3    H154842   5.017   0.225   5.097 -0.8153  1.5420 -0.9317
11117TIP3    H254843   5.023   0.333   5.203 -1.7198  0.4744  0.2299
11118TIP3   OH254844   4.673   0.166   1.198 -0.4387 -0.2726  0.6073
11118TIP3    H154845   4.703   0.075   1.200  1.7854  0.4178  1.7160
11118TIP3    H254846   4.727   0.211   1.263  0.6933  2.4913 -1.9724
11119TIP3   OH254847   6.049   0.697   0.768  0.0883 -0.2839  0.2015
11119TIP3    H154848   6.022   0.607   0.787 -1.4665  0.0556 -0.2008
11119TIP3    H254849   6.136   0.706   0.807 -0.2571 -1.5750  1.3278
11120TIP3   OH254850   4.923   1.833  17.288 -0.1131 -0.2596 -0.1566
11120TIP3    H154851   5.015   1.814  17.266  0.0340 -0.6077  0.6921
11120TIP3    H254852   4.914   1.803  17.378 -0.9127  0.3170 -0.0337
11121TIP3   OH254853   4.877   3.476   4.009  0.1934  0.1736  0.4753
11121TIP3    H154854   4.874   3.538   4.082  2.0799  2.4413 -1.2220
11121TIP3    H254855   4.794   3.489   3.962  0.4018  1.1315  0.3648
11122TIP3   OH254856   2.635   2.433  14.272  0.1679 -0.3069 -0.4883
11122TIP3    H154857   2.703   2.498  14.255  0.5954 -0.2462  1.3306
11122TIP3    H254858   2.603   2.454  14.360 -0.6544 -1.7171 -0.4253
11123TIP3   OH254859   4.198   2.809   2.118  0.1405 -0.5613 -0.3490
11123TIP3    H154860   4.200   2.789   2.211  0.5447 -1.9228 -0.6248
11123TIP3    H254861   4.285   2.785   2.086 -0.4049 -1.3756 -1.3015
11124TIP3   OH254862   6.184   2.968   4.035 -0.2266  0.5756  0.0230
11124TIP3    H154863   6.274   2.976   4.066 -0.3866  1.4129  0.2938
11124TIP3    H254864   6.132   2.956   4.115 -0.4349  0.8302 -0.0729
11125TIP3   OH254865   4.071   2.140  14.221  0.0326 -0.4074  0.2456
11125TIP3    H154866   4.141   2.142  14.156  1.1221 -1.9623  1.2700
11125TIP3    H254867   4.001   2.193  14.184  1.7688  1.2859 -0.8083
11126TIP3   OH254868   6.155   0.849   5.360  0.2561  0.3906  0.4823
11126TIP3    H154869   6.072   0.883   5.393 -0.0876  0.2610 -0.2266
11126TIP3    H254870   6.216   0.861   5.432 -0.3307  0.6757  0.9418
11127TIP3   OH254871   1.963   4.693   0.388  0.4241 -0.5425  0.0736
11127TIP3    H154872   2.012   4.638   0.448 -1.4838 -3.4613 -0.8448
11127TIP3    H254873   1.919   4.632   0.329 -1.2835  2.0049 -1.5071
11128TIP3   OH254874   3.427   3.869   1.788 -0.3481  0.3511  0.0249
11128TIP3    H154875   3.437   3.952   1.835  1.3995  1.6019 -2.3525
11128TIP3    H254876   3.495   3.813   1.823 -1.4428 -0.0886  1.5395
11129TIP3   OH254877   5.789   3.890  13.876  0.5543 -0.4364 -0.0649
11129TIP3    H154878   5.711   3.868  13.825  1.5053 -0.3978 -1.6154
11129TIP3    H254879   5.808   3.811  13.926 -1.1072 -0.0668  1.2492
11130TIP3   OH254880   3.295   1.970  17.236 -0.1294 -0.2361  0.3265
11130TIP3    H154881   3.233   2.017  17.292 -2.2356 -0.1241 -1.9250
11130TIP3    H254882   3.371   2.027  17.231 -1.5456  1.7136 -0.1691
11131TIP3   OH254883   3.743   5.767   1.772 -0.5277 -0.1985  0.0090
11131TIP3    H154884   3.827   5.726   1.796 -0.6361 -0.7531 -0.5396
11131TIP3    H254885   3.689   5.757   1.850 -0.7605 -1.6913 -0.2997
11132TIP3   OH254886   3.341   4.633   4.103 -0.2806  0.4536 -0.9070
11132TIP3    H154887   3.260   4.642   4.053 -0.7044 -0.4204 -0.4114
11132TIP3    H254888   3.383   4.719   4.097 -1.4537  1.0615 -0.8202
11133TIP3   OH254889   6.530   3.319   4.296 -0.1730  0.0409 -0.5959
11133TIP3    H154890   6.507   3.282   4.382 -0.0027  0.1812 -0.4906
11133TIP3    H254891   6.525   3.414   4.309  2.2255  0.1596 -0.0663
11134TIP3   OH254892   3.953   4.591   3.315  0.2598  0.0276  0.4443
11134TIP3    H154893   3.963   4.681   3.283  0.6686 -0.2156 -0.1327
11134TIP3    H254894   4.037   4.572   3.358 -0.3589  0.4216  1.8782
11135TIP3   OH254895   4.761   3.226  13.627  0.2708 -0.0596 -0.1410
11135TIP3    H154896   4.728   3.155  13.682  0.4695  0.2628  0.3988
11135TIP3    H254897   4.699   3.298  13.642  0.3919  0.0656 -0.2482
11136TIP3   OH254898   5.239   2.803  16.326  0.8712  0.7974 -0.2386
11136TIP3    H154899   5.287   2.837  16.250  0.1043  0.9689 -0.6658
11136TIP3    H254900   5.181   2.736  16.289  1.7692 -0.4299  0.4694
11137TIP3   OH254901   5.046   5.927  16.199  0.3359  0.5473 -0.4081
11137TIP3    H154902   5.049   5.902  16.107  2.1054  0.1831 -0.2875
11137TIP3    H254903   4.986   6.002  16.202 -0.9350 -0.3962 -1.5923
11138TIP3   OH254904   1.801   4.022  11.761  0.0200  0.7373  0.4784
11138TIP3    H154905   1.857   4.042  11.686  1.0587 -1.5156  0.5561
11138TIP3    H254906   1.862   3.995  11.830 -1.0427 -2.4414  0.3657
11139TIP3   OH254907   6.119   3.655  13.005  0.4696  0.0375  0.1841
11139TIP3    H154908   6.212   3.660  13.024  0.4471  1.7026  0.0066
11139TIP3    H254909   6.101   3.732  12.950 -1.6722  1.9591  3.2500
11140TIP3   OH254910   0.124   0.831  11.737  0.1928 -0.2152  0.1308
11140TIP3    H154911   0.128   0.766  11.667  0.3432 -0.0414 -0.0239
11140TIP3    H254912   0.059   0.895  11.707 -0.7832 -0.8756  0.7863
11141TIP3   OH254913   6.107   0.395  13.000 -0.0687 -0.0492 -0.3517
11141TIP3    H154914   6.034   0.398  13.062 -0.3593 -0.1422 -0.6851
11141TIP3    H254915   6.104   0.306  12.965 -2.2081  0.9910 -3.2114
11142TIP3   OH254916   4.923   4.595   1.191  0.1867 -0.0323  0.0928
11142TIP3    H154917   4.873   4.524   1.150  2.2824 -3.1600  2.4185
11142TIP3    H254918   4.992   4.615   1.128  0.4150 -1.1618 -0.0398
11143TIP3   OH254919   0.153   4.850  13.217 -0.0764 -0.1291  0.1227
11143TIP3    H154920   0.155   4.943  13.196 -1.8390 -0.0124  0.3087
11143TIP3    H254921   0.229   4.813  13.172  2.3322  1.8151  2.3208
11144TIP3   OH254922   1.438   5.604  16.807 -0.0053  0.0763 -0.7927
11144TIP3    H154923   1.450   5.651  16.725 -1.5580 -1.6120 -2.0677
11144TIP3    H254924   1.357   5.640  16.844  1.2170  1.5540  0.5916
11145TIP3   OH254925   5.360   1.356   4.737  0.2268 -0.7837  0.7087
11145TIP3    H154926   5.388   1.446   4.757 -2.7071 -0.0973  2.2662
11145TIP3    H254927   5.314   1.365   4.653 -0.5538 -0.7049  1.1412
11146TIP3   OH254928   4.268   2.288  16.326 -0.2345 -0.3277  0.2282
11146TIP3    H154929   4.346   2.234  16.316  0.8381  1.2634 -0.2920
11146TIP3    H254930   4.299   2.378  16.313 -2.3651  0.2649 -1.2927
11147TIP3   OH254931   2.160   3.318   1.615 -0.1197  0.3779 -0.3159
11147TIP3    H154932   2.162   3.275   1.529 -1.9685  1.1339 -0.8064
11147TIP3    H254933   2.125   3.406   1.596  0.6228  1.0030  1.0601
11148TIP3   OH254934   3.184   6.327   4.432 -0.0894 -0.9893 -0.1103
11148TIP3    H154935   3.232   6.245   4.447  1.0717 -0.5001 -0.9815
11148TIP3    H254936   3.229   6.367   4.357 -0.3439  0.6614  0.5878
11149TIP3   OH254937   3.959   3.607  16.929 -0.5834 -0.3224 -0.1058
11149TIP3    H154938   3.886   3.595  16.868  0.1605 -2.3788 -0.6805
11149TIP3    H254939   3.995   3.519  16.941  1.7302  0.5897  0.2429
11150TIP3   OH254940   2.968   4.413  16.524 -0.4070  0.1363 -0.3411
11150TIP3    H154941   2.949   4.454  16.609  0.3439 -0.7681  0.2852
11150TIP3    H254942   3.012   4.482  16.473 -2.2023  1.1635 -0.5723
11151TIP3   OH254943   4.550   1.562   3.382 -0.1150 -0.4776  0.5049
11151TIP3    H154944   4.630   1.566   3.434 -0.7380  1.3448  1.4019
11151TIP3    H254945   4.525   1.653   3.368  0.0003 -0.8428 -3.0708
11152TIP3   OH254946   5.897   0.003   5.956  0.2875 -0.2537 -0.0309
11152TIP3    H154947   5.922   0.036   5.869  1.0950  0.3552  0.4187
11152TIP3    H254948   5.858  -0.083   5.939 -0.4162  0.2479 -1.0853
11153TIP3   OH254949   4.975   2.871  13.791  0.2399  0.1350 -0.1167
11153TIP3    H154950   4.908   2.804  13.782 -0.6588  1.1109 -1.1033
11153TIP3    H254951   4.958   2.911  13.877 -1.6437  1.5519 -1.0681
11154TIP3   OH254952   4.152   1.809   1.886 -0.1773  0.2422  0.2963
11154TIP3    H154953   4.115   1.842   1.967  0.2707 -0.3980  0.7685
11154TIP3    H254954   4.245   1.799   1.904  0.6421  3.5603 -1.4299
11155TIP3   OH254955   2.461   5.586  15.000  0.1998 -0.1418 -0.0001
11155TIP3    H154956   2.425   5.661  14.952 -0.1147  0.4571  1.1263
11155TIP3    H254957   2.494   5.624  15.081  0.6998 -1.1295  0.2670
11156TIP3   OH254958   2.234   2.589  16.507 -0.5318 -0.2326  0.2619
11156TIP3    H154959   2.154   2.569  16.557 -1.1687  1.1076 -0.1663
11156TIP3    H254960   2.203   2.597  16.416  0.5519 -2.3132 -0.3383
11157TIP3   OH254961   3.853   2.279   5.837 -0.1052 -0.0851  0.3943
11157TIP3    H154962   3.866   2.282   5.932  1.4664  1.3775  0.1814
11157TIP3    H254963   3.832   2.369   5.812 -0.9964 -0.5441 -0.6090
11158TIP3   OH254964   2.477   1.697   5.396 -0.1019 -0.3055  0.1711
11158TIP3    H154965   2.452   1.605   5.409  0.3329 -0.3673  0.6022
11158TIP3    H254966   2.417   1.728   5.328  1.3270 -1.6082 -1.8389
11159TIP3   OH254967   5.240   3.544   0.154  0.2404 -0.3954  0.6158
11159TIP3    H154968   5.149   3.512   0.157 -0.1472  0.5597 -0.4113
11159TIP3    H254969   5.292   3.469   0.184 -0.9701 -0.5327  2.5506
11160TIP3   OH254970   4.750   1.246   3.679  0.0148  0.3099 -0.5007
11160TIP3    H154971   4.769   1.260   3.586  0.5432 -0.5857 -0.5428
11160TIP3    H254972   4.668   1.292   3.694 -0.0323  0.5422 -1.3926
11161TIP3   OH254973   3.344   3.627  14.036 -0.7413 -0.0072  0.6428
11161TIP3    H154974   3.321   3.542  14.071 -2.4078  0.7709  1.5765
11161TIP3    H254975   3.438   3.622  14.018 -0.9021 -2.1795  0.1771
11162TIP3   OH254976   4.509   0.847   0.842  0.0279  0.2162  0.3633
11162TIP3    H154977   4.500   0.785   0.914 -1.5941 -0.2664 -0.2126
11162TIP3    H254978   4.603   0.850   0.824  0.0665 -3.0676 -0.4639
11163TIP3   OH254979   5.468   0.863   4.304  0.3164 -0.3698  0.1851
11163TIP3    H154980   5.398   0.910   4.259  0.2931 -0.7552 -0.1951
11163TIP3    H254981   5.448   0.770   4.288  1.5743 -0.4781 -0.9801
11164TIP3   OH254982   6.033   2.959  11.762  0.6284 -0.0781  0.2152
11164TIP3    H154983   5.956   2.903  11.772 -0.7739  1.7069 -0.0976
11164TIP3    H254984   6.085   2.917  11.694 -0.4942 -0.8944 -0.1583
11165TIP3   OH254985   4.301   6.109   0.189 -0.0694  0.5245 -0.3662
11165TIP3    H154986   4.215   6.138   0.220  0.0705 -0.6078  1.1556
11165TIP3    H254987   4.310   6.020   0.221  1.8587  0.7596 -0.1366
11166TIP3   OH254988   1.919   1.583  11.268  0.3426 -0.2589  0.8962
11166TIP3    H154989   1.867   1.650  11.311 -0.2408 -0.2887  0.2624
11166TIP3    H254990   2.002   1.582  11.315  1.4670  2.8444 -0.7952
11167TIP3   OH254991   4.001   3.356  16.032  0.5879 -0.3836 -0.3432
11167TIP3    H154992   4.087   3.330  16.066  0.8136  0.4272 -0.2724
11167TIP3    H254993   4.013   3.358  15.937  0.6606 -0.2360 -0.3315
11168TIP3   OH254994   2.972   6.086   4.196 -0.0062  0.0134  0.5190
11168TIP3    H154995   2.946   6.083   4.104 -0.0528  0.5288  0.5136
11168TIP3    H254996   2.900   6.044   4.243 -1.0299  1.6687  0.5309
11169TIP3   OH254997   1.548   1.377   4.055  0.3599 -0.1355 -0.5544
11169TIP3    H154998   1.575   1.287   4.037  0.0946 -0.1728 -0.7700
11169TIP3    H254999   1.456   1.380   4.027  0.6516  0.4758 -1.4796
11170TIP3   OH255000   1.959   0.752   2.854  0.2217 -0.1625 -0.1036
11170TIP3    H155001   1.971   0.665   2.893 -0.5319 -0.0120  0.4779
11170TIP3    H255002   1.921   0.804   2.924 -3.8930 -0.6008 -1.7589
11171TIP3   OH255003   1.284   5.634   1.613  0.0197  0.3056  0.2766
11171TIP3    H155004   1.280   5.729   1.609 -0.1018  0.2382 -2.6284
11171TIP3    H255005   1.194   5.606   1.628 -0.1325  0.6055 -0.0869
11172TIP3   OH255006   2.202   4.689   1.597 -0.1205  0.2382  0.6923
11172TIP3    H155007   2.290   4.727   1.591 -0.0925  0.2818  1.3204
11172TIP3    H255008   2.170   4.716   1.683  0.6213 -2.6716  1.9941
11173TIP3   OH255009   1.279   6.339   4.944 -0.3286 -0.1249  0.3936
11173TIP3    H155010   1.257   6.428   4.973 -0.0547  0.9968 -2.5523
11173TIP3    H255011   1.374   6.338   4.937 -0.4111 -0.1661 -0.9263
11174TIP3   OH255012   2.930   0.085   2.304  0.1149 -0.2460  0.1997
11174TIP3    H155013   2.837   0.081   2.326 -0.6062  0.6073 -2.3108
11174TIP3    H255014   2.962   0.165   2.347 -0.7745  0.4218 -0.3530
11175TIP3   OH255015   3.361   1.806  13.879 -0.3216 -0.3054 -0.5901
11175TIP3    H155016   3.280   1.816  13.828 -0.7774  1.2776  0.3666
11175TIP3    H255017   3.377   1.893  13.916  1.6363 -0.6645 -0.4470
11176TIP3   OH255018   6.082   5.538   4.818  0.6305 -0.1722  0.0401
11176TIP3    H155019   6.140   5.463   4.817  1.7773  0.6870 -0.1265
11176TIP3    H255020   6.131   5.607   4.773  1.4165  1.9734  3.8150
11177TIP3   OH255021   0.953   6.814   1.965 -0.0020 -0.0427 -0.5410
11177TIP3    H155022   1.018   6.798   1.896  0.8129 -1.4449  0.5040
11177TIP3    H255023   0.915   6.728   1.981 -0.2143  0.2809  0.7255
11178TIP3   OH255024   1.284   3.416   4.040 -0.0346  0.1708 -0.2728
11178TIP3    H155025   1.260   3.325   4.061 -1.1757  0.8407  1.6822
11178TIP3    H255026   1.217   3.468   4.085  1.9922  2.0480  0.7500
11179TIP3   OH255027   6.638   1.630  14.921 -0.0624  0.1915  0.1923
11179TIP3    H155028   6.720   1.580  14.922 -0.9126 -1.2717 -0.2270
11179TIP3    H255029   6.588   1.592  14.849 -0.8374  1.5307 -0.0023
11180TIP3   OH255030   0.484   3.420   1.275  0.1845 -0.2296  0.2265
11180TIP3    H155031   0.528   3.381   1.350 -0.2528 -0.6997  0.2400
11180TIP3    H255032   0.413   3.360   1.254  0.5752 -0.3401 -0.8536
11181TIP3   OH255033   3.244   1.688   2.297 -0.4443  0.5096  0.4068
11181TIP3    H155034   3.309   1.676   2.365 -0.0473  1.3784  0.2067
11181TIP3    H255035   3.187   1.757   2.330 -1.9417 -0.9715  1.0457
11182TIP3   OH255036   1.495   1.170  10.557  0.1605  0.3162  0.1679
11182TIP3    H155037   1.502   1.240  10.622 -0.8532  0.9431 -0.3678
11182TIP3    H255038   1.561   1.191  10.492  0.7077  0.0660  0.6253
11183TIP3   OH255039   4.474   1.610  16.643  0.3875  0.2267 -0.1077
11183TIP3    H155040   4.563   1.601  16.610  0.2858 -0.6588 -0.1552
11183TIP3    H255041   4.484   1.656  16.727  0.7903  1.0081 -0.5805
11184TIP3   OH255042   4.440   4.894  17.085  0.4527 -0.4356 -0.1524
11184TIP3    H155043   4.410   4.803  17.097 -1.0027  0.0889  0.4872
11184TIP3    H255044   4.468   4.921  17.172 -1.4179  0.4668  0.2150
11185TIP3   OH255045   6.631   0.365  11.892 -0.0027 -0.0571 -0.5847
11185TIP3    H155046   6.572   0.298  11.926 -0.4885 -0.4890 -2.1820
11185TIP3    H255047   6.572   0.432  11.857  0.4614  0.1562 -0.9699
11186TIP3   OH255048   5.232   2.241  12.716 -0.3506 -0.1016  0.0970
11186TIP3    H155049   5.146   2.262  12.754 -0.6380  0.3702 -0.7859
11186TIP3    H255050   5.294   2.283  12.775 -0.7591  0.1274  0.3748
11187TIP3   OH255051   1.948   3.297  16.948 -0.5776 -0.5901  0.4072
11187TIP3    H155052   2.015   3.274  17.013 -1.4789 -1.4937  1.0660
11187TIP3    H255053   1.940   3.392  16.954  1.2519 -0.3564 -0.3233
11188TIP3   OH255054   0.696   0.435   4.279  0.5549  0.5653  0.5275
11188TIP3    H155055   0.622   0.432   4.340  0.4803 -1.3334  0.4005
11188TIP3    H255056   0.766   0.388   4.324  1.3248  1.3596  0.1747
11189TIP3   OH255057   6.260   0.269   4.035 -0.2309 -0.0566  0.2295
11189TIP3    H155058   6.229   0.210   4.104 -0.4094 -0.7329 -0.4120
11189TIP3    H255059   6.262   0.355   4.076  1.4562 -0.6968  1.6569
11190TIP3   OH255060   5.268   0.569  10.746 -0.0565 -0.0254 -0.2526
11190TIP3    H155061   5.214   0.490  10.737 -2.0864  1.0099  1.7888
11190TIP3    H255062   5.335   0.560  10.679 -1.8890 -2.1246 -1.9551
11191TIP3   OH255063   6.655   6.177  11.045  0.3778  0.2378 -0.4835
11191TIP3    H155064   6.701   6.145  11.122 -1.8406 -1.6292  0.1795
11191TIP3    H255065   6.709   6.151  10.971  0.5889 -1.6009  0.2737
11192TIP3   OH255066   0.186   0.603   1.710  0.8602  0.3185  0.3540
11192TIP3    H155067   0.197   0.511   1.735  4.1591  0.5330  0.0223
11192TIP3    H255068   0.165   0.599   1.616 -0.7076 -0.0867  0.6852
11193TIP3   OH255069   0.054   5.123  13.125  0.1581  0.0563 -0.1654
11193TIP3    H155070  -0.006   5.065  13.078 -0.2975  1.4544 -1.3972
11193TIP3    H255071  -0.001   5.168  13.189  0.1320  0.4462 -0.4580
11194TIP3   OH255072   3.591   0.271   5.332 -0.1866  0.5411  0.7535
11194TIP3    H155073   3.658   0.271   5.400  0.4679 -1.1219  0.1436
11194TIP3    H255074   3.510   0.249   5.378  0.5183 -2.2141  0.8202
11195TIP3   OH255075   1.241   4.429   5.870  0.2642  0.3783 -0.1800
11195TIP3    H155076   1.313   4.488   5.849  0.3740 -0.3572 -2.0546
11195TIP3    H255077   1.168   4.487   5.893  0.9772  1.1691  0.1395
11196TIP3   OH255078   4.378   2.389  12.774  0.0587 -0.3360 -0.0231
11196TIP3    H155079   4.352   2.414  12.863 -0.8230 -1.7460  0.1604
11196TIP3    H255080   4.435   2.460  12.744 -0.2863  0.5633  1.3578
11197TIP3   OH255081   0.079   6.620  10.603  0.1587  0.4246 -0.3114
11197TIP3    H155082   0.040   6.693  10.553 -0.7573  0.7786  0.8815
11197TIP3    H255083   0.044   6.541  10.561  1.5506  0.6178 -1.9362
11198TIP3   OH255084   6.043   4.882  12.434 -0.0305 -0.0479 -0.3164
11198TIP3    H155085   6.084   4.810  12.385  1.1001  0.9245 -0.8690
11198TIP3    H255086   6.072   4.868  12.524  0.1023 -0.3513 -0.4027
11199TIP3   OH255087   5.071   4.207   3.265 -0.0496 -0.1424 -0.3406
11199TIP3    H155088   5.037   4.210   3.175  1.0447 -0.2544 -0.7731
11199TIP3    H255089   5.107   4.294   3.280 -0.2600 -0.1147  0.0053
11200TIP3   OH255090   2.994   2.063  12.070 -0.3766  0.0435  0.1612
11200TIP3    H155091   2.955   2.151  12.062 -0.9062 -0.2798 -1.0658
11200TIP3    H255092   3.082   2.079  12.102 -0.1934  1.1060 -0.7980
11201TIP3   OH255093   4.854   1.355  14.990 -0.2184  0.1319  0.3625
11201TIP3    H155094   4.809   1.438  14.973  0.2062  0.1350 -0.8051
11201TIP3    H255095   4.783   1.291  14.998 -0.5127  0.4750  0.5474
11202TIP3   OH255096   2.273   4.262  12.182  0.5182  0.1360  0.0145
11202TIP3    H155097   2.196   4.313  12.206  1.3649  1.6598 -0.3730
11202TIP3    H255098   2.277   4.268  12.086  0.6027 -0.7256 -0.0473
11203TIP3   OH255099   5.991   6.697  15.011  0.3913 -0.3135  0.1764
11203TIP3    H155100   5.956   6.627  15.066 -0.1042  0.3666  0.7459
11203TIP3    H255101   5.914   6.737  14.971  0.7880 -1.4781 -1.9118
11204TIP3   OH255102   3.683   3.734   3.540  0.2694 -0.0380 -0.4163
11204TIP3    H155103   3.632   3.659   3.571  0.8283 -0.5415 -0.6854
11204TIP3    H255104   3.662   3.741   3.447  1.6070 -1.0444 -0.8389
11205TIP3   OH255105   6.186   3.457  15.937  0.0266 -0.2608 -0.4967
11205TIP3    H155106   6.166   3.451  16.031 -0.5408 -0.4583 -0.6305
11205TIP3    H255107   6.208   3.549  15.923 -1.1109  0.0395 -0.4097
11206TIP3   OH255108   5.791   3.188   4.705  0.0848 -0.2570  0.2238
11206TIP3    H155109   5.809   3.242   4.783 -1.8558  0.2062  0.4073
11206TIP3    H255110   5.740   3.115   4.738  1.3414 -1.3978 -0.2816
11207TIP3   OH255111   6.699   2.402  16.340 -0.1377 -0.9737 -0.3464
11207TIP3    H155112   6.612   2.438  16.321  0.2717 -0.9254 -2.2963
11207TIP3    H255113   6.755   2.479  16.351 -0.0781 -1.0134 -0.3734
11208TIP3   OH255114   5.958   3.263   2.856 -0.3628 -0.4002  0.1339
11208TIP3    H155115   5.893   3.274   2.786 -0.4361  0.9619  0.3997
11208TIP3    H255116   5.926   3.188   2.906 -0.8391 -0.7768 -0.7066
11209TIP3   OH255117   5.940   1.673   5.937  0.1866 -0.1011 -0.2112
11209TIP3    H155118   5.980   1.661   5.851  0.0969  0.6104 -0.3655
11209TIP3    H255119   5.848   1.689   5.918 -0.1625 -1.6117  0.1355
11210TIP3   OH255120   2.535   0.283  16.230 -0.0066 -0.0949 -0.7107
11210TIP3    H155121   2.517   0.362  16.179 -1.1490  1.3217  1.7013
11210TIP3    H255122   2.452   0.264  16.274  1.0016 -0.9774  0.9124
11211TIP3   OH255123   5.925   0.856   6.172  0.7103 -0.0782  0.0717
11211TIP3    H155124   5.973   0.825   6.095  1.2686 -2.1868  1.1860
11211TIP3    H255125   5.835   0.826   6.158  0.6629  0.1286 -0.0666
11212TIP3   OH255126   6.229   2.983   4.336  0.0518  0.2820 -0.2071
11212TIP3    H155127   6.209   3.077   4.330 -0.8570  0.1837  0.9405
11212TIP3    H255128   6.303   2.978   4.396 -0.2695  0.2308  0.1891
11213TIP3   OH255129   2.188   0.477  13.835  0.5176 -0.7628  0.1240
11213TIP3    H155130   2.115   0.445  13.782 -0.2499 -0.2065  0.8270
11213TIP3    H255131   2.172   0.442  13.923 -1.3964  2.8923  1.4382
11214TIP3   OH255132   3.760   6.813   1.065  0.2907 -0.0387  0.0371
11214TIP3    H155133   3.826   6.793   1.131  0.4368 -3.5052 -0.9271
11214TIP3    H255134   3.677   6.787   1.107 -0.0331  0.9255  0.0052
11215TIP3   OH255135   6.450   0.425   0.880  0.5567  0.1655  0.4423
11215TIP3    H155136   6.503   0.370   0.823 -0.1871  0.2784 -0.3813
11215TIP3    H255137   6.364   0.427   0.838  0.2744  1.0852  1.0340
11216TIP3   OH255138   0.424   4.415  14.217 -0.7365 -0.4014  0.6402
11216TIP3    H155139   0.401   4.336  14.266 -0.4927 -1.0147 -0.1972
11216TIP3    H255140   0.387   4.400  14.130  1.2488 -0.6505 -0.2233
11217TIP3   OH255141   0.871   2.888   1.908 -0.0119  0.0698  0.0249
11217TIP3    H155142   0.779   2.905   1.930  0.3344  1.5007  0.4896
11217TIP3    H255143   0.903   2.833   1.979 -0.4335 -0.2089  0.0041
11218TIP3   OH255144   6.013   5.759  14.621  0.0217 -0.9029 -0.5349
11218TIP3    H155145   5.991   5.851  14.637  0.7415 -0.6765 -0.8134
11218TIP3    H255146   6.106   5.760  14.601 -0.5187 -1.3089 -3.5620
11219TIP3   OH255147   4.619   3.149  12.720 -0.1548 -0.6140  0.0296
11219TIP3    H155148   4.650   3.194  12.798  0.7429 -3.0250  1.1912
11219TIP3    H255149   4.695   3.143  12.664 -0.0322 -1.3848  0.2655
11220TIP3   OH255150   1.150   1.454  10.822 -0.1055 -0.0360 -0.3112
11220TIP3    H155151   1.173   1.544  10.798  0.9069 -0.5671 -1.4106
11220TIP3    H255152   1.073   1.434  10.769 -1.3560  0.6866  1.1184
11221TIP3   OH255153   5.356   2.861  12.560  0.2953  0.2520 -0.1529
11221TIP3    H155154   5.395   2.920  12.495 -1.5729  0.7965 -0.8395
11221TIP3    H255155   5.274   2.903  12.585 -1.4423 -2.3220 -1.1398
11222TIP3   OH255156   0.545   6.816  14.747 -0.0411  0.6141 -0.6393
11222TIP3    H155157   0.525   6.850  14.660  1.3486  2.3120 -0.3304
11222TIP3    H255158   0.614   6.751  14.732  0.7115  1.4295 -0.7368
11223TIP3   OH255159   5.164   1.795  11.292  0.2595  0.5808 -0.9952
11223TIP3    H155160   5.231   1.859  11.268  3.2678 -0.1397  3.9586
11223TIP3    H255161   5.211   1.711  11.294 -0.8147 -0.0961  1.9045
11224TIP3   OH255162   4.266   3.375   3.489  0.2828  0.6321 -0.1200
11224TIP3    H155163   4.317   3.434   3.545 -0.1203  0.6939  0.1925
11224TIP3    H255164   4.258   3.295   3.540  1.0475  0.2130 -0.6524
11225TIP3   OH255165   6.718   2.615   0.450  0.4374 -0.3733 -0.2041
11225TIP3    H155166   6.795   2.671   0.455 -1.3751  2.3436 -0.5117
11225TIP3    H255167   6.732   2.562   0.372  2.1416 -0.2267 -0.0393
11226TIP3   OH255168   1.109   4.375  15.331 -0.6269  0.3071  0.7105
11226TIP3    H155169   1.138   4.466  15.340  0.0731  0.1511  0.1701
11226TIP3    H255170   1.038   4.365  15.394  0.1406  0.8701  1.6835
11227TIP3   OH255171   2.128   2.204   3.280  0.4449 -0.1646  0.0472
11227TIP3    H155172   2.173   2.285   3.306  1.1991 -0.2490 -0.9521
11227TIP3    H255173   2.036   2.229   3.275  0.8365  1.0826 -1.8163
11228TIP3   OH255174   3.729   2.507  12.961 -0.1968 -0.0305 -0.2012
11228TIP3    H155175   3.800   2.521  13.024 -0.9810  0.9323  0.4923
11228TIP3    H255176   3.774   2.496  12.877  0.8010 -0.0320  0.3178
11229TIP3   OH255177   1.344   6.822   2.504  0.0762 -0.2803 -0.8108
11229TIP3    H155178   1.390   6.871   2.573  0.9165 -1.2108 -0.6856
11229TIP3    H255179   1.251   6.836   2.522  0.2759 -0.7132  0.6654
11230TIP3   OH255180   5.882   3.242   1.347 -0.9586  0.6977  0.7560
11230TIP3    H155181   5.959   3.256   1.402 -0.4560  0.6104  0.0842
11230TIP3    H255182   5.874   3.322   1.295  0.2762 -0.2802 -1.0814
11231TIP3   OH255183   4.539   2.688  11.410  0.0484 -0.2029 -0.0293
11231TIP3    H155184   4.538   2.651  11.322 -1.4881 -2.4884  0.8588
11231TIP3    H255185   4.598   2.631  11.459 -1.0502 -0.5055  0.9776
11232TIP3   OH255186   4.605   2.119   1.616 -0.2848 -0.5552  0.3725
11232TIP3    H155187   4.693   2.105   1.581  0.7291  1.7038  1.7553
11232TIP3    H255188   4.562   2.175   1.552  0.0750  0.0997  0.6887
11233TIP3   OH255189   0.420   4.097   1.215 -0.2542 -0.1324 -0.6955
11233TIP3    H155190   0.330   4.066   1.229  0.4168 -1.9051  0.0681
11233TIP3    H255191   0.466   4.021   1.178  0.8575  0.8371 -1.3706
11234TIP3   OH255192   6.010   2.731  11.117  0.1853 -0.4544  0.4322
11234TIP3    H155193   6.011   2.641  11.084 -0.8409  0.8010 -3.6756
11234TIP3    H255194   6.094   2.767  11.087 -0.0061  0.3197  0.8196
11235TIP3   OH255195   2.839   2.079   1.464  0.5347 -0.1773 -0.3770
11235TIP3    H155196   2.766   2.070   1.525  1.0511  0.1592  0.3060
11235TIP3    H255197   2.799   2.110   1.383 -0.2711 -1.4040 -0.4767
11236TIP3   OH255198   0.747   1.747   4.529 -0.1151  0.2617  0.2157
11236TIP3    H155199   0.733   1.795   4.447  0.5779  1.9289  1.0292
11236TIP3    H255200   0.832   1.777   4.560  0.8257 -2.2359  0.3244
11237TIP3   OH255201   6.719   1.971  14.708 -0.2889 -0.2535  0.0985
11237TIP3    H155202   6.769   2.031  14.653  0.2153  0.0957  0.9171
11237TIP3    H255203   6.670   1.917  14.646  0.4169 -0.0121 -0.6927
11238TIP3   OH255204   2.206   3.231  15.705 -0.3064  1.0734 -0.1046
11238TIP3    H155205   2.152   3.209  15.781 -0.9169  1.3284 -0.4508
11238TIP3    H255206   2.265   3.157  15.695 -1.1757  0.3872 -0.2266
11239TIP3   OH255207   2.739   0.030  10.955 -0.0783 -0.3868  0.5088
11239TIP3    H155208   2.782   0.095  10.899  1.2170 -2.3371 -0.8908
11239TIP3    H255209   2.790   0.031  11.036  0.0763  0.1527  0.4096
11240TIP3   OH255210   3.588   2.509   3.213 -0.7044 -0.2088  0.5963
11240TIP3    H155211   3.519   2.443   3.221 -0.2041 -1.0157 -1.3540
11240TIP3    H255212   3.651   2.487   3.282 -0.1086 -2.3499 -0.5540
11241TIP3   OH255213   5.087   6.110  12.732 -0.2921 -0.0339 -0.2948
11241TIP3    H155214   5.090   6.170  12.806 -0.6809 -0.7563  0.3208
11241TIP3    H255215   5.177   6.079  12.722 -0.2993 -0.1990  0.1107
11242TIP3   OH255216   1.958   2.786   1.526  0.3118 -0.4358 -0.1065
11242TIP3    H155217   1.867   2.778   1.500  1.2566  0.0113 -4.2851
11242TIP3    H255218   1.999   2.705   1.495  1.7952  0.6181 -1.0344
11243TIP3   OH255219   0.093   4.191   2.269 -0.2637  0.0217 -0.2764
11243TIP3    H155220   0.166   4.190   2.330 -0.4361 -0.9200 -0.0769
11243TIP3    H255221   0.126   4.145   2.191 -0.2166  0.7607 -0.7134
11244TIP3   OH255222   0.083   2.175   4.524  0.3349  0.0200 -0.1440
11244TIP3    H155223   0.125   2.164   4.610  0.4679 -0.3712 -0.2583
11244TIP3    H255224   0.009   2.115   4.526  0.1052  0.2990 -0.1587
11245TIP3   OH255225   4.508   2.516   0.578  0.0956 -0.0015  0.0701
11245TIP3    H155226   4.592   2.474   0.559 -0.5939 -1.1639 -0.4951
11245TIP3    H255227   4.492   2.497   0.670  0.0096 -0.5883 -0.0646
11246TIP3   OH255228   3.479   2.918   6.511 -0.4740  0.5060 -0.8838
11246TIP3    H155229   3.557   2.973   6.505 -1.0946  1.7600  1.4202
11246TIP3    H255230   3.406   2.978   6.495 -1.0976  0.0533  0.1728
11247TIP3   OH255231   2.231   1.986   3.790  0.1145  0.3002 -0.7334
11247TIP3    H155232   2.254   1.922   3.858  0.0447  0.1722 -0.8309
11247TIP3    H255233   2.263   1.947   3.709  0.1786  0.4441 -0.7767
11248TIP3   OH255234   0.084   6.009  14.148 -0.0635  0.0409  0.2358
11248TIP3    H155235   0.116   6.094  14.180  1.3436  0.3849 -1.8570
11248TIP3    H255236   0.050   5.965  14.226  0.3365  2.0185  1.6002
11249TIP3   OH255237   3.124   2.033   4.625  0.4550  0.1395  0.1437
11249TIP3    H155238   3.041   2.025   4.672  0.2817 -0.1347 -0.1977
11249TIP3    H255239   3.116   1.971   4.552  0.4311  1.0554 -0.6508
11250TIP3   OH255240   5.075   5.873   2.402 -0.3914 -0.5196  0.4075
11250TIP3    H155241   5.093   5.828   2.320 -1.4025  1.1195 -0.7507
11250TIP3    H255242   5.055   5.802   2.464 -0.3601 -1.7428 -0.9400
11251TIP3   OH255243   2.473   2.065   0.741 -0.2722 -0.1189 -0.3692
11251TIP3    H155244   2.474   2.017   0.658 -0.7807  0.4468 -0.7151
11251TIP3    H255245   2.384   2.101   0.746  0.0671  0.6916 -0.0669
11252TIP3   OH255246   2.893   6.682   5.768 -0.5879 -0.2813  0.1423
11252TIP3    H155247   2.803   6.652   5.764 -0.9160  0.7728 -0.7348
11252TIP3    H255248   2.907   6.704   5.860 -0.9676 -1.1728  0.4193
11253TIP3   OH255249   3.849   2.015  11.756 -0.6392 -0.2682 -0.0020
11253TIP3    H155250   3.801   2.005  11.674 -0.5213 -1.8623  0.0944
11253TIP3    H255251   3.929   1.963  11.744  0.3634  1.1005  0.4014
11254TIP3   OH255252   0.755   6.025   2.946 -0.0419 -0.0751  0.0564
11254TIP3    H155253   0.831   5.980   2.982 -0.6705 -0.1436  1.3554
11254TIP3    H255254   0.723   6.079   3.018 -1.0375  0.1923 -0.5647
11255TIP3   OH255255   5.191   5.340  10.983 -0.7201  0.2058  0.0673
11255TIP3    H155256   5.220   5.263  11.032  2.2648 -1.0005 -3.1756
11255TIP3    H255257   5.230   5.414  11.029  1.9018 -0.8569 -0.2792
11256TIP3   OH255258   2.441   1.832   2.036  1.1814 -0.0555 -0.0947
11256TIP3    H155259   2.431   1.888   2.113 -0.0042 -0.3433 -0.0199
11256TIP3    H255260   2.520   1.864   1.993  2.7463 -0.8573  2.0371
11257TIP3   OH255261   5.165   0.793   5.414  0.2704 -0.4268 -0.3262
11257TIP3    H155262   5.251   0.820   5.448  0.2065 -0.1801 -0.3563
11257TIP3    H255263   5.102   0.836   5.472  0.1687 -1.0848  0.0532
11258TIP3   OH255264   5.010   0.026   2.980  0.7993  0.1820 -0.4088
11258TIP3    H155265   5.093   0.074   2.983  0.2381  1.2584 -1.3188
11258TIP3    H255266   5.017  -0.037   3.052  2.4973  0.0670 -0.6149
11259TIP3   OH255267   3.028   4.114   4.942 -0.0585 -0.2796 -0.4021
11259TIP3    H155268   3.115   4.107   4.980 -0.3650 -1.3246  0.1508
11259TIP3    H255269   2.970   4.078   5.009 -0.8918  0.1376 -0.8786
11260TIP3   OH255270   6.337   5.212  13.675 -0.0751  0.1640  0.1711
11260TIP3    H155271   6.298   5.256  13.751 -0.6319  1.0490 -0.6002
11260TIP3    H255272   6.295   5.254  13.599  2.4037  1.1955 -0.7152
11261TIP3   OH255273   5.360   0.647   1.026  0.3782 -0.1287 -0.3403
11261TIP3    H155274   5.427   0.628   0.960 -0.0402 -2.5093 -0.1599
11261TIP3    H255275   5.392   0.606   1.106  0.0004  1.1465  0.4924
11262TIP3   OH255276   3.304   3.665   3.414  0.0213 -0.2293  0.0404
11262TIP3    H155277   3.395   3.693   3.403  0.1285 -0.4489  0.3394
11262TIP3    H255278   3.277   3.704   3.497 -0.2517  0.0722 -0.1871
11263TIP3   OH255279   1.381   1.200  11.198 -0.3281 -0.1230  0.1477
11263TIP3    H155280   1.338   1.254  11.132 -0.1223  0.9034  0.8329
11263TIP3    H255281   1.460   1.167  11.154  1.2544  2.7181  0.6225
11264TIP3   OH255282   6.311   3.646   4.181 -0.5579 -0.0491 -0.3200
11264TIP3    H155283   6.404   3.621   4.185 -0.2252  1.2252  0.3359
11264TIP3    H255284   6.310   3.737   4.209 -1.9624  0.1039 -0.8298
11265TIP3   OH255285   5.226   4.423   0.589  0.8938 -0.3371  0.0740
11265TIP3    H155286   5.208   4.337   0.627  0.9362 -0.4144 -0.0836
11265TIP3    H255287   5.169   4.429   0.513 -1.4709  1.0240  1.7959
11266TIP3   OH255288   2.718   2.689   2.161  0.2781  0.0840  0.7923
11266TIP3    H155289   2.653   2.675   2.093 -0.5022  0.0971  1.5173
11266TIP3    H255290   2.724   2.784   2.170  2.6925  0.2428 -1.4008
11267TIP3   OH255291   6.608   6.568  10.380 -0.0714  0.3092 -0.0974
11267TIP3    H155292   6.696   6.592  10.349 -0.6468  0.1496 -1.9815
11267TIP3    H255293   6.616   6.476  10.405  0.4847  0.5221  0.5372
11268TIP3   OH255294   1.638   0.530  15.646 -0.0508  0.1196 -0.5539
11268TIP3    H155295   1.665   0.445  15.612 -1.5971 -0.3636 -0.6373
11268TIP3    H255296   1.596   0.573  15.571  0.1648  0.7034 -0.3398
11269TIP3   OH255297   0.719   5.057   0.990 -0.6366 -0.0951 -0.3769
11269TIP3    H155298   0.693   5.038   0.900  0.3337 -0.7820 -0.5297
11269TIP3    H255299   0.797   5.003   1.005 -0.8823 -0.1397  0.9349
11270TIP3   OH255300   1.612   0.681  11.046  0.1167 -0.2658 -0.2921
11270TIP3    H155301   1.538   0.662  11.104 -0.5597  0.7468 -0.7918
11270TIP3    H255302   1.631   0.774  11.063  0.6844 -0.2857 -0.8192
11271TIP3   OH255303   0.334   3.415  10.186  0.2391  0.2597 -0.3446
11271TIP3    H155304   0.361   3.498  10.226  0.7217  0.5418 -1.2305
11271TIP3    H255305   0.243   3.403  10.215  1.0754 -0.4113  2.2006
11272TIP3   OH255306   1.196   6.642   4.022 -0.3651  0.1827  0.5333
11272TIP3    H155307   1.276   6.692   4.042  0.5957 -0.3868 -1.6305
11272TIP3    H255308   1.131   6.709   4.004  0.3746  0.6800 -0.3751
11273TIP3   OH255309   1.749   3.749   0.565 -0.2371  0.3637 -0.5559
11273TIP3    H155310   1.725   3.824   0.511 -0.7017  0.9871  0.4953
11273TIP3    H255311   1.666   3.706   0.585 -0.0093 -0.2359 -0.8532
11274TIP3   OH255312   2.276   1.393  14.651 -0.3002  0.3463 -0.2063
11274TIP3    H155313   2.219   1.322  14.620 -0.5387  0.6125 -0.3892
11274TIP3    H255314   2.255   1.467  14.593 -0.0835  0.5760  0.0065
11275TIP3   OH255315   6.801   2.684  15.302  1.0214  0.1275 -0.2971
11275TIP3    H155316   6.863   2.615  15.323  2.8148  1.6578 -0.2644
11275TIP3    H255317   6.828   2.716  15.216  1.2709  1.8239  0.3708
11276TIP3   OH255318   4.443   5.924   2.412  0.4646 -0.3803  0.0232
11276TIP3    H155319   4.530   5.956   2.435  0.8664  1.4778 -3.3245
11276TIP3    H255320   4.384   5.994   2.442  0.4871 -0.1897 -0.3653
11277TIP3   OH255321   0.668   1.980   1.738  0.4948  0.4384 -0.1927
11277TIP3    H155322   0.583   1.936   1.747  1.0866 -0.7453 -0.1939
11277TIP3    H255323   0.696   1.959   1.649  1.2924 -0.1165  0.1806
11278TIP3   OH255324   3.433   6.146   1.555 -0.1521  0.1522 -0.4518
11278TIP3    H155325   3.355   6.094   1.537 -0.2902  0.3612 -0.4631
11278TIP3    H255326   3.504   6.100   1.509 -0.0193 -0.7842  0.6476
11279TIP3   OH255327   4.719   3.880  14.116  0.2415  0.1708 -0.3056
11279TIP3    H155328   4.735   3.891  14.210  0.5918 -0.1526 -0.3226
11279TIP3    H255329   4.661   3.952  14.093 -0.0123  0.1347  0.2038
11280TIP3   OH255330   6.309   1.459   5.703  0.0470  0.0796  0.0867
11280TIP3    H155331   6.254   1.535   5.719 -0.1799 -0.1374  0.3468
11280TIP3    H255332   6.354   1.479   5.621  1.2353  1.2118  0.9716
11281TIP3   OH255333   4.885   2.281  13.145  0.3431  0.2164 -0.4720
11281TIP3    H155334   4.908   2.219  13.214  0.6441 -0.2512 -0.9808
11281TIP3    H255335   4.887   2.366  13.187  0.6896 -0.0516  0.0578
11282TIP3   OH255336   3.032   5.427  14.366 -0.1283 -0.0461 -0.3755
11282TIP3    H155337   3.124   5.448  14.383 -0.6205  1.1117  1.0825
11282TIP3    H255338   2.994   5.415  14.453 -1.1729 -1.4372 -0.9837
11283TIP3   OH255339   2.330   4.951   2.881  0.5550  0.0616  0.7122
11283TIP3    H155340   2.253   4.939   2.826  0.0630 -0.0159  1.4099
11283TIP3    H255341   2.350   5.044   2.875 -0.2592  0.2878  1.3984
11284TIP3   OH255342   2.561   5.153  10.252 -0.1968 -0.3698  0.0375
11284TIP3    H155343   2.576   5.215  10.324  1.7356 -1.4997  0.6949
11284TIP3    H255344   2.468   5.131  10.259 -0.3324  0.4850  1.4287
11285TIP3   OH255345   2.625   1.005   1.420  0.1815 -0.5169  0.0883
11285TIP3    H155346   2.601   0.961   1.502  0.7016 -0.5110  0.2450
11285TIP3    H255347   2.564   1.079   1.415  0.7294  0.0256  0.9513
11286TIP3   OH255348   6.247   0.977  16.956 -0.4249  0.6193  0.4006
11286TIP3    H155349   6.250   0.959  16.862  0.8818  0.1746  0.4959
11286TIP3    H255350   6.209   0.899  16.995  0.1121  0.3207  0.3339
11287TIP3   OH255351   0.866   6.782  15.639 -0.5770 -0.1604  0.3093
11287TIP3    H155352   0.951   6.786  15.683 -0.1251 -3.2262 -0.0906
11287TIP3    H255353   0.888   6.773  15.546 -1.2747 -1.9249  0.2915
11288TIP3   OH255354   3.349   5.846   3.648 -0.9947  0.4095  0.1294
11288TIP3    H155355   3.298   5.798   3.583  0.1879 -1.2932  0.3947
11288TIP3    H255356   3.362   5.784   3.719  0.8754  0.9916  0.3519
11289TIP3   OH255357   1.643   2.867  16.299  0.4545 -0.5953  0.2864
11289TIP3    H155358   1.651   2.961  16.311  0.5240 -0.5551 -0.0660
11289TIP3    H255359   1.699   2.829  16.367  1.2915 -0.3642 -0.2553
11290TIP3   OH255360   2.544   5.525  11.296  0.2798  0.4111  0.2201
11290TIP3    H155361   2.471   5.496  11.242  0.2658 -0.9097  0.9084
11290TIP3    H255362   2.597   5.580  11.238 -1.4543  1.7589 -0.1596
11291TIP3   OH255363   4.438   1.561  12.404 -0.2678  0.3593 -0.5739
11291TIP3    H155364   4.531   1.580  12.396 -0.2037  2.1179  2.5524
11291TIP3    H255365   4.435   1.472  12.439  0.2791  0.4003 -0.4154
11292TIP3   OH255366   3.165   0.639  13.089  0.6175  0.3065  0.2743
11292TIP3    H155367   3.230   0.642  13.020  0.9384  0.2589  0.5708
11292TIP3    H255368   3.094   0.694  13.058 -0.2599 -1.4822 -1.1236
11293TIP3   OH255369   0.057   1.492   3.131 -0.1867  0.2097 -0.3640
11293TIP3    H155370   0.111   1.546   3.188 -0.3013  0.2423 -0.2847
11293TIP3    H255371  -0.033   1.521   3.150 -0.2453  0.0170 -0.3487
11294TIP3   OH255372   2.619   3.617  11.728  0.4688  0.2089 -0.2397
11294TIP3    H155373   2.644   3.667  11.805  0.4228  1.9682 -1.3082
11294TIP3    H255374   2.702   3.592  11.687  0.4939  0.1731 -0.1662
11295TIP3   OH255375   6.406   4.103  13.624 -0.2786  0.0975  0.7495
11295TIP3    H155376   6.323   4.148  13.611 -1.2030 -2.0898 -1.5897
11295TIP3    H255377   6.388   4.011  13.604  2.3179 -0.7619  1.8997
11296TIP3   OH255378   5.677   1.168  11.216 -0.2064  0.0582  0.1320
11296TIP3    H155379   5.703   1.122  11.296  0.5818 -1.2602 -0.8508
11296TIP3    H255380   5.642   1.100  11.159 -1.0961  1.0356 -0.5398
11297TIP3   OH255381   6.357   6.189   6.156 -0.9387 -0.5862 -0.4037
11297TIP3    H155382   6.414   6.133   6.208  0.1189  0.2076 -0.6655
11297TIP3    H255383   6.270   6.152   6.167 -0.4693 -1.4631  0.5138
11298TIP3   OH255384   2.305   0.719  11.976 -0.1475 -0.3655  0.1757
11298TIP3    H155385   2.365   0.739  12.047  0.2934 -1.2337  0.0696
11298TIP3    H255386   2.218   0.732  12.013  0.0695 -1.0559  0.9652
11299TIP3   OH255387   5.182   1.919  13.273 -0.4018 -0.5073 -0.2953
11299TIP3    H155388   5.234   1.960  13.342 -1.7127  1.1678 -0.2356
11299TIP3    H255389   5.242   1.910  13.199  0.1693  0.6913  0.0043
11300TIP3   OH255390   0.055   2.359   2.494 -0.3710  0.2723 -0.3572
11300TIP3    H155391   0.049   2.314   2.578  0.3315 -2.0513 -1.4775
11300TIP3    H255392   0.054   2.452   2.517 -0.4293 -0.2824  2.1841
11301TIP3   OH255393   1.941   4.146  11.573  0.5971  0.5016  0.3728
11301TIP3    H155394   2.020   4.122  11.525  0.2302 -0.2900  0.1308
11301TIP3    H255395   1.952   4.238  11.595  0.9553  0.7722 -0.8838
11302TIP3   OH255396   0.788   2.234   1.253  0.5407 -0.0430  0.5883
11302TIP3    H155397   0.818   2.325   1.248  2.5190 -0.2734  4.5048
11302TIP3    H255398   0.859   2.184   1.213 -0.5483  0.0071 -1.5666
11303TIP3   OH255399   2.850   3.949   1.719 -0.3198  0.1774 -0.2015
11303TIP3    H155400   2.906   4.026   1.708  2.5607 -1.7451 -0.3198
11303TIP3    H255401   2.861   3.925   1.811 -1.9847  0.4161  0.0896
11304TIP3   OH255402   0.357   3.767   3.073 -0.0687 -0.4688 -0.0203
11304TIP3    H155403   0.418   3.763   3.000  0.6992  1.9099  0.4053
11304TIP3    H255404   0.286   3.707   3.048  0.0926  0.3482 -2.7644
11305TIP3   OH255405   3.709   3.928   3.297 -0.0122  0.1933  0.5646
11305TIP3    H155406   3.770   4.000   3.313 -0.2597  0.3824  0.6618
11305TIP3    H255407   3.765   3.851   3.287  0.4364  0.7997 -2.1215
11306TIP3   OH255408   5.346   4.607   5.437  0.2449  0.1929  0.6317
11306TIP3    H155409   5.318   4.642   5.522  0.8490  0.0167  0.9036
11306TIP3    H255410   5.265   4.606   5.385 -0.4833 -1.1703  1.7041
11307TIP3   OH255411   3.029   6.156  13.056  0.8427  0.0021 -0.1704
11307TIP3    H155412   3.045   6.249  13.071 -3.0381  0.5027  2.5720
11307TIP3    H255413   2.971   6.153  12.981  0.6330 -0.1356 -0.0058
11308TIP3   OH255414   2.903   2.931   3.417  0.0167  0.3417  0.8218
11308TIP3    H155415   2.860   2.931   3.332  1.4335 -3.7451 -0.0828
11308TIP3    H255416   2.837   2.898   3.478 -0.3262  1.1979  0.9303
11309TIP3   OH255417   5.062   1.085   3.469  0.2183 -0.1499 -0.4809
11309TIP3    H155418   5.088   1.148   3.402 -0.4328 -0.0672 -0.6568
11309TIP3    H255419   5.077   1.131   3.552  0.9980 -0.2426 -0.5636
11310TIP3   OH255420   1.933   1.572   2.173  0.3478  0.3027  0.2565
11310TIP3    H155421   1.973   1.555   2.259 -0.0787 -0.7193  0.2708
11310TIP3    H255422   1.994   1.631   2.129  0.6398  0.7328  1.2119
11311TIP3   OH255423   4.459   0.422   1.487 -0.2277  0.3091  0.0634
11311TIP3    H155424   4.501   0.387   1.408  1.0692  1.7940  0.0445
11311TIP3    H255425   4.477   0.516   1.485 -1.6058  0.6545  1.2915
11312TIP3   OH255426   6.161   3.088   5.888  0.2945  0.2200  0.1686
11312TIP3    H155427   6.195   3.160   5.942 -0.2307  0.7078 -0.1425
11312TIP3    H255428   6.190   3.009   5.934  0.2483  0.6229  0.9221
11313TIP3   OH255429   3.139   4.468  15.819  0.6390  0.2494  0.8450
11313TIP3    H155430   3.170   4.549  15.780  1.0014 -0.2250  0.1251
11313TIP3    H255431   3.045   4.467  15.802  0.9550 -0.5053 -1.1189
11314TIP3   OH255432   2.015   5.935  15.231 -0.0558 -0.1264  0.4042
11314TIP3    H155433   2.099   5.967  15.197 -0.3448  1.0707  0.7409
11314TIP3    H255434   2.029   5.842  15.247  0.8942 -0.1508 -0.4858
11315TIP3   OH255435   4.553   3.379   3.566  0.5168  0.3665  0.6856
11315TIP3    H155436   4.488   3.445   3.591  0.2012  0.3385 -0.0431
11315TIP3    H255437   4.568   3.394   3.472  1.4463  0.2676  0.8086
11316TIP3   OH255438   1.820   0.643   1.649 -0.1897  0.6021 -0.3139
11316TIP3    H155439   1.891   0.687   1.696 -0.4013  0.1870  0.4259
11316TIP3    H255440   1.849   0.551   1.643 -0.2467  0.6172 -0.8445
11317TIP3   OH255441   2.800   5.045   1.693 -0.3153  0.0264 -0.3063
11317TIP3    H155442   2.707   5.027   1.701 -0.1864 -0.2505  0.7002
11317TIP3    H255443   2.843   4.965   1.724  0.2650 -0.2239 -1.6925
11318TIP3   OH255444   5.900   2.028   0.597  0.2448 -0.0300 -0.7805
11318TIP3    H155445   5.818   2.077   0.596 -1.7916 -2.8081  3.0087
11318TIP3    H255446   5.886   1.956   0.536 -0.3006 -0.6587  0.0709
11319TIP3   OH255447   5.145   1.459  17.167  0.1737  0.6769 -0.5481
11319TIP3    H155448   5.057   1.430  17.190 -0.1212  0.8306 -1.4621
11319TIP3    H255449   5.201   1.418  17.233 -0.4872 -0.1151 -0.4645
11320TIP3   OH255450   2.236   0.682   3.564 -0.3578  0.5233 -0.1881
11320TIP3    H155451   2.182   0.746   3.518  0.1078  1.6894  0.8208
11320TIP3    H255452   2.182   0.655   3.638 -1.1392 -1.4104 -1.3819
11321TIP3   OH255453   3.901   3.430   4.908 -0.3160 -0.2417 -0.0483
11321TIP3    H155454   3.807   3.422   4.925  0.0663 -0.4201  2.4827
11321TIP3    H255455   3.909   3.507   4.852 -1.9575 -0.1045 -0.1461
11322TIP3   OH255456   3.288   5.798   1.633 -0.4391  0.1727 -0.1471
11322TIP3    H155457   3.249   5.875   1.591  0.5569  2.7202  3.2227
11322TIP3    H255458   3.375   5.790   1.592 -1.1290 -0.2320 -1.6195
11323TIP3   OH255459   3.485   0.967  10.880 -0.3209  0.7462  0.0849
11323TIP3    H155460   3.476   1.023  10.958 -1.1534  1.8583 -0.7624
11323TIP3    H255461   3.396   0.963  10.844 -0.1493 -0.6561 -0.2198
11324TIP3   OH255462   5.941   3.343  15.173  0.0283  0.6206  0.1253
11324TIP3    H155463   5.944   3.419  15.230 -0.7185  0.1358  0.8355
11324TIP3    H255464   5.971   3.271  15.228  1.2454  0.4875 -0.6988
11325TIP3   OH255465   5.022   4.526  13.044  0.3861  1.0224  0.4867
11325TIP3    H155466   5.104   4.478  13.052 -0.0854 -0.0181 -0.6433
11325TIP3    H255467   4.990   4.535  13.134  0.7806 -0.2775  0.7713
11326TIP3   OH255468   3.682   3.652   2.158  0.1823 -0.5432 -0.9010
11326TIP3    H155469   3.604   3.606   2.188  0.3242 -0.4428 -0.3644
11326TIP3    H255470   3.732   3.671   2.238  2.2362 -3.1779 -1.4236
11327TIP3   OH255471   2.004   4.714  17.210  0.5006  0.3505  0.0867
11327TIP3    H155472   1.921   4.761  17.212 -0.0832 -0.6265 -0.5686
11327TIP3    H255473   1.987   4.636  17.157  1.9229  0.2971 -0.3363
11328TIP3   OH255474   3.715   4.109  10.618  0.1782  0.0040  0.1520
11328TIP3    H155475   3.757   4.023  10.612 -0.0893 -0.0890 -0.5308
11328TIP3    H255476   3.623   4.092  10.597  0.1567  0.4787 -0.1469
11329TIP3   OH255477   2.842   6.761   4.121 -0.0073  0.2917  0.1710
11329TIP3    H155478   2.820   6.689   4.061  2.6983  0.1824 -0.8413
11329TIP3    H255479   2.867   6.717   4.202  0.1152  0.1973  0.0829
11330TIP3   OH255480   0.437   6.335  11.392 -0.6357 -0.2002  0.4872
11330TIP3    H155481   0.354   6.352  11.348 -0.2003  1.6408  0.2990
11330TIP3    H255482   0.491   6.293  11.326  0.0634  2.6635 -0.9420
11331TIP3   OH255483   5.484   4.988   3.487 -0.7176  0.2703 -0.0362
11331TIP3    H155484   5.579   4.981   3.482 -0.8528 -0.6574 -2.3317
11331TIP3    H255485   5.454   4.984   3.396 -2.9718  0.3091  0.6351
11332TIP3   OH255486   4.857   3.090   3.286 -0.2349  0.1287  0.1629
11332TIP3    H155487   4.878   3.042   3.365 -0.8303 -0.8827 -0.2756
11332TIP3    H255488   4.788   3.152   3.312 -1.3470 -1.0734  0.1916
11333TIP3   OH255489   2.333   2.809   2.215  0.1063 -0.4375 -0.3741
11333TIP3    H155490   2.323   2.891   2.264  0.1551 -1.6522  1.7929
11333TIP3    H255491   2.245   2.772   2.213  0.2810 -0.8487 -0.4217
11334TIP3   OH255492   5.696   4.805   4.030 -0.4429 -0.2643 -0.0911
11334TIP3    H155493   5.611   4.849   4.042  0.0992  0.9861 -0.6326
11334TIP3    H255494   5.702   4.743   4.103 -1.3011  0.4659  0.6214
11335TIP3   OH255495   3.750   3.525  10.695  0.1317 -0.8412 -0.2406
11335TIP3    H155496   3.832   3.543  10.741 -0.8180  0.5288  0.9967
11335TIP3    H255497   3.691   3.490  10.762 -1.4553  1.6910 -0.1864
11336TIP3   OH255498   0.491   5.799   2.237  0.4442  1.3081 -0.3468
11336TIP3    H155499   0.504   5.719   2.288 -0.1051 -0.8460 -3.3035
11336TIP3    H255500   0.579   5.828   2.214  0.6386  0.3981 -0.8138
11337TIP3   OH255501   5.991   1.314  16.856 -0.1287 -0.2412 -0.0408
11337TIP3    H155502   6.003   1.407  16.873 -2.5985  0.4127 -1.3366
11337TIP3    H255503   6.072   1.287  16.813  0.2957  1.5215 -0.4328
11338TIP3   OH255504   6.391   5.152   3.995 -0.2025  0.6365 -0.4180
11338TIP3    H155505   6.317   5.188   3.947  0.4279  0.7502 -1.3286
11338TIP3    H255506   6.450   5.226   4.010  0.9453  0.1005 -2.0168
11339TIP3   OH255507   1.924   5.058  10.161 -0.6288 -0.2903  0.5582
11339TIP3    H155508   1.847   5.109  10.136 -0.7923 -0.3586  0.9090
11339TIP3    H255509   1.909   4.972  10.121 -0.3396 -0.0582 -0.0562
11340TIP3   OH255510   4.028   1.189   6.115  0.5071 -0.0479 -0.3432
11340TIP3    H155511   4.101   1.239   6.151 -0.7306  1.9156 -0.4428
11340TIP3    H255512   3.950   1.237   6.142 -1.0536 -3.6496  2.3882
11341TIP3   OH255513   2.595   3.542   5.437 -0.1509  0.1121 -0.0862
11341TIP3    H155514   2.555   3.558   5.352  1.3665  2.2428 -0.4957
11341TIP3    H255515   2.554   3.605   5.495 -0.5399 -0.7224  0.5530
11342TIP3   OH255516   2.092   1.658  12.671  0.3575 -0.1224  0.2040
11342TIP3    H155517   2.097   1.592  12.603  1.2665 -0.6149  0.7344
11342TIP3    H255518   2.095   1.742  12.624  0.0508 -0.4544 -0.4095
11343TIP3   OH255519   3.630   0.869  12.311  0.0105 -0.5187  0.4549
11343TIP3    H155520   3.718   0.833  12.320 -0.1328 -1.0352 -0.1466
11343TIP3    H255521   3.586   0.846  12.393  0.2892 -0.6696  0.5646
11344TIP3   OH255522   2.233   1.704  15.060  0.1075  0.4041 -0.3368
11344TIP3    H155523   2.284   1.664  15.131  0.4668 -1.4459 -1.5634
11344TIP3    H255524   2.275   1.674  14.980 -2.6052 -0.8776 -1.4169
11345TIP3   OH255525   4.378   2.821  17.280  0.5944  0.1873  0.0831
11345TIP3    H155526   4.345   2.732  17.295  1.1461  0.0997  0.8208
11345TIP3    H255527   4.321   2.877  17.333  0.0518  0.3169 -0.6209
11346TIP3   OH255528   4.271   2.952  11.705 -0.2404 -0.0128 -0.3643
11346TIP3    H155529   4.189   2.951  11.656 -0.4868 -0.1028  0.0435
11346TIP3    H255530   4.247   2.922  11.793  0.2776 -0.2855 -0.3142
11347TIP3   OH255531   1.262   0.357   5.932 -0.9375 -0.2842 -0.2113
11347TIP3    H155532   1.276   0.287   5.868 -0.8485 -0.4022 -0.0642
11347TIP3    H255533   1.194   0.323   5.990  0.1909 -0.9112  0.8062
11348TIP3   OH255534   5.389   0.811  13.592 -0.6216 -0.4266 -0.6535
11348TIP3    H155535   5.328   0.747  13.628 -0.9548  0.5914  0.6932
11348TIP3    H255536   5.460   0.815  13.656 -0.5668  0.4619 -0.7462
11349TIP3   OH255537   6.636   4.524   3.630 -0.2995  0.9291  0.3142
11349TIP3    H155538   6.572   4.457   3.654  0.3367  0.1357 -0.1279
11349TIP3    H255539   6.657   4.568   3.712  1.6342 -1.5547  1.3162
11350TIP3   OH255540   6.458   2.735   4.960  0.1418 -0.2081  0.2767
11350TIP3    H155541   6.508   2.660   4.993 -1.0617  0.1929  3.3138
11350TIP3    H255542   6.402   2.698   4.891 -0.1410 -2.0285  1.4340
11351TIP3   OH255543   5.543   1.798   6.306 -0.4181  0.0286 -0.3052
11351TIP3    H155544   5.562   1.888   6.277 -2.1060  0.2874 -0.7232
11351TIP3    H255545   5.486   1.763   6.238 -0.4368 -1.0843  0.2698
11352TIP3   OH255546   6.305   6.715  11.409  0.2068  0.0432 -0.3629
11352TIP3    H155547   6.259   6.654  11.351  0.6142 -1.3121  0.6989
11352TIP3    H255548   6.351   6.659  11.472 -0.6466  1.4336  1.6105
11353TIP3   OH255549   2.635   2.984   4.432  0.1835 -0.4924  0.1916
11353TIP3    H155550   2.651   2.981   4.337 -1.3113  0.7807 -0.1420
11353TIP3    H255551   2.708   2.934   4.470  1.2653 -0.3545 -1.5694
11354TIP3   OH255552   5.719   4.554   2.282 -0.4785  0.4808  0.8892
11354TIP3    H155553   5.663   4.482   2.312 -0.3242  0.6039  1.4813
11354TIP3    H255554   5.659   4.628   2.270 -0.4187  0.6787  1.7463
11355TIP3   OH255555   6.450   0.744   3.823  0.0042  0.2302  0.2866
11355TIP3    H155556   6.479   0.773   3.736 -1.3662 -0.5421 -0.4570
11355TIP3    H255557   6.530   0.721   3.869  0.9117  2.3412 -0.1226
11356TIP3   OH255558   4.742   1.609  14.929  0.0910  0.5421  0.2389
11356TIP3    H155559   4.830   1.636  14.904 -0.2273  1.7255  0.3392
11356TIP3    H255560   4.692   1.610  14.847  0.6266 -2.2333 -0.2340
11357TIP3   OH255561   0.012   3.130  10.671 -0.0635  0.2149 -0.3258
11357TIP3    H155562  -0.002   3.188  10.596 -0.8572  0.2960 -0.1257
11357TIP3    H255563   0.039   3.047  10.632  1.5331  0.8285 -0.5907
11358TIP3   OH255564   2.360   1.517   5.774  0.1144 -0.2413  0.5079
11358TIP3    H155565   2.428   1.571   5.736 -0.0416 -0.2785  0.1753
11358TIP3    H255566   2.400   1.431   5.784 -0.4763 -0.8094 -1.5448
11359TIP3   OH255567   6.268   0.851  12.274 -0.1028  0.9925  0.1994
11359TIP3    H155568   6.208   0.852  12.199 -1.8401  2.1141  1.5063
11359TIP3    H255569   6.305   0.940  12.276  1.7647  0.2797 -0.6530
11360TIP3   OH255570   0.427   1.194  10.805  0.3741  0.3741  0.2505
11360TIP3    H155571   0.355   1.182  10.743  2.1803  1.6036 -2.2694
11360TIP3    H255572   0.402   1.142  10.881 -2.9959  0.4921 -0.6095
11361TIP3   OH255573   5.698   0.146   1.194 -0.0884 -0.4888 -0.0797
11361TIP3    H155574   5.615   0.138   1.147 -1.0966 -2.8886  1.8803
11361TIP3    H255575   5.714   0.240   1.198 -1.8463 -0.0417 -1.9148
11362TIP3   OH255576   5.436   1.239  14.925  0.3068 -0.0183 -0.0890
11362TIP3    H155577   5.406   1.302  14.990 -1.7893  0.0146 -1.0022
11362TIP3    H255578   5.449   1.291  14.846 -0.5298 -0.5470 -0.5925
11363TIP3   OH255579   2.269   2.067   1.443  0.3858 -0.0304 -0.7006
11363TIP3    H155580   2.334   2.121   1.488  0.0424  0.2394 -0.5203
11363TIP3    H255581   2.267   1.986   1.493 -0.0225  0.2825 -0.1902
11364TIP3   OH255582   3.095   1.969  16.744  0.2904  0.4334 -0.5258
11364TIP3    H155583   3.119   1.955  16.835  0.5740 -1.1232 -0.8116
11364TIP3    H255584   3.176   1.998  16.702  0.4622 -0.0332 -0.5187
11365TIP3   OH255585   1.040   2.601   5.807 -0.0861 -0.1219 -0.5023
11365TIP3    H155586   1.030   2.638   5.895 -0.5375  0.2209 -0.6928
11365TIP3    H255587   1.128   2.563   5.806  0.8735  1.9933 -0.6882
11366TIP3   OH255588   4.649   5.311   1.659  0.2106 -0.0399 -0.6482
11366TIP3    H155589   4.592   5.384   1.637 -0.1340 -0.5314 -1.4457
11366TIP3    H255590   4.619   5.239   1.602  0.9066 -0.6287 -0.2909
11367TIP3   OH255591   5.289   6.766  12.397  0.7108  0.2524 -0.6321
11367TIP3    H155592   5.281   6.691  12.338  1.1797  0.4981 -1.0110
11367TIP3    H255593   5.355   6.740  12.461 -1.1224 -0.7740  0.9763
11368TIP3   OH255594   1.191   5.602  11.697 -0.4383 -0.1733  0.0020
11368TIP3    H155595   1.268   5.545  11.704  0.3205  0.8108 -0.1715
11368TIP3    H255596   1.122   5.545  11.662 -0.4231 -1.6406  2.1307
11369TIP3   OH255597   2.767   3.940  12.417  0.2392 -0.2619  0.0854
11369TIP3    H155598   2.754   3.881  12.343  3.2163 -2.8798  1.3793
11369TIP3    H255599   2.714   3.903  12.487 -0.4079  0.5720  0.0519
11370TIP3   OH255600   2.325   6.083  14.897  0.2993 -0.0123 -0.4196
11370TIP3    H155601   2.399   6.076  14.958  0.0937  0.0105 -0.1655
11370TIP3    H255602   2.359   6.050  14.814  0.6380  0.1367 -0.3404
11371TIP3   OH255603   2.964   6.063   1.712 -0.2971  0.1618  0.3809
11371TIP3    H155604   2.903   6.131   1.741  0.6343  1.2757 -0.1921
11371TIP3    H255605   2.930   5.982   1.752 -0.8049  1.1190  2.0098
11372TIP3   OH255606   6.183   3.339   1.869 -0.5975 -0.2645 -0.0309
11372TIP3    H155607   6.101   3.388   1.871 -0.0240  0.7343 -0.3287
11372TIP3    H255608   6.159   3.250   1.897 -1.4115  0.5149  1.8930
11373TIP3   OH255609   0.001   0.134  15.872 -0.6936  0.3363 -0.7085
11373TIP3    H155610   0.059   0.210  15.873  1.9371 -1.5701 -0.3718
11373TIP3    H255611   0.043   0.071  15.815 -1.1927 -2.0272  1.3364
11374TIP3   OH255612   5.134   2.176  16.291 -0.2071  0.5484 -0.5658
11374TIP3    H155613   5.078   2.101  16.314  1.2288  0.1302  2.0772
11374TIP3    H255614   5.175   2.151  16.208 -1.8114 -0.3500 -1.1294
11375TIP3   OH255615   3.621   5.019   2.877 -0.0463  0.3220 -0.4537
11375TIP3    H155616   3.660   4.938   2.846 -0.4940 -0.6337  1.3011
11375TIP3    H255617   3.683   5.052   2.942 -1.6851 -0.9177  1.9406
11376TIP3   OH255618   2.626   3.183   5.172 -0.6144 -0.3306 -0.3172
11376TIP3    H155619   2.547   3.130   5.176 -0.8367  0.0525  0.5970
11376TIP3    H255620   2.620   3.242   5.247 -0.0494  0.5395 -0.9359
11377TIP3   OH255621   0.059   6.525   0.526 -0.8935 -0.5245  0.5794
11377TIP3    H155622  -0.034   6.504   0.537 -0.9208 -0.3667  0.6656
11377TIP3    H255623   0.068   6.611   0.568 -1.3150  0.8731 -1.9847
11378TIP3   OH255624   2.441   4.339   4.526  0.2998 -0.5773  0.6965
11378TIP3    H155625   2.448   4.408   4.460 -1.1847 -2.1561 -1.2197
11378TIP3    H255626   2.518   4.283   4.510 -0.2865 -1.1959 -0.0196
11379TIP3   OH255627   6.623   1.005  12.580 -0.0837  0.3881 -0.3318
11379TIP3    H155628   6.655   1.029  12.493  1.6391 -0.7912 -0.0629
11379TIP3    H255629   6.555   1.070  12.599 -0.2417  0.8798 -2.3897
11380TIP3   OH255630   3.203   1.975  14.148 -0.1916  0.3043  0.3114
11380TIP3    H155631   3.271   1.909  14.140 -1.9035 -1.3320 -1.8803
11380TIP3    H255632   3.151   1.947  14.223 -0.9696 -0.9469 -0.6711
11381TIP3   OH255633   0.032   3.417  12.882  0.3970 -0.6423  0.0070
11381TIP3    H155634   0.112   3.386  12.923  0.8182  0.1755 -0.1656
11381TIP3    H255635   0.056   3.501  12.843 -0.8239  0.1769  0.9204
11382TIP3   OH255636   1.834   3.966  12.538 -0.0191  0.0015 -0.2799
11382TIP3    H155637   1.864   3.933  12.623 -0.5354  1.0119  0.3314
11382TIP3    H255638   1.804   3.889  12.491  0.2077 -0.5747  0.4938
11383TIP3   OH255639   4.097   6.144   4.572  0.1128 -0.8592  0.2592
11383TIP3    H155640   4.153   6.070   4.595 -0.7609 -2.1295 -1.4253
11383TIP3    H255641   4.147   6.193   4.508  1.0359  0.5548  1.9888
11384TIP3   OH255642   1.671   6.584  11.722 -0.3075 -0.3779 -0.0762
11384TIP3    H155643   1.595   6.640  11.704 -0.7367 -0.9418 -0.0592
11384TIP3    H255644   1.735   6.607  11.655  0.9106  2.5812  1.8635
11385TIP3   OH255645   5.884   1.656   4.003  0.1574 -0.4574  0.5376
11385TIP3    H155646   5.889   1.560   4.009 -1.1979 -0.5930 -0.2072
11385TIP3    H255647   5.794   1.677   4.027  0.8754  0.8198  2.4078
11386TIP3   OH255648   4.844   2.050   6.673 -0.2035 -0.3284  0.0412
11386TIP3    H155649   4.915   2.007   6.626 -0.0232 -0.1693  0.1710
11386TIP3    H255650   4.879   2.069   6.760 -0.1198  0.5076 -0.1648
11387TIP3   OH255651   4.603   0.985   6.596  0.0085 -0.5388 -0.5056
11387TIP3    H155652   4.641   0.914   6.648 -1.1647 -0.3526  0.6694
11387TIP3    H255653   4.538   0.941   6.540 -0.0188 -0.5167 -0.4911
11388TIP3   OH255654   4.586   4.272  16.615  0.1088  0.5604 -0.0336
11388TIP3    H155655   4.598   4.239  16.704 -1.3203  1.6185  0.6022
11388TIP3    H255656   4.572   4.366  16.627 -0.5843  0.6452 -1.3343
11389TIP3   OH255657   3.703   4.701   3.196  0.1119 -0.3869 -0.2587
11389TIP3    H155658   3.716   4.676   3.105  0.2209 -0.2867 -0.2690
11389TIP3    H255659   3.638   4.638   3.228 -0.9645  0.4157 -0.7833
11390TIP3   OH255660   2.140   4.876  11.520  0.3166  0.3678  0.6917
11390TIP3    H155661   2.057   4.916  11.543 -0.3248 -0.1766 -0.5583
11390TIP3    H255662   2.179   4.851  11.603 -0.3165  1.5028  1.3508
11391TIP3   OH255663   0.758   5.379  11.047  0.2243 -0.1772 -0.5351
11391TIP3    H155664   0.771   5.454  10.989  1.4976  0.7504  0.8765
11391TIP3    H255665   0.785   5.304  10.994 -0.5192  0.4053 -1.7844
11392TIP3   OH255666   5.009   6.712   2.695 -0.1426 -0.1852 -0.0138
11392TIP3    H155667   5.082   6.661   2.730 -0.1178 -0.4123 -0.3812
11392TIP3    H255668   4.989   6.776   2.762 -0.0670 -0.5832  0.3912
11393TIP3   OH255669   5.667   3.945   3.644  0.4939 -0.4865  0.6232
11393TIP3    H155670   5.705   3.870   3.689  0.6002 -0.2562  0.9222
11393TIP3    H255671   5.716   3.952   3.562  1.1448 -0.1547  1.0293
11394TIP3   OH255672   3.151   6.293   3.241  0.3538  0.4611 -0.2318
11394TIP3    H155673   3.189   6.377   3.270  0.8570  0.3951 -0.6874
11394TIP3    H255674   3.103   6.261   3.318 -0.1501  1.3424 -0.1676
11395TIP3   OH255675   3.229   0.019   0.596 -0.1666 -0.1912  0.1858
11395TIP3    H155676   3.251   0.104   0.558  0.6185  1.0706  3.1517
11395TIP3    H255677   3.297   0.004   0.662 -1.3971 -2.1738  1.0901
11396TIP3   OH255678   5.382   3.306  13.022  0.3220 -0.4335 -0.0275
11396TIP3    H155679   5.349   3.377  12.968  0.0437  1.3207  2.2797
11396TIP3    H255680   5.314   3.238  13.016  0.3698 -0.3632 -1.8906
11397TIP3   OH255681   2.034   2.120  14.148 -0.7187 -0.7148  0.0628
11397TIP3    H155682   2.067   2.030  14.149 -1.7817 -1.1332 -0.9780
11397TIP3    H255683   1.975   2.125  14.223 -2.1562 -1.4971 -0.9699
11398TIP3   OH255684   4.810   4.733   0.435 -0.1099  0.5435  0.3510
11398TIP3    H155685   4.825   4.650   0.389 -1.1453  0.2110  0.5682
11398TIP3    H255686   4.892   4.751   0.481  0.0752 -0.4568  0.4354
11399TIP3   OH255687   4.069   4.039   1.305  0.2736 -0.2672 -0.2586
11399TIP3    H155688   4.126   3.980   1.256  0.8877 -1.2872  1.6015
11399TIP3    H255689   3.990   3.989   1.322 -0.1082  0.2262 -0.5239
11400TIP3   OH255690   2.334   3.799  13.480  0.1598  0.1232 -0.2871
11400TIP3    H155691   2.320   3.767  13.569  1.2366  0.9898  0.2245
11400TIP3    H255692   2.368   3.888  13.491  0.2302  0.2854 -1.5662
11401TIP3   OH255693   0.523   4.053  16.447 -0.8183 -0.6143  0.1805
11401TIP3    H155694   0.545   3.996  16.520 -0.3403 -1.9502 -0.9718
11401TIP3    H255695   0.446   4.012  16.407 -0.2118 -0.6954 -0.9195
11402TIP3   OH255696   1.120   6.329  12.542  0.3531 -0.1287  0.3614
11402TIP3    H155697   1.106   6.248  12.493 -0.4216  0.1999  0.0242
11402TIP3    H255698   1.173   6.383  12.484  1.0735 -0.4777  0.6837
11403TIP3   OH255699   5.538   0.864  13.831  0.4407 -0.2194 -0.2398
11403TIP3    H155700   5.500   0.851  13.918  0.1605 -3.9768 -0.7581
11403TIP3    H255701   5.613   0.921  13.846 -0.9261  1.1045  2.0621
11404TIP3   OH255702   3.362   6.016  11.266 -0.2575 -0.2285  0.3908
11404TIP3    H155703   3.432   5.978  11.212 -1.2004 -0.3634 -0.7673
11404TIP3    H255704   3.374   6.110  11.257 -1.0997 -0.2378 -1.0074
11405TIP3   OH255705   0.029   2.125   1.881  0.0441 -0.0714 -0.0151
11405TIP3    H155706  -0.059   2.116   1.918  0.3115  0.5737  0.8042
11405TIP3    H255707   0.080   2.054   1.920  0.0730  0.0054  0.0875
11406TIP3   OH255708   1.933   1.253  15.997 -0.4340 -0.3825 -0.1375
11406TIP3    H155709   1.963   1.298  15.917 -1.2241  1.1053  0.3656
11406TIP3    H255710   2.011   1.247  16.052 -0.0812 -0.6265 -0.6511
11407TIP3   OH255711   4.873   4.041   2.797  0.1065 -0.4786 -0.3127
11407TIP3    H155712   4.839   3.951   2.802 -1.0796  0.0270  1.4828
11407TIP3    H255713   4.909   4.058   2.884 -0.6735  1.1413 -0.2657
11408TIP3   OH255714   3.336   0.900   5.203  0.0047  0.3965 -0.1858
11408TIP3    H155715   3.431   0.891   5.195 -0.0534 -0.3039 -0.1013
11408TIP3    H255716   3.321   0.995   5.197  0.5340  0.4023 -2.0985
11409TIP3   OH255717   0.170   1.723  11.156  0.4325  0.0072 -0.1318
11409TIP3    H155718   0.189   1.745  11.247  0.6077 -1.9619  0.3547
11409TIP3    H255719   0.076   1.705  11.155  0.3303  0.5376 -0.4691
11410TIP3   OH255720   1.312   6.078  16.290  0.4619  0.4069  0.2108
11410TIP3    H155721   1.278   6.146  16.232  0.4465  0.9960  0.8903
11410TIP3    H255722   1.235   6.040  16.331  0.4181 -0.5271 -0.6893
11411TIP3   OH255723   5.247   4.417  12.058  0.2516  0.1054  0.5360
11411TIP3    H155724   5.234   4.479  12.130 -3.2774 -1.2463  1.2855
11411TIP3    H255725   5.212   4.462  11.981  0.6288  0.1863  0.4089
11412TIP3   OH255726   2.174   5.697   0.922  0.5738 -0.1845  0.0809
11412TIP3    H155727   2.188   5.603   0.926  0.4112 -0.3767 -2.2255
11412TIP3    H255728   2.180   5.718   0.828  1.4523  2.2329  0.5952
11413TIP3   OH255729   2.872   3.808   1.474  0.9464 -0.2219  0.0937
11413TIP3    H155730   2.884   3.853   1.558  1.1035  1.9986 -1.0605
11413TIP3    H255731   2.786   3.767   1.482  0.6535  0.5471  1.0952
11414TIP3   OH255732   0.645   5.629   5.117  0.3357 -0.0946  0.7623
11414TIP3    H155733   0.592   5.649   5.040  1.6672  1.8720  0.2700
11414TIP3    H255734   0.661   5.535   5.112 -0.1741 -0.1219 -0.9933
11415TIP3   OH255735   0.154   6.548   3.084  0.4192 -0.6266  0.4477
11415TIP3    H155736   0.209   6.582   3.155  0.7406  1.0346 -0.5276
11415TIP3    H255737   0.204   6.566   3.005 -1.3160  0.6062 -0.4447
11416TIP3   OH255738   3.141   3.353  16.490  0.7005 -0.2474 -0.2636
11416TIP3    H155739   3.133   3.266  16.529  0.3653 -0.7053 -1.3199
11416TIP3    H255740   3.200   3.340  16.415  0.5272  0.4028 -0.5180
11417TIP3   OH255741   2.725   3.764  13.638 -0.6851 -0.5253  0.1270
11417TIP3    H155742   2.640   3.724  13.621 -0.2471 -1.5207  0.1445
11417TIP3    H255743   2.736   3.830  13.570 -0.1250 -2.5607 -1.8741
11418TIP3   OH255744   5.875   2.037   4.942  0.2824  0.3628 -0.0613
11418TIP3    H155745   5.897   1.948   4.967  1.5546  1.1040  1.6569
11418TIP3    H255746   5.941   2.061   4.876  0.3764  0.2740  0.0006
11419TIP3   OH255747   2.157   2.910   3.404  0.6839  0.0147 -0.2076
11419TIP3    H155748   2.142   2.889   3.312 -0.4552  1.1520 -0.3074
11419TIP3    H255749   2.090   2.862   3.452  0.9279 -0.1371 -0.0138
11420TIP3   OH255750   4.304   1.940  11.856 -0.2204  0.3773  0.5641
11420TIP3    H155751   4.354   1.977  11.929  1.0022 -0.5716  0.2533
11420TIP3    H255752   4.225   1.993  11.851  0.5479  1.6460  1.3832
11421TIP3   OH255753   6.535   2.857  15.781 -0.6129  0.2063 -0.1142
11421TIP3    H155754   6.462   2.919  15.772 -0.1324  0.8757  0.5021
11421TIP3    H255755   6.497   2.782  15.827 -0.9799  0.4401 -0.0305
11422TIP3   OH255756   3.662   0.506  14.766 -0.1290  0.3442 -0.8510
11422TIP3    H155757   3.733   0.552  14.811 -0.7499  0.4442  0.0494
11422TIP3    H255758   3.600   0.483  14.835 -0.8215 -0.0328 -1.5751
11423TIP3   OH255759   0.113   4.408  11.776 -0.3443 -0.3235  0.1655
11423TIP3    H155760   0.142   4.484  11.727  0.7465 -0.9425 -0.1602
11423TIP3    H255761   0.110   4.438  11.867 -0.6747  0.3142 -0.0465
11424TIP3   OH255762   3.711   6.482   2.493  0.4233 -0.5390 -0.0120
11424TIP3    H155763   3.729   6.558   2.437 -0.2505 -1.6015 -1.7524
11424TIP3    H255764   3.797   6.441   2.507  0.6575 -0.0026  0.1338
11425TIP3   OH255765   0.216   1.001  11.939 -0.0945 -0.4851 -0.7170
11425TIP3    H155766   0.130   1.005  11.979  0.6114 -3.0248  1.3625
11425TIP3    H255767   0.208   0.935  11.870  0.2740 -1.1105 -0.1737
11426TIP3   OH255768   5.701   0.871  14.875  0.2888 -0.3592  0.5309
11426TIP3    H155769   5.721   0.934  14.944  1.0126 -0.3656  0.3386
11426TIP3    H255770   5.607   0.879  14.861  0.5090  1.3630 -0.1517
11427TIP3   OH255771   4.610   6.593  13.046  0.7721 -0.6555  0.3127
11427TIP3    H155772   4.642   6.683  13.054  0.1311 -0.4906  1.1057
11427TIP3    H255773   4.549   6.582  13.119  0.7986 -1.7176  0.1907
11428TIP3   OH255774   1.524   2.729  11.274 -0.2459 -0.1299  0.4418
11428TIP3    H155775   1.574   2.647  11.269  0.7603  0.4964 -0.1986
11428TIP3    H255776   1.432   2.701  11.272  0.0720 -1.2113 -0.7265
11429TIP3   OH255777   4.753   1.758   3.879  0.2853 -0.2049 -0.2280
11429TIP3    H155778   4.827   1.818   3.873  0.2348  0.0771  1.4507
11429TIP3    H255779   4.712   1.762   3.792  1.3659  0.7507 -0.7206
11430TIP3   OH255780   6.520   1.499  11.316 -0.8647  0.1876 -0.1772
11430TIP3    H155781   6.451   1.477  11.254 -0.6960 -0.0159 -0.2942
11430TIP3    H255782   6.554   1.415  11.345  0.3171  0.2777 -1.2222
11431TIP3   OH255783   1.492   2.646   4.111 -0.1601 -0.2881  0.1361
11431TIP3    H155784   1.410   2.597   4.103  1.2370 -3.2078  2.3015
11431TIP3    H255785   1.474   2.711   4.179 -1.0263  0.0243 -0.3692
11432TIP3   OH255786   4.225   2.652   4.913 -0.2825 -0.4847  0.3081
11432TIP3    H155787   4.261   2.564   4.909 -1.2260 -0.9216  1.1369
11432TIP3    H255788   4.165   2.657   4.838 -1.1830 -1.0067  0.9670
11433TIP3   OH255789   4.731   5.360  14.891  0.1535  0.0474  0.1057
11433TIP3    H155790   4.800   5.379  14.954  1.4171  2.0497 -1.7059
11433TIP3    H255791   4.693   5.445  14.870 -0.2224 -0.5244 -1.7804
11434TIP3   OH255792   1.141   0.297   0.313 -0.3111  0.4357  0.4402
11434TIP3    H155793   1.157   0.314   0.221  1.7215  2.8160  1.1168
11434TIP3    H255794   1.182   0.213   0.331 -0.7513 -0.0536 -0.7952
11435TIP3   OH255795   3.056   1.047  13.852  0.1341  0.6409 -0.2170
11435TIP3    H155796   3.016   0.979  13.906 -0.3963  1.0445 -0.0860
11435TIP3    H255797   3.068   1.006  13.767  1.8923 -0.3142  0.4471
11436TIP3   OH255798   1.562   3.893   1.135  0.5501 -0.3451 -0.0448
11436TIP3    H155799   1.577   3.850   1.051  0.0384  0.1226 -0.3836
11436TIP3    H255800   1.482   3.853   1.169 -0.9169  1.4645 -1.1556
11437TIP3   OH255801   4.612   3.407  12.333 -0.3531  0.2244 -0.2852
11437TIP3    H155802   4.557   3.482  12.310 -2.7206 -0.7069  1.8300
11437TIP3    H255803   4.553   3.348  12.381  1.8816 -2.1251 -0.2084
11438TIP3   OH255804   4.093   3.209   0.272 -0.4446 -0.4900  0.3591
11438TIP3    H155805   4.074   3.124   0.312 -1.9628 -1.8838 -2.9204
11438TIP3    H255806   4.010   3.257   0.277  0.1250  0.4185  1.2969
11439TIP3   OH255807   6.692   5.567   6.445  0.3195 -0.0518 -0.1225
11439TIP3    H155808   6.778   5.542   6.479  1.4965  2.3837 -1.0729
11439TIP3    H255809   6.691   5.530   6.356  0.5675  0.2625 -0.2584
11440TIP3   OH255810   4.586   1.515   0.611  0.0038  0.2312  0.1160
11440TIP3    H155811   4.554   1.438   0.659 -0.6733  0.4834  0.0782
11440TIP3    H255812   4.635   1.565   0.677  0.2256 -0.0976  0.2048
11441TIP3   OH255813   4.498   2.661   3.376  0.1099 -0.1026 -0.1322
11441TIP3    H155814   4.437   2.703   3.314  0.2183 -0.0100 -0.1765
11441TIP3    H255815   4.451   2.661   3.459 -1.1892 -2.7206 -0.7660
11442TIP3   OH255816   0.174   1.641   2.063 -0.4930 -0.0299 -0.5102
11442TIP3    H155817   0.254   1.588   2.062 -0.5792 -0.3612  2.2237
11442TIP3    H255818   0.108   1.583   2.101 -1.3824  1.0580 -0.3511
11443TIP3   OH255819   5.434   6.433   2.678 -0.3786  0.4797 -0.2606
11443TIP3    H155820   5.441   6.498   2.607 -1.2221 -0.5526 -1.3293
11443TIP3    H255821   5.511   6.377   2.667 -0.5238  0.3034 -0.3748
11444TIP3   OH255822   4.083   4.900  12.087  0.1161  0.2275 -0.0874
11444TIP3    H155823   4.005   4.878  12.037  2.2345 -2.1169 -2.7729
11444TIP3    H255824   4.106   4.988  12.059 -0.4486  0.1226 -0.9029
11445TIP3   OH255825   0.629   4.282  16.968 -0.2210  0.2899  0.0694
11445TIP3    H155826   0.548   4.255  17.013 -0.7125 -1.0319 -1.5049
11445TIP3    H255827   0.697   4.229  17.009 -0.9296 -2.2826 -1.7994
11446TIP3   OH255828   0.426   3.714   2.526 -0.2453  0.3051 -0.3008
11446TIP3    H155829   0.384   3.647   2.472 -0.6087  1.3293 -1.3512
11446TIP3    H255830   0.459   3.778   2.462 -0.1237  1.2390  0.6738
11447TIP3   OH255831   2.145   0.525  16.358  0.0443 -0.2013  0.0409
11447TIP3    H155832   2.172   0.472  16.283 -0.1450 -2.5710  1.5377
11447TIP3    H255833   2.217   0.515  16.421 -0.8185 -0.1873  1.0490
11448TIP3   OH255834   1.033   2.135  16.896 -0.9795 -0.1643  0.2833
11448TIP3    H155835   0.948   2.110  16.861  0.1222  0.0681 -2.9252
11448TIP3    H255836   1.096   2.092  16.838  1.1035 -0.2501  2.4863
11449TIP3   OH255837   1.005   0.776   2.198  0.0729 -0.2979  0.3746
11449TIP3    H155838   0.941   0.709   2.224  0.1631 -0.3660  0.4213
11449TIP3    H255839   1.004   0.775   2.102 -1.4188  1.0477  0.3348
11450TIP3   OH255840   2.534   4.535   3.493  0.1745  0.2842 -0.0436
11450TIP3    H155841   2.536   4.441   3.510 -0.7286  0.1130 -0.8066
11450TIP3    H255842   2.487   4.544   3.410 -1.1711  1.4987  0.7913
11451TIP3   OH255843   2.892   1.586  14.469 -0.0444  0.0909 -0.5616
11451TIP3    H155844   2.949   1.515  14.497  0.5784  0.5899 -0.5489
11451TIP3    H255845   2.929   1.616  14.386  1.0057  1.8055  0.4540
11452TIP3   OH255846   2.344   0.778   4.323 -0.0122  0.0248 -0.1517
11452TIP3    H155847   2.425   0.769   4.274  0.1360 -1.2137  0.2982
11452TIP3    H255848   2.293   0.843   4.273  0.1936 -1.0585 -1.8649
11453TIP3   OH255849   0.294   2.134   0.693 -0.5818 -0.0652 -0.4866
11453TIP3    H155850   0.257   2.186   0.765  0.6354 -0.6488  0.5886
11453TIP3    H255851   0.346   2.196   0.643  0.7350 -0.1808  0.6990
11454TIP3   OH255852   1.834   5.128  11.249 -0.5508  0.0239 -0.0998
11454TIP3    H155853   1.853   5.057  11.311 -1.7885  0.5629  0.9503
11454TIP3    H255854   1.836   5.086  11.163  3.1274 -0.3875 -0.0040
11455TIP3   OH255855   6.385   1.279  13.880  0.1354 -0.9239  0.1215
11455TIP3    H155856   6.368   1.223  13.804  0.5861 -0.0264 -0.6599
11455TIP3    H255857   6.303   1.325  13.895  0.5328  0.1913 -0.9394
11456TIP3   OH255858   6.568   2.484  17.115  0.2950 -0.4865 -0.2901
11456TIP3    H155859   6.518   2.423  17.061 -0.7575  0.2961 -0.2468
11456TIP3    H255860   6.650   2.439  17.134  0.5945 -0.8895 -2.3258
11457TIP3   OH255861   0.396   1.193   0.239  0.1434 -0.0850  0.7099
11457TIP3    H155862   0.401   1.281   0.202 -1.0963 -0.1018  0.4364
11457TIP3    H255863   0.463   1.143   0.193 -2.2650 -0.5070 -2.7761
11458TIP3   OH255864   1.246   5.781  14.506 -0.5849 -0.2828 -0.3486
11458TIP3    H155865   1.340   5.769  14.520 -0.8127  0.4511  2.2038
11458TIP3    H255866   1.238   5.802  14.412  1.5806 -2.0240 -0.9966
11459TIP3   OH255867   4.108   3.772   3.624 -0.7915  0.5395  0.1360
11459TIP3    H155868   4.144   3.765   3.713 -0.6724 -0.1305  0.0384
11459TIP3    H255869   4.158   3.844   3.584 -0.7647  0.7662  0.5703
11460TIP3   OH255870   3.326   2.830  10.869  0.1365  0.0319 -0.1391
11460TIP3    H155871   3.265   2.757  10.859  0.7421 -0.4581 -0.3410
11460TIP3    H255872   3.400   2.807  10.813  0.0960  1.0727 -0.6424
11461TIP3   OH255873   5.794   6.235   5.614  0.3870  0.1943 -0.1221
11461TIP3    H155874   5.827   6.170   5.553  3.7912  0.0205  1.6705
11461TIP3    H255875   5.777   6.186   5.694 -0.2664  0.9958  0.2487
11462TIP3   OH255876   5.585   1.706   1.544  0.4083 -0.0066  0.4311
11462TIP3    H155877   5.639   1.628   1.544 -0.1295 -0.3834  0.2656
11462TIP3    H255878   5.631   1.768   1.487  1.3542  0.1749  1.3591
11463TIP3   OH255879   2.856   3.175  14.842 -0.3396  0.0530  0.1993
11463TIP3    H155880   2.830   3.265  14.823 -0.7178 -0.2568 -0.8622
11463TIP3    H255881   2.939   3.163  14.795  0.4783  0.2837  1.5468
11464TIP3   OH255882   4.762   0.978  13.130 -0.7259  0.1373 -0.0265
11464TIP3    H155883   4.740   0.886  13.144 -0.1305  0.1891  1.4017
11464TIP3    H255884   4.853   0.985  13.160 -0.7132  1.1669 -0.2750
11465TIP3   OH255885   6.322   2.579   4.194 -0.1246 -0.5221  0.0627
11465TIP3    H155886   6.253   2.527   4.152  0.5788 -1.6554  0.2595
11465TIP3    H255887   6.275   2.637   4.254 -1.0813  0.4727 -1.5674
11466TIP3   OH255888   2.723   1.809  12.234  0.2262  0.1348 -0.0255
11466TIP3    H155889   2.628   1.808  12.246  0.3065  0.4059  0.6681
11466TIP3    H255890   2.757   1.856  12.310  0.8319  1.0719 -0.8438
11467TIP3   OH255891   5.873   5.620  11.257  0.6049  0.4579 -0.2790
11467TIP3    H155892   5.911   5.694  11.303 -1.0210  2.2833 -1.6986
11467TIP3    H255893   5.780   5.642  11.248  0.2239 -1.3785 -1.4599
11468TIP3   OH255894   1.393   2.999  13.910 -0.2145  0.1072  0.5955
11468TIP3    H155895   1.309   2.986  13.954 -1.6418  2.0082 -1.3570
11468TIP3    H255896   1.393   2.935  13.838 -0.4660  0.7368  0.0198
11469TIP3   OH255897   0.623   4.655  13.687 -0.3164 -0.0434 -0.3127
11469TIP3    H155898   0.575   4.693  13.761  1.5024  1.9494 -0.0685
11469TIP3    H255899   0.601   4.711  13.613 -0.0465 -0.4323 -0.6944
11470TIP3   OH255900   2.571   2.037  12.608 -0.2592  0.1559 -0.4969
11470TIP3    H155901   2.567   2.129  12.635 -0.0893 -0.1553  0.6463
11470TIP3    H255902   2.546   1.988  12.686  0.4569 -0.8081 -0.8474
11471TIP3   OH255903   3.093   4.474  15.459 -0.5517 -0.1419  0.2085
11471TIP3    H155904   3.124   4.511  15.376 -0.5533 -2.4651 -0.9001
11471TIP3    H255905   3.036   4.402  15.434 -5.4390  2.5769  2.1786
11472TIP3   OH255906   0.641   4.305  12.871 -0.2554 -0.3855 -0.1329
11472TIP3    H155907   0.647   4.257  12.789 -0.7009 -0.2354 -0.2546
11472TIP3    H255908   0.730   4.304  12.906 -0.4617 -2.4060  0.4899
11473TIP3   OH255909   1.143   6.333   0.296  0.1468  0.1280 -0.1309
11473TIP3    H155910   1.157   6.266   0.363  0.9782 -0.3106 -0.7160
11473TIP3    H255911   1.068   6.383   0.327 -0.1922 -0.7754  0.5613
11474TIP3   OH255912   5.973   2.967   1.087 -0.2229  0.3254 -0.3373
11474TIP3    H155913   6.020   2.905   1.143 -0.9937  1.6706  1.9689
11474TIP3    H255914   5.896   2.991   1.139 -1.3316  1.2052 -2.2935
11475TIP3   OH255915   0.601   6.818   3.937 -0.0653  0.8900  0.1230
11475TIP3    H155916   0.510   6.788   3.931  0.0212  0.7064 -0.3293
11475TIP3    H255917   0.593   6.911   3.957 -0.3564  0.8887  0.0290
11476TIP3   OH255918   5.740   6.810   4.220  0.1092 -0.5283 -0.0609
11476TIP3    H155919   5.769   6.900   4.236  0.7283 -0.8468  0.6806
11476TIP3    H255920   5.820   6.764   4.191  0.2733 -1.2961  1.4989
11477TIP3   OH255921   1.678   2.175   4.430 -0.2697  0.0462 -0.0881
11477TIP3    H155922   1.591   2.166   4.389 -0.4852  2.4463 -0.2810
11477TIP3    H255923   1.660   2.178   4.524 -0.3085 -0.1330 -0.0886
11478TIP3   OH255924   4.225   2.209   3.879 -0.0160 -0.6211 -0.1921
11478TIP3    H155925   4.163   2.149   3.838  0.4849 -1.7032  0.5526
11478TIP3    H255926   4.254   2.162   3.957 -0.3222  1.0291  0.9483
11479TIP3   OH255927   5.473   2.072  13.772  0.7402 -0.0803 -0.2151
11479TIP3    H155928   5.396   2.083  13.827  0.2328 -0.7242 -0.7801
11479TIP3    H255929   5.520   1.998  13.811  0.6305 -0.2258 -0.3555
11480TIP3   OH255930   4.088   2.508  14.276  0.3996 -0.3042 -0.3596
11480TIP3    H155931   4.147   2.467  14.212 -2.3279 -2.5934 -1.6619
11480TIP3    H255932   4.070   2.438  14.339 -0.6122  0.4503  0.1950
11481TIP3   OH255933   0.259   5.226  14.543 -0.1620  0.4339 -0.4587
11481TIP3    H155934   0.241   5.318  14.563  0.9408  0.9183 -1.5249
11481TIP3    H255935   0.242   5.218  14.449  2.9401  0.4437 -1.1255
11482TIP3   OH255936   4.118   0.297   0.661 -0.3387 -0.7959 -0.1435
11482TIP3    H155937   4.095   0.308   0.569 -0.7429  0.4534  0.0855
11482TIP3    H255938   4.203   0.339   0.671 -0.4832 -0.5613  0.1304
11483TIP3   OH255939   0.661   2.525   3.982  0.4574 -0.4083 -0.0942
11483TIP3    H155940   0.725   2.508   3.913 -0.5349 -0.7749 -0.9434
11483TIP3    H255941   0.685   2.611   4.017 -0.0731  0.6047 -2.1029
11484TIP3   OH255942   0.426   1.448  13.118 -0.1221 -0.6242 -0.4753
11484TIP3    H155943   0.505   1.443  13.065  0.2704 -1.2120  0.1345
11484TIP3    H255944   0.445   1.393  13.195 -1.3473 -1.2931 -0.6120
11485TIP3   OH255945   3.088   6.247  15.286  0.3411  0.0766  0.8001
11485TIP3    H155946   3.001   6.242  15.245  1.4043  0.1048 -1.6461
11485TIP3    H255947   3.135   6.312  15.234  2.1517 -0.6623  1.4395
11486TIP3   OH255948   5.500   1.545  10.907 -0.4002 -0.0837  0.1268
11486TIP3    H155949   5.459   1.604  10.843 -0.5051 -1.2814 -0.9470
11486TIP3    H255950   5.555   1.602  10.960 -1.0945  1.0978 -0.3794
11487TIP3   OH255951   2.725   6.205   2.984 -0.4711 -0.6514 -0.3068
11487TIP3    H155952   2.750   6.133   2.927  1.3628  0.4732 -0.9895
11487TIP3    H255953   2.801   6.264   2.985 -2.5473  2.2876 -1.3786
11488TIP3   OH255954   5.098   3.149   1.478  0.5387 -0.3842 -0.5482
11488TIP3    H155955   5.013   3.183   1.449  0.8875  1.4058  0.3721
11488TIP3    H255956   5.077   3.068   1.524 -0.5059 -0.7120 -1.5604
11489TIP3   OH255957   0.618   5.715   1.492 -0.3898 -0.0526  0.0313
11489TIP3    H155958   0.703   5.672   1.479 -0.4688 -0.2036  0.0153
11489TIP3    H255959   0.626   5.797   1.442 -1.0332 -1.0623 -1.8346
11490TIP3   OH255960   5.699   2.511  15.137  0.3836  0.2037  0.2099
11490TIP3    H155961   5.716   2.516  15.043  2.4757  1.7091  0.6038
11490TIP3    H255962   5.699   2.602  15.166 -1.0083 -0.1929  1.5724
11491TIP3   OH255963   6.819   2.652   2.536 -0.4716  0.0335  0.2107
11491TIP3    H155964   6.724   2.654   2.546 -0.3458  2.2297  1.8111
11491TIP3    H255965   6.838   2.722   2.475  0.1351 -0.5146 -0.2436
11492TIP3   OH255966   0.027   2.854   5.304 -0.7919 -0.1723 -0.1785
11492TIP3    H155967   0.053   2.807   5.225  0.8520 -1.9131  1.2903
11492TIP3    H255968   0.048   2.946   5.286  0.4999 -0.6830 -1.3859
11493TIP3   OH255969   2.885   4.644   2.952  0.6830  0.6022 -0.7341
11493TIP3    H155970   2.812   4.703   2.934 -0.5588 -0.3565  0.8257
11493TIP3    H255971   2.958   4.701   2.974 -0.4100  1.5952  0.5062
11494TIP3   OH255972   0.351   5.722  15.922  0.0605  0.2323  0.0317
11494TIP3    H155973   0.286   5.663  15.883  0.3975 -1.4256  1.8265
11494TIP3    H255974   0.425   5.719  15.861 -0.2398 -0.5769 -0.3132
11495TIP3   OH255975   5.436   4.398  13.666  0.2044  0.0443  0.0852
11495TIP3    H155976   5.419   4.492  13.675 -0.5924  0.1171 -1.6548
11495TIP3    H255977   5.512   4.392  13.608  0.2048 -0.3798  0.1238
11496TIP3   OH255978   0.963   1.676  11.997 -0.1293 -0.4785 -1.1415
11496TIP3    H155979   0.993   1.675  11.906  1.1811  1.9454 -0.8463
11496TIP3    H255980   0.911   1.756  12.004  0.7149 -0.0201  0.4545
11497TIP3   OH255981   1.271   4.127   3.283  0.2871  0.5247  0.1155
11497TIP3    H155982   1.250   4.220   3.295  1.0856  0.7412 -0.0901
11497TIP3    H255983   1.299   4.098   3.370 -1.7248 -0.0265  0.6419
11498TIP3   OH255984   1.637   2.254   5.276 -0.5466 -0.0463 -0.2433
11498TIP3    H155985   1.590   2.172   5.262  0.8669 -1.0069  0.3805
11498TIP3    H255986   1.606   2.285   5.361 -0.6572 -0.2447 -0.2096
11499TIP3   OH255987   3.364   2.285   3.284  0.4378 -0.0261 -0.4012
11499TIP3    H155988   3.313   2.210   3.253  0.9146 -1.2343  1.6148
11499TIP3    H255989   3.320   2.361   3.244 -1.7826 -1.1554 -0.2805
11500TIP3   OH255990   3.213   0.369   3.411 -0.2660 -0.5054  0.5458
11500TIP3    H155991   3.231   0.411   3.495  0.0933  0.0883  0.1772
11500TIP3    H255992   3.121   0.389   3.392 -0.1501 -0.0463  0.4648
11501TIP3   OH255993   2.607   4.568   2.817 -0.2073 -0.1806 -0.6946
11501TIP3    H155994   2.663   4.491   2.825  0.1053  0.1944  0.9630
11501TIP3    H255995   2.519   4.532   2.802  0.2579 -0.7868 -2.1280
11502TIP3   OH255996   4.215   6.618   4.343  0.1911  0.2621  0.1166
11502TIP3    H155997   4.159   6.695   4.340 -0.8452 -0.5003 -0.8081
11502TIP3    H255998   4.247   6.607   4.253  1.7807  0.6174  0.5939
11503TIP3   OH255999   5.757   2.577  11.333 -0.2373  0.0553  0.8836
11503TIP3    H156000   5.811   2.597  11.256  1.1194 -0.8166  1.5679
11503TIP3    H256001   5.773   2.484  11.350 -1.1355  0.0428  1.7608
11504TIP3   OH256002   4.306   3.711  14.703 -0.5050  0.9210  0.2912
11504TIP3    H156003   4.217   3.719  14.735 -0.4802  0.0797  0.5904
11504TIP3    H256004   4.355   3.780  14.748 -0.9969  1.3767  0.1308
11505TIP3   OH256005   6.254   4.357  14.688  0.6198 -0.1804 -0.2210
11505TIP3    H156006   6.235   4.263  14.692 -1.0227  0.1431  0.4107
11505TIP3    H256007   6.257   4.377  14.594 -1.1635 -0.5131 -0.3867
11506TIP3   OH256008   3.913   3.939   5.198 -0.3363  0.8315  0.3768
11506TIP3    H156009   3.851   3.986   5.254 -1.9699  0.6419 -1.1673
11506TIP3    H256010   3.894   3.847   5.213  0.8683  0.7134  1.2541
11507TIP3   OH256011   4.187   0.862  16.676 -0.0933 -0.2151 -0.3501
11507TIP3    H156012   4.273   0.891  16.646  0.5626 -0.5951  1.0525
11507TIP3    H256013   4.196   0.768  16.691 -0.0751  0.0691  1.7914
11508TIP3   OH256014   3.861   4.338   0.372 -0.1819  0.5754  0.0992
11508TIP3    H156015   3.784   4.363   0.321  0.2031  2.2014  0.2448
11508TIP3    H256016   3.909   4.278   0.316  0.3732  2.5166 -1.6507
11509TIP3   OH256017   5.346   4.338   1.055 -0.0251 -0.1894 -0.5703
11509TIP3    H156018   5.388   4.406   1.108 -0.5804  0.3878 -0.8405
11509TIP3    H256019   5.341   4.376   0.967 -1.3011 -0.1374 -0.4936
11510TIP3   OH256020   0.317   3.172   0.859 -0.1798 -0.0022  0.2278
11510TIP3    H156021   0.405   3.206   0.874 -0.7333  0.6344  2.2494
11510TIP3    H256022   0.324   3.079   0.879  0.4189 -0.3834 -1.4945
11511TIP3   OH256023   2.723   5.420  13.068  0.2044  0.8120  0.1840
11511TIP3    H156024   2.675   5.390  13.145 -1.9441 -0.9954 -1.7164
11511TIP3    H256025   2.666   5.487  13.029  0.4501  0.5258 -0.6948
11512TIP3   OH256026   0.960   2.626   1.780  0.7970 -0.5459  1.0601
11512TIP3    H156027   0.894   2.572   1.824  0.1216 -2.2321 -1.7386
11512TIP3    H256028   0.919   2.711   1.770 -1.3131 -1.6971 -1.0561
11513TIP3   OH256029   5.835   1.110   1.913 -0.1890  0.4920  0.6588
11513TIP3    H156030   5.879   1.107   1.828  0.5610 -0.7899  1.0654
11513TIP3    H256031   5.902   1.083   1.976 -1.5714 -1.8839  1.2606
11514TIP3   OH256032   2.669   6.273  14.099  0.7735 -0.0720  0.4706
11514TIP3    H156033   2.624   6.188  14.095 -0.6591  0.6728  0.0082
11514TIP3    H256034   2.748   6.260  14.047  0.7058 -1.1904  0.6060
11515TIP3   OH256035   2.944   6.653   4.360 -0.2026  0.1538 -0.1153
11515TIP3    H156036   3.023   6.708   4.367 -0.1768  0.2187 -0.8712
11515TIP3    H256037   2.978   6.565   4.348 -0.2470 -0.0172  0.8837
11516TIP3   OH256038   1.658   2.327   3.842 -0.7052  0.3409  0.3588
11516TIP3    H156039   1.671   2.266   3.914  0.1333  2.2819  1.9306
11516TIP3    H256040   1.690   2.411   3.875  0.7197  1.1261 -2.6232
11517TIP3   OH256041   2.384   1.590  14.845  0.3441 -0.0252  0.0486
11517TIP3    H156042   2.415   1.673  14.810 -1.2407 -0.0381 -1.4813
11517TIP3    H256043   2.368   1.535  14.768 -1.2914 -0.7795  0.8775
11518TIP3   OH256044   3.053   3.101  16.177 -0.2042  0.0587  0.0322
11518TIP3    H156045   2.974   3.071  16.221  0.4206  0.0741  1.1978
11518TIP3    H256046   3.086   3.024  16.131  0.2261 -0.5152  1.2581
11519TIP3   OH256047   2.477   0.562  15.581  0.1864  0.4509 -0.0307
11519TIP3    H156048   2.521   0.541  15.498 -1.7172  1.0030 -1.2432
11519TIP3    H256049   2.415   0.632  15.558 -1.2470 -0.2148  1.5923
11520TIP3   OH256050   5.445   5.885  13.567 -0.3502  0.1024 -0.2908
11520TIP3    H156051   5.392   5.881  13.487 -1.8073 -1.1759  0.6751
11520TIP3    H256052   5.428   5.972  13.602 -2.3311 -0.4567  0.2734
11521TIP3   OH256053   4.506   5.256   2.716  0.2242 -0.0145  0.4577
11521TIP3    H156054   4.467   5.337   2.684  0.8096  0.6610  1.3980
11521TIP3    H256055   4.560   5.225   2.643  1.2088  1.2758  0.5899
11522TIP3   OH256056   4.855   5.609  13.753 -0.2483 -0.5709 -0.1495
11522TIP3    H156057   4.849   5.563  13.837 -0.4802 -0.7648 -0.2713
11522TIP3    H256058   4.786   5.675  13.758  1.3645  1.1221  0.8470
11523TIP3   OH256059   4.675   5.817   5.064 -0.4389 -0.1248 -0.1169
11523TIP3    H156060   4.582   5.826   5.043 -0.1958  1.5675 -0.6132
11523TIP3    H256061   4.717   5.804   4.980 -0.2412 -1.1910  0.1372
11524TIP3   OH256062   2.503   4.688  12.009  0.1817 -0.7839 -0.0386
11524TIP3    H156063   2.500   4.739  11.928  1.5196 -0.4088  0.1281
11524TIP3    H256064   2.415   4.696  12.045 -0.4573 -0.9962 -1.4672
11525TIP3   OH256065   2.708   1.855  16.283 -0.0547  0.5336  0.2227
11525TIP3    H156066   2.792   1.826  16.317  0.0605  2.3252  1.6195
11525TIP3    H256067   2.653   1.776  16.282  1.3083 -0.4402  0.2774
11526TIP3   OH256068   4.031   1.124   2.035 -0.7724  0.3444 -0.3093
11526TIP3    H156069   4.001   1.108   1.945 -0.5925  0.7688 -0.4511
11526TIP3    H256070   4.127   1.116   2.030 -0.8955 -2.3055  0.4056
11527TIP3   OH256071   1.277   4.354  11.168 -0.2510  0.0771 -0.0563
11527TIP3    H156072   1.293   4.317  11.081  0.9859 -1.3033  0.7280
11527TIP3    H256073   1.233   4.438  11.150  2.3347  1.1284 -2.1459
11528TIP3   OH256074   3.019   1.359  16.273  0.1637 -0.1105  0.0704
11528TIP3    H156075   2.936   1.381  16.231  0.1117  0.1774  0.3224
11528TIP3    H256076   3.029   1.424  16.343 -0.9389 -2.0209  2.1015
11529TIP3   OH256077   5.114   6.262  12.281  0.4860  0.6958  0.4084
11529TIP3    H156078   5.159   6.181  12.257  2.6827  1.8670  0.3028
11529TIP3    H256079   5.026   6.253  12.242  1.4918 -0.5809 -1.7612
11530TIP3   OH256080   4.658   5.129   1.867  0.2532  0.1678  0.2345
11530TIP3    H156081   4.581   5.091   1.823 -0.3467 -0.1895  1.5568
11530TIP3    H256082   4.677   5.208   1.817 -1.2747  0.5219  0.1587
11531TIP3   OH256083   5.610   5.449   3.532  0.4010  0.4574  0.1680
11531TIP3    H156084   5.571   5.366   3.560 -1.2423  1.0787 -0.1824
11531TIP3    H256085   5.580   5.513   3.596  0.8597  0.9652 -0.1091
11532TIP3   OH256086   0.001   5.460   3.461 -0.0635 -0.2040 -0.1203
11532TIP3    H156087  -0.004   5.398   3.388  0.0660  0.1313 -0.4177
11532TIP3    H256088  -0.088   5.496   3.468  0.0445  0.1390 -0.4490
11533TIP3   OH256089   2.168   5.959  16.710  0.4936  0.5015  0.1678
11533TIP3    H156090   2.132   5.871  16.719  1.1316  0.3927  2.1696
11533TIP3    H256091   2.093   6.014  16.687  0.0880 -0.5394 -1.0984
11534TIP3   OH256092   5.855   2.782  14.730  0.6561  0.0518 -0.5412
11534TIP3    H156093   5.822   2.845  14.666 -0.0799  0.1400 -0.0844
11534TIP3    H256094   5.900   2.716  14.677  0.0321  0.1041 -1.1638
11535TIP3   OH256095   0.723   2.378  12.919  0.0507 -0.3318  0.1826
11535TIP3    H156096   0.750   2.398  12.829  1.2021 -0.0357  0.5775
11535TIP3    H256097   0.677   2.295  12.913 -1.8071  0.7033 -0.9944
11536TIP3   OH256098   6.028   2.091  16.051  1.0154  0.1030  0.6809
11536TIP3    H156099   5.983   2.155  15.997 -2.2212 -3.9825 -2.1214
11536TIP3    H256100   5.965   2.070  16.120  1.0788 -1.4279  0.3056
11537TIP3   OH256101   0.687   5.034  14.969 -0.5600 -0.3722  0.2981
11537TIP3    H156102   0.729   4.950  14.986 -0.4953 -0.7287 -1.4104
11537TIP3    H256103   0.595   5.019  14.987 -0.5952 -0.9207 -0.2882
11538TIP3   OH256104   1.395   1.384  12.868 -0.1229  0.6285  0.6514
11538TIP3    H156105   1.411   1.478  12.857 -3.0171  1.0471 -0.9863
11538TIP3    H256106   1.460   1.342  12.812 -1.3987  1.9315 -1.9725
11539TIP3   OH256107   4.879   4.694   5.136 -0.3855  0.2018 -0.6595
11539TIP3    H156108   4.819   4.644   5.082 -0.1970 -1.2733  0.4170
11539TIP3    H256109   4.938   4.736   5.074 -1.1505 -0.1392 -1.6390
11540TIP3   OH256110   6.642   5.429   0.057 -0.4001  0.5084  0.0680
11540TIP3    H156111   6.683   5.393   0.135 -0.0858  1.2994  0.2825
11540TIP3    H256112   6.707   5.416  -0.012  0.9013  2.9912  0.6761
11541TIP3   OH256113   0.152   2.735  10.715 -0.0710 -0.0836  0.3599
11541TIP3    H156114   0.154   2.767  10.805  1.6586 -1.7833  0.9924
11541TIP3    H256115   0.242   2.746  10.683 -0.3800 -0.5881 -0.7519
11542TIP3   OH256116   4.555   5.972   6.058 -0.2378  0.0435 -0.0071
11542TIP3    H156117   4.465   5.990   6.033 -0.0483  0.2814 -0.5390
11542TIP3    H256118   4.608   6.014   5.990  0.2208 -2.4003 -1.2718
11543TIP3   OH256119   5.099   2.114   2.256  0.2770  0.0794  0.0266
11543TIP3    H156120   5.125   2.086   2.168  1.8489 -0.6553  0.6902
11543TIP3    H256121   5.046   2.042   2.289  1.1567 -0.4529  0.3147
11544TIP3   OH256122   3.753   0.711   0.059 -0.6435 -0.5292 -0.2335
11544TIP3    H156123   3.689   0.665   0.112 -0.3231  0.8409  1.4485
11544TIP3    H256124   3.707   0.731  -0.023 -1.2702 -2.3764 -0.3823
11545TIP3   OH256125   3.041   6.605   0.395 -0.3397  0.6074  0.1371
11545TIP3    H156126   3.097   6.552   0.337 -0.4438  1.8153 -1.1136
11545TIP3    H256127   3.016   6.544   0.465  1.0701 -0.4613 -0.2290
11546TIP3   OH256128   5.009   1.829   1.111 -1.0856  0.0195 -0.4410
11546TIP3    H156129   4.998   1.899   1.047  1.2310  1.0377  0.1674
11546TIP3    H256130   5.104   1.824   1.125 -1.4440 -0.5110  2.4746
11547TIP3   OH256131   0.256   5.323   1.668 -0.2337 -0.4325  0.1451
11547TIP3    H156132   0.281   5.392   1.730 -0.2223  0.3406 -0.7000
11547TIP3    H256133   0.192   5.270   1.716 -0.0659  0.0146  0.8869
11548TIP3   OH256134   4.178   2.484   2.463  0.1305  0.3592 -0.5167
11548TIP3    H156135   4.270   2.510   2.457  0.0064  0.9159 -0.1182
11548TIP3    H256136   4.176   2.394   2.431  0.7199  0.5366 -1.0833
11549TIP3   OH256137   0.660   0.686   6.098  0.1417 -0.3017 -0.6006
11549TIP3    H156138   0.617   0.601   6.110  0.5717 -0.2261  2.5683
11549TIP3    H256139   0.590   0.747   6.077 -0.7433 -0.8727  0.5773
11550TIP3   OH256140   5.385   0.895  16.508 -0.0831  0.2388 -0.0137
11550TIP3    H156141   5.349   0.824  16.562  0.2918 -1.3442 -1.7561
11550TIP3    H256142   5.318   0.912  16.442  0.3408  0.6550 -0.3439
11551TIP3   OH256143   0.694   3.442   3.943 -0.1387  0.2294 -0.0075
11551TIP3    H156144   0.735   3.385   3.878 -0.9061  0.8468 -1.0519
11551TIP3    H256145   0.659   3.381   4.009  2.0936 -0.3291  0.7572
11552TIP3   OH256146   4.461   0.548   0.037  0.3867 -0.0084 -0.0556
11552TIP3    H156147   4.488   0.473   0.089  0.3307 -0.4216 -0.6139
11552TIP3    H256148   4.402   0.597   0.094  2.5949  1.1776  1.3962
11553TIP3   OH256149   5.362   2.957  13.101  0.3323 -0.1526 -0.8300
11553TIP3    H156150   5.287   2.956  13.041 -1.4727 -1.2888  1.2876
11553TIP3    H256151   5.401   2.870  13.092  0.3168 -0.1749 -0.6896
11554TIP3   OH256152   3.027   1.093   2.141 -0.4470 -0.2424 -0.3564
11554TIP3    H156153   2.994   1.144   2.067 -0.8548 -1.7630 -1.2791
11554TIP3    H256154   3.108   1.137   2.167 -1.2955  1.4275 -0.4406
11555TIP3   OH256155   1.567   2.976  11.108 -0.0085  0.2171 -0.4416
11555TIP3    H156156   1.610   3.014  11.031 -1.1869  0.4236 -1.0065
11555TIP3    H256157   1.574   3.044  11.175  0.3646  0.3221 -0.5804
11556TIP3   OH256158   2.693   2.071  13.976  0.1628  0.2254 -0.6748
11556TIP3    H156159   2.779   2.051  13.939 -0.2127 -0.0726 -1.4042
11556TIP3    H256160   2.712   2.104  14.064  1.0692  0.9187 -1.1121
11557TIP3   OH256161   6.759   0.500   3.639 -0.0533 -0.3193  0.0586
11557TIP3    H156162   6.760   0.413   3.679 -0.9417 -0.3511  0.0375
11557TIP3    H256163   6.817   0.553   3.694  0.5164 -0.9243  0.0570
11558TIP3   OH256164   4.922   4.477   4.946  0.6944 -0.7002 -0.4945
11558TIP3    H156165   4.947   4.462   4.855  0.5527 -1.0508 -0.4749
11558TIP3    H256166   4.868   4.401   4.970  1.7177 -1.2253  0.2435
11559TIP3   OH256167   0.096   0.734   1.184  0.0878  0.7832 -0.0101
11559TIP3    H156168   0.108   0.775   1.099  0.4844  0.9458  0.1184
11559TIP3    H256169   0.003   0.712   1.188  0.2847 -0.2903 -0.9660
11560TIP3   OH256170   2.052   2.098  11.503  0.2154 -0.9317 -0.2627
11560TIP3    H156171   1.983   2.117  11.566 -0.7726 -1.2104 -1.2268
11560TIP3    H256172   2.103   2.027  11.543 -1.5143 -2.4141 -0.5491
11561TIP3   OH256173   3.440   3.067   0.160  0.1947 -0.0157 -0.0313
11561TIP3    H156174   3.495   3.080   0.237  1.9217 -2.6117 -0.6811
11561TIP3    H256175   3.416   2.974   0.163 -0.0747 -0.0819 -2.3280
11562TIP3   OH256176   6.413   3.600  15.319 -0.0165  0.2178 -0.1831
11562TIP3    H156177   6.379   3.681  15.357 -0.5112 -0.1814  0.2391
11562TIP3    H256178   6.359   3.531  15.356 -0.0943 -0.2482 -1.1191
11563TIP3   OH256179   1.926   2.581  15.908  0.3547 -0.3453  0.4341
11563TIP3    H156180   1.930   2.571  15.813 -0.3668  0.4478  0.3099
11563TIP3    H256181   1.998   2.641  15.929  2.1572 -2.4931  0.7168
11564TIP3   OH256182   4.258   2.158  11.477  0.1932 -0.7523  0.6957
11564TIP3    H156183   4.288   2.200  11.558  2.2177  0.6051 -0.6536
11564TIP3    H256184   4.169   2.191  11.465  0.9820  1.6385  0.7636
11565TIP3   OH256185   1.449   1.921   4.672 -0.2922  0.7086 -0.3203
11565TIP3    H156186   1.405   1.882   4.596 -0.0821  0.5221 -0.3467
11565TIP3    H256187   1.384   1.913   4.743 -1.1577  2.4365 -0.8711
11566TIP3   OH256188   0.874   5.804  15.763 -0.2179  0.3161 -0.9016
11566TIP3    H156189   0.849   5.849  15.844 -1.4139  0.0960 -1.1366
11566TIP3    H256190   0.949   5.751  15.788  1.1463  2.2803 -0.5697
11567TIP3   OH256191   1.440   0.386  14.536  0.3154 -0.3713  0.7539
11567TIP3    H156192   1.349   0.359  14.542  0.7743 -1.6376  3.4912
11567TIP3    H256193   1.489   0.304  14.534  1.4735  0.2880  1.1768
11568TIP3   OH256194   5.468   2.389  16.987 -0.3173 -0.3622  0.4013
11568TIP3    H156195   5.514   2.311  17.017  0.1474  0.1417  1.0164
11568TIP3    H256196   5.462   2.446  17.064 -1.8765 -0.3582  0.3128
11569TIP3   OH256197   1.092   4.685   5.342  0.0324 -0.0406  0.0731
11569TIP3    H156198   1.063   4.661   5.430  2.0881  0.3849  0.9436
11569TIP3    H256199   1.014   4.680   5.288 -1.7629  1.6682  2.3161
11570TIP3   OH256200   5.745   4.721   0.520 -0.1554 -0.2360 -0.2349
11570TIP3    H156201   5.718   4.803   0.562 -0.3813 -0.0346 -0.7716
11570TIP3    H256202   5.805   4.681   0.583  0.2484  0.5170 -0.1312
11571TIP3   OH256203   0.394   0.612   1.200  0.0750  0.2657 -0.0118
11571TIP3    H156204   0.439   0.691   1.229  0.5692 -0.1436  0.3623
11571TIP3    H256205   0.313   0.643   1.159  0.0496  0.9342  0.5392
11572TIP3   OH256206   3.427   3.730  15.541 -0.0240 -0.1844 -0.1954
11572TIP3    H156207   3.508   3.776  15.518 -0.4203  0.4084 -0.4098
11572TIP3    H256208   3.440   3.641  15.505 -0.1418  0.3798 -1.7265
11573TIP3   OH256209   0.582   2.761  17.040 -0.0993  0.0520 -0.1074
11573TIP3    H156210   0.508   2.708  17.070 -0.3260  0.6205  0.3505
11573TIP3    H256211   0.568   2.847  17.079 -0.4381  0.8537 -1.8603
11574TIP3   OH256212   5.477   6.135  14.234 -0.3605  0.0667 -0.3993
11574TIP3    H156213   5.424   6.198  14.283  0.0134  0.4107 -0.4368
11574TIP3    H256214   5.432   6.052  14.246  0.3006 -0.0601  1.4062
11575TIP3   OH256215   4.235   3.461  15.416  0.1622 -0.0134  0.3429
11575TIP3    H156216   4.150   3.496  15.443 -0.0613 -0.2061 -0.0961
11575TIP3    H256217   4.233   3.369  15.444  1.0090  0.4702  2.0925
11576TIP3   OH256218   2.640   4.268  10.978 -0.3717  0.1026 -0.3136
11576TIP3    H156219   2.593   4.335  11.027 -1.3858 -1.0730  0.3643
11576TIP3    H256220   2.730   4.303  10.971 -0.8977  1.5814 -0.1360
11577TIP3   OH256221   0.633   0.666   1.024  0.0218 -0.6724 -0.4000
11577TIP3    H156222   0.543   0.636   1.038 -0.0567 -1.0766 -1.6446
11577TIP3    H256223   0.686   0.607   1.077 -0.4251 -0.4901  0.2708
11578TIP3   OH256224   3.534   5.555  17.195 -0.2209  0.3108  0.2932
11578TIP3    H156225   3.579   5.527  17.275 -0.0449 -1.1184 -0.2667
11578TIP3    H256226   3.538   5.650  17.197 -0.0941  0.2996  1.9104
11579TIP3   OH256227   0.094   4.260   2.982 -0.8519  0.7416 -0.2888
11579TIP3    H156228   0.023   4.201   2.957  0.7822 -1.5622  0.0825
11579TIP3    H256229   0.054   4.324   3.040 -2.9133  0.5537 -1.4205
11580TIP3   OH256230   2.951   0.407  11.595 -0.6028  0.1573  0.2212
11580TIP3    H156231   3.043   0.387  11.583 -0.4898 -0.3084  1.7580
11580TIP3    H256232   2.928   0.370  11.680 -1.9130  1.2823  0.4000
11581TIP3   OH256233   0.924   3.187   0.806 -0.4261 -0.1252 -0.3165
11581TIP3    H156234   1.017   3.167   0.821 -0.7183 -0.8056  0.7274
11581TIP3    H256235   0.924   3.280   0.782  0.7618 -0.7756 -3.1695
11582TIP3   OH256236   3.729   4.998   4.211 -0.7436  0.8451 -0.2869
11582TIP3    H156237   3.771   5.020   4.128 -0.0221 -0.7007 -0.3809
11582TIP3    H256238   3.763   5.063   4.273  0.8924  0.3652 -0.6315
11583TIP3   OH256239   6.252   4.551   0.835  0.3833  0.1949 -0.2562
11583TIP3    H156240   6.165   4.511   0.835  0.4003  0.1234 -1.3121
11583TIP3    H256241   6.312   4.476   0.836  0.4455  0.2484  0.8465
11584TIP3   OH256242   0.493   2.358   3.584  0.1057  0.1602 -0.6594
11584TIP3    H156243   0.405   2.337   3.554  0.2367 -0.3835 -0.6870
11584TIP3    H256244   0.514   2.289   3.647  0.6566  0.0467 -0.9546
11585TIP3   OH256245   4.000   1.631  15.089  0.9994  0.0355  0.1364
11585TIP3    H156246   3.915   1.673  15.077 -0.7547 -3.0114  0.8096
11585TIP3    H256247   4.053   1.696  15.135 -1.5116  1.4413  1.2073
11586TIP3   OH256248   2.244   5.499  15.907 -0.7159 -0.0657  0.7196
11586TIP3    H156249   2.251   5.416  15.954 -1.6143 -0.5954 -0.0400
11586TIP3    H256250   2.202   5.559  15.969  2.1110  0.5954  2.1596
11587TIP3   OH256251   0.677   4.314   1.078 -0.7180  0.2891 -0.8164
11587TIP3    H156252   0.720   4.333   0.995 -1.6571  0.9295 -1.1647
11587TIP3    H256253   0.713   4.229   1.105 -0.5428 -0.0132 -1.9698
11588TIP3   OH256254   5.612   2.615  16.775 -0.3509 -0.6052  0.2311
11588TIP3    H156255   5.519   2.600  16.761 -0.2710 -1.3520  0.4364
11588TIP3    H256256   5.656   2.558  16.712  0.0003  1.6311 -1.6936
11589TIP3   OH256257   1.473   5.709  14.730  0.5111  0.0696 -0.2280
11589TIP3    H156258   1.550   5.763  14.745  0.9025 -0.2161 -1.1374
11589TIP3    H256259   1.419   5.721  14.809  1.5607  0.1336  0.5052
11590TIP3   OH256260   5.042   4.982   3.219 -0.3316 -0.2048  0.3814
11590TIP3    H156261   4.999   4.949   3.140  1.2821  0.5783 -0.8670
11590TIP3    H256262   5.020   5.075   3.221  1.8996  0.4060 -0.7525
11591TIP3   OH256263   2.189   4.149   3.862  0.1434 -0.4554  0.2944
11591TIP3    H156264   2.163   4.237   3.888 -1.9568 -0.9045 -0.0902
11591TIP3    H256265   2.198   4.101   3.945 -1.3126 -0.5285  0.4337
11592TIP3   OH256266   5.867   0.399   5.045  0.3012  0.8344 -0.1602
11592TIP3    H156267   5.923   0.376   4.971 -0.4931 -2.1938  0.0178
11592TIP3    H256268   5.792   0.443   5.006  1.4426  2.3267 -0.7203
11593TIP3   OH256269   3.546   6.647  11.905  0.6299  0.6100 -0.3270
11593TIP3    H156270   3.499   6.636  11.821  0.5228 -0.4930 -0.1466
11593TIP3    H256271   3.478   6.634  11.971  0.8869  0.5729 -0.0701
11594TIP3   OH256272   3.698   2.861  16.808  0.6899  0.2475  0.8357
11594TIP3    H156273   3.635   2.877  16.878  0.2343  2.3682  0.0404
11594TIP3    H256274   3.644   2.845  16.731  1.1877 -1.7047  0.8470
11595TIP3   OH256275   5.367   2.318   4.849 -0.2855 -0.2326 -0.0457
11595TIP3    H156276   5.452   2.338   4.889 -0.0712 -0.7520 -0.2310
11595TIP3    H256277   5.319   2.272   4.918  0.2768 -1.6002 -0.5213
11596TIP3   OH256278   0.949   3.995   4.093  0.2974  0.4986 -0.1262
11596TIP3    H156279   0.964   4.029   4.181  2.0028  2.0129 -0.9446
11596TIP3    H256280   0.973   4.067   4.035 -1.5728 -0.1642 -1.8589
11597TIP3   OH256281   4.743   0.420  14.791 -0.4361  0.6115  0.7744
11597TIP3    H156282   4.662   0.383  14.755  0.0087 -0.9724  1.3120
11597TIP3    H256283   4.813   0.371  14.748  0.1140 -2.0593  4.2704
11598TIP3   OH256284   1.360   4.479   4.719  0.0569 -0.3067 -0.7230
11598TIP3    H156285   1.319   4.538   4.656  0.2758 -1.4088 -1.9302
11598TIP3    H256286   1.453   4.502   4.715  0.0137 -0.0766 -0.4591
11599TIP3   OH256287   4.711   1.398   4.619  0.3374  0.0438 -0.7869
11599TIP3    H156288   4.775   1.455   4.576 -0.5035  0.3728 -1.6275
11599TIP3    H256289   4.628   1.444   4.611 -0.2387 -0.9712 -0.8613
11600TIP3   OH256290   2.606   5.760   3.709  0.5754 -0.3131 -0.7559
11600TIP3    H156291   2.548   5.830   3.678  0.8996 -0.3993 -1.5898
11600TIP3    H256292   2.623   5.707   3.631  2.1154 -0.0457 -0.6443
11601TIP3   OH256293   0.880   6.202  16.226 -0.1361  0.2575 -0.1616
11601TIP3    H156294   0.837   6.120  16.252  0.1257  0.6481  1.5897
11601TIP3    H256295   0.955   6.209  16.284  1.2818  0.5220 -1.9641
11602TIP3   OH256296   0.868   5.036  17.040  0.0890 -0.5859  0.4233
11602TIP3    H156297   0.880   4.944  17.016 -0.1183 -0.6491  0.5534
11602TIP3    H256298   0.952   5.062  17.078  0.8664 -0.1153 -1.5231
11603TIP3   OH256299   4.424   2.680   5.378  0.2469 -0.2356 -0.0006
11603TIP3    H156300   4.517   2.701   5.378  0.7499 -1.9128 -3.2451
11603TIP3    H256301   4.420   2.586   5.395 -0.7884 -0.3252 -0.6294
11604TIP3   OH256302   4.908   5.061  16.463 -0.3571  0.1241  0.1736
11604TIP3    H156303   4.955   4.993  16.512 -1.1291 -1.5224 -1.2590
11604TIP3    H256304   4.817   5.031  16.461 -0.9531  1.7839  0.4242
11605TIP3   OH256305   6.275   2.645   3.903  0.2621  0.3317  0.5315
11605TIP3    H156306   6.328   2.570   3.875  1.9693  1.2227  1.2123
11605TIP3    H256307   6.240   2.618   3.988 -0.8684 -0.4729 -0.1669
11606TIP3   OH256308   4.112   5.524  11.450  0.1342 -0.8261 -0.2944
11606TIP3    H156309   4.160   5.510  11.531  2.6877  0.6147 -1.4217
11606TIP3    H256310   4.129   5.446  11.397  1.0272 -0.4624 -0.5627
11607TIP3   OH256311   1.569   6.690  14.271 -0.6595  0.3168  0.1787
11607TIP3    H156312   1.507   6.700  14.198 -0.3479  2.2168  0.1179
11607TIP3    H256313   1.520   6.719  14.348 -0.6811 -0.7660  0.5851
11608TIP3   OH256314   2.730   0.026   5.032  0.5752 -0.1138 -0.2341
11608TIP3    H156315   2.766   0.103   5.076 -2.9943  1.5707  0.1390
11608TIP3    H256316   2.767   0.028   4.944  0.8945  1.7937 -0.0857
11609TIP3   OH256317   4.585   0.981   5.863  0.3389 -0.2274 -0.6172
11609TIP3    H156318   4.610   0.909   5.806 -1.8550 -0.0915 -1.8464
11609TIP3    H256319   4.638   0.969   5.942 -1.1379 -4.2202 -0.0224
11610TIP3   OH256320   0.005   5.732  15.465 -0.1617 -0.8888 -0.4050
11610TIP3    H156321   0.096   5.715  15.487 -0.1619  0.6436  0.9531
11610TIP3    H256322  -0.024   5.653  15.420  2.3766 -0.6779 -2.6927
11611TIP3   OH256323   6.404   2.685  13.224  0.0121 -0.1462  0.1561
11611TIP3    H156324   6.365   2.706  13.139 -1.1610  0.8893  0.9155
11611TIP3    H256325   6.484   2.737  13.227 -0.0119 -0.0801 -0.2547
11612TIP3   OH256326   5.111   0.821  15.044 -0.0309 -0.1488  0.5363
11612TIP3    H156327   5.030   0.872  15.056  0.4336  1.3207 -1.8217
11612TIP3    H256328   5.081   0.733  15.023 -1.2250  0.7691 -2.1587
11613TIP3   OH256329   3.931   1.864   0.072  0.0448 -0.2748 -0.3542
11613TIP3    H156330   3.962   1.853   0.162 -1.2789  0.9859  0.2988
11613TIP3    H256331   3.866   1.795   0.061  0.0912 -0.3302 -0.2831
11614TIP3   OH256332   5.787   4.143   4.698  0.5709 -0.4906 -0.0515
11614TIP3    H156333   5.709   4.158   4.644  1.5920  0.4002 -1.3257
11614TIP3    H256334   5.775   4.201   4.773  0.3867  0.2538 -0.6461
11615TIP3   OH256335   5.594   0.746  11.266 -0.0915  0.2658 -0.1778
11615TIP3    H156336   5.631   0.729  11.179  1.5286 -0.6673  0.6381
11615TIP3    H256337   5.519   0.803  11.250  0.2817  0.2645 -2.1641
11616TIP3   OH256338   1.101   4.009  14.830  0.5932  0.1447 -0.4398
11616TIP3    H156339   1.142   4.090  14.799 -0.6287  1.4566  1.1862
11616TIP3    H256340   1.041   4.037  14.898  1.3697 -2.3250  1.4001
11617TIP3   OH256341   5.407   0.642  12.838  0.0791 -0.2984  0.2813
11617TIP3    H156342   5.462   0.713  12.871  1.1964 -0.7298 -0.5843
11617TIP3    H256343   5.461   0.599  12.771 -1.0961 -1.1067 -0.1769
11618TIP3   OH256344   1.187   1.051  13.682  0.2636 -0.4198  0.1063
11618TIP3    H156345   1.191   1.031  13.776 -1.1653 -0.7597  0.1142
11618TIP3    H256346   1.096   1.035  13.658  0.9900 -2.2619 -1.7544
11619TIP3   OH256347   1.347   4.349  14.251 -0.4592  0.0763 -0.2206
11619TIP3    H156348   1.267   4.358  14.302 -1.2687  0.0353 -1.4516
11619TIP3    H256349   1.356   4.434  14.206  0.8212  0.4992  0.7869
11620TIP3   OH256350   4.251   0.872   1.391  0.2076  0.3993 -0.5243
11620TIP3    H156351   4.324   0.846   1.448 -1.6474 -3.4413  0.5049
11620TIP3    H256352   4.182   0.899   1.451 -0.7640 -0.7742 -1.0453
11621TIP3   OH256353   1.775   2.796   2.779 -0.1696 -0.1620  0.2071
11621TIP3    H156354   1.741   2.860   2.841 -0.1853 -0.0425  0.0757
11621TIP3    H256355   1.790   2.846   2.698 -0.3380 -0.3564  0.0531
11622TIP3   OH256356   0.488   3.141  15.909  0.0835 -0.6053 -0.0564
11622TIP3    H156357   0.430   3.078  15.866  0.5642 -0.8317 -0.3786
11622TIP3    H256358   0.435   3.178  15.980 -1.6075  1.5030 -2.2233
11623TIP3   OH256359   2.015   4.089   5.949  0.7772 -0.0857  0.1353
11623TIP3    H156360   2.100   4.124   5.923  0.4427  1.2747  0.7886
11623TIP3    H256361   2.037   4.014   6.006  1.5442  0.4756  0.6046
11624TIP3   OH256362   2.327   2.356  13.774 -0.3280  0.2102 -1.0642
11624TIP3    H156363   2.360   2.332  13.688  0.1019 -3.0169 -0.1002
11624TIP3    H256364   2.375   2.301  13.836 -4.1508 -1.4633  0.7892
11625TIP3   OH256365   5.609   5.059  16.230 -0.1000 -0.6351  0.0620
11625TIP3    H156366   5.604   5.005  16.151 -0.4054 -1.0429  0.3576
11625TIP3    H256367   5.538   5.122  16.220  0.2338 -0.2978 -0.2638
11626TIP3   OH256368   5.536   3.552   5.542  0.5223 -0.1477 -0.2969
11626TIP3    H156369   5.514   3.505   5.623  1.5739  0.6135  0.4659
11626TIP3    H256370   5.601   3.617   5.569 -1.1204  2.0193 -1.2368
11627TIP3   OH256371   1.010   4.234  17.006 -0.3395  0.3351  0.0402
11627TIP3    H156372   1.032   4.143  17.027  0.7698  0.8822  1.4291
11627TIP3    H256373   0.980   4.271  17.089 -2.2859  0.8521 -0.8419
11628TIP3   OH256374   4.104   3.991   5.996 -0.5845  0.1811 -0.2209
11628TIP3    H156375   4.096   3.965   6.087 -2.3388  1.0017 -0.0959
11628TIP3    H256376   4.036   4.057   5.984  0.1270  0.6491 -1.9226
11629TIP3   OH256377   5.878   1.953  15.666  0.9442  0.2689  0.9141
11629TIP3    H156378   5.958   1.934  15.617  0.4064 -0.3159  0.2433
11629TIP3    H256379   5.811   1.968  15.598  0.3727  0.2662  1.4669
11630TIP3   OH256380   5.935   1.227  10.489  0.1487 -0.8457  0.1526
11630TIP3    H156381   5.958   1.180  10.410  1.9465  1.2948 -0.7037
11630TIP3    H256382   6.015   1.274  10.514 -1.2062  0.8978  1.5138
11631TIP3   OH256383   5.770   1.337  13.148 -0.0899  0.6568 -0.6491
11631TIP3    H156384   5.779   1.241  13.148  2.6268  0.8093 -2.2049
11631TIP3    H256385   5.768   1.360  13.241 -0.5022 -0.8674 -0.2433
11632TIP3   OH256386   3.216   1.257   4.250 -0.1432 -0.1080 -0.0540
11632TIP3    H156387   3.299   1.228   4.212 -0.4835 -0.9638 -0.1736
11632TIP3    H256388   3.241   1.323   4.315  0.6070 -0.1721 -0.2664
11633TIP3   OH256389   2.115   4.249   1.838  0.4123 -0.0291 -0.1133
11633TIP3    H156390   2.189   4.309   1.851  1.1946 -1.1737  0.9798
11633TIP3    H256391   2.091   4.261   1.746  0.7187  1.7368  0.0020
11634TIP3   OH256392   5.244   2.513  14.997 -0.3624  0.2632  0.1968
11634TIP3    H156393   5.217   2.605  14.988 -2.3543 -0.3111 -0.0503
11634TIP3    H256394   5.171   2.463  14.961  0.8882 -1.4308 -0.0887
11635TIP3   OH256395   1.469   4.377  14.552  0.1971 -0.3514 -0.2208
11635TIP3    H156396   1.417   4.334  14.484  1.0182 -1.6885 -0.0437
11635TIP3    H256397   1.499   4.306  14.608 -0.1192  0.6836  1.3351
11636TIP3   OH256398   6.737   2.229   1.526  0.3698 -0.2214 -0.4352
11636TIP3    H156399   6.830   2.231   1.549  0.1697  0.3886  0.3825
11636TIP3    H256400   6.701   2.307   1.567 -0.2712  0.2276 -1.8139
11637TIP3   OH256401   4.277   0.916  11.456  0.0658  0.4269  0.0418
11637TIP3    H156402   4.331   0.994  11.468  0.5054  0.1015  0.1690
11637TIP3    H256403   4.201   0.948  11.407  1.2322  0.5266 -1.7861
11638TIP3   OH256404   1.605   4.382   0.348  0.1692  0.0604 -0.0132
11638TIP3    H156405   1.553   4.439   0.292  0.1666 -1.0190 -1.1432
11638TIP3    H256406   1.575   4.402   0.437 -0.1553  1.4611 -0.4152
11639TIP3   OH256407   6.282   2.443  15.448 -0.2798 -0.8136  0.3304
11639TIP3    H156408   6.301   2.376  15.513 -1.0378  0.2529  1.7109
11639TIP3    H256409   6.225   2.399  15.385  0.3093 -1.8228  0.4781
11640TIP3   OH256410   6.146   3.332  13.056 -0.7476  0.7263 -0.4279
11640TIP3    H156411   6.089   3.322  12.979  0.4180 -2.2565 -1.0020
11640TIP3    H256412   6.106   3.277  13.123  0.4047  0.1413 -0.2050
11641TIP3   OH256413   6.168   0.829  13.183  0.2337 -0.4876 -0.3352
11641TIP3    H156414   6.260   0.807  13.167  0.6811 -0.0623  1.4355
11641TIP3    H256415   6.164   0.924  13.177  0.6308 -0.1885  2.5722
11642TIP3   OH256416   2.939   2.713  15.599 -0.0287 -0.2506  0.3102
11642TIP3    H156417   2.986   2.642  15.644 -1.0011 -0.1537  1.5258
11642TIP3    H256418   3.008   2.773  15.572  0.6387 -0.5962  1.1967
11643TIP3   OH256419   5.944   0.437  12.188 -0.4163  0.6360  0.6168
11643TIP3    H156420   5.947   0.391  12.104 -3.0415 -0.5356  1.1005
11643TIP3    H256421   5.977   0.374  12.252  0.2477  1.0472  0.6981
11644TIP3   OH256422   3.433   2.449  16.750  0.1034 -0.2933  0.3176
11644TIP3    H156423   3.375   2.523  16.769  0.5117 -0.2122  1.3127
11644TIP3    H256424   3.408   2.421  16.663  0.8125  1.8624 -0.6551
11645TIP3   OH256425   3.085   1.115   0.253 -0.3290  0.6649 -0.3607
11645TIP3    H156426   3.061   1.131   0.344 -0.5206 -0.6908 -0.1579
11645TIP3    H256427   3.118   1.200   0.222 -1.1392  1.3893  0.6793
11646TIP3   OH256428   2.832   2.320  12.046  0.4604  0.2116 -0.0569
11646TIP3    H156429   2.832   2.361  12.133  0.6202  0.4821 -0.1810
11646TIP3    H256430   2.875   2.385  11.989  0.4703 -0.0161 -0.3118
11647TIP3   OH256431   1.108   2.000   5.635  0.2649 -0.0291 -0.7991
11647TIP3    H156432   1.135   2.090   5.655  1.0984 -0.6899  1.3692
11647TIP3    H256433   1.018   1.994   5.665 -0.0384  0.2526 -1.6171
11648TIP3   OH256434   1.133   6.825  13.302  0.9114  0.1507 -0.6617
11648TIP3    H156435   1.176   6.760  13.248  1.5793  1.9059 -2.3773
11648TIP3    H256436   1.107   6.778  13.381  1.6764 -2.0603 -1.6543
11649TIP3   OH256437   4.245   4.063   2.636  0.0657 -0.0999 -0.0125
11649TIP3    H156438   4.328   4.093   2.600  0.1394 -0.0218  0.2235
11649TIP3    H256439   4.195   4.144   2.650 -0.5051 -0.2011 -1.2430
11650TIP3   OH256440   6.345   1.234   4.018  0.4553  0.3613 -0.8316
11650TIP3    H156441   6.413   1.167   4.007  0.1474 -0.1931  0.4433
11650TIP3    H256442   6.272   1.203   3.964  1.2670  1.1112 -2.4526
11651TIP3   OH256443   6.825   4.103  12.592  0.0867  0.4313 -0.1786
11651TIP3    H156444   6.903   4.054  12.564  0.5644  1.8263 -1.4099
11651TIP3    H256445   6.752   4.056  12.553  0.1280 -1.5679  1.9185
11652TIP3   OH256446   4.011   5.104  10.943 -0.3321  0.4725 -0.2164
11652TIP3    H156447   3.931   5.074  10.900 -0.2939 -0.1360  0.1322
11652TIP3    H256448   4.068   5.028  10.947  0.9546  1.2813 -1.9324
11653TIP3   OH256449   1.352   4.175   4.895  0.0747 -0.3938 -0.9090
11653TIP3    H156450   1.418   4.232   4.934 -0.7060  0.2609 -0.5100
11653TIP3    H256451   1.382   4.086   4.915 -0.1645 -0.0943  0.9931
11654TIP3   OH256452   4.816   0.254  13.283 -0.1192  0.0725 -0.3482
11654TIP3    H156453   4.891   0.268  13.225  0.8079 -1.6154  0.3771
11654TIP3    H256454   4.794   0.342  13.315  0.5458  0.7915 -1.7578
11655TIP3   OH256455   3.711   4.769  15.170 -0.0647 -0.5992 -0.5753
11655TIP3    H156456   3.643   4.717  15.214 -0.0767 -1.8026 -1.9570
11655TIP3    H256457   3.793   4.740  15.210 -0.2105 -0.3740 -0.1006
11656TIP3   OH256458   2.969   3.989  14.584  0.0717 -0.7009  0.3177
11656TIP3    H156459   3.008   3.902  14.598  0.7186 -0.7755 -1.5953
11656TIP3    H256460   3.027   4.030  14.519 -2.1068 -0.1808 -1.4102
11657TIP3   OH256461   3.999   6.470  15.345 -0.2455  0.3520  0.1599
11657TIP3    H156462   3.972   6.559  15.368 -0.9710  0.3910 -0.7902
11657TIP3    H256463   4.094   6.469  15.362  0.3029  2.1053 -2.1448
11658TIP3   OH256464   1.095   5.926  13.516 -0.2219  0.1993  0.6360
11658TIP3    H156465   1.133   5.879  13.591 -3.1390  0.1650  2.2573
11658TIP3    H256466   1.119   5.872  13.441 -3.0251 -3.9882  2.3308
11659TIP3   OH256467   4.365   4.965  11.531 -0.1253 -0.5565 -0.4930
11659TIP3    H156468   4.378   4.904  11.458  0.2131 -0.1618 -0.7687
11659TIP3    H256469   4.276   4.998  11.518 -0.2327 -0.8313 -0.4618
11660TIP3   OH256470   1.125   4.004  17.254  0.6751 -0.2190 -0.4107
11660TIP3    H156471   1.123   3.941  17.326  3.6570 -0.1111 -0.0856
11660TIP3    H256472   1.188   3.967  17.192  0.2684  1.0431 -1.6181
11661TIP3   OH256473   6.040   1.246   3.128  0.0278 -0.5859 -0.6958
11661TIP3    H156474   6.064   1.287   3.045  0.9264  1.1439  0.3641
11661TIP3    H256475   6.109   1.273   3.189 -1.2133 -0.8580  0.9001
11662TIP3   OH256476   1.733   2.895   0.753  0.0683 -0.2813  0.0606
11662TIP3    H156477   1.760   2.823   0.695 -0.4001 -0.8753  0.5627
11662TIP3    H256478   1.661   2.858   0.805  0.9530  0.0027  1.5400
11663TIP3   OH256479   1.560   0.278  16.190  0.1238 -0.7334 -0.3582
11663TIP3    H156480   1.576   0.362  16.147  1.0119 -0.0894  1.1606
11663TIP3    H256481   1.576   0.213  16.122  2.7490  0.1886 -0.7264
11664TIP3   OH256482   2.746   2.144  16.682  0.0411  0.2810 -0.7593
11664TIP3    H156483   2.735   2.083  16.755  1.6308  1.0116  0.1680
11664TIP3    H256484   2.682   2.213  16.700 -0.5712 -0.2504 -0.8644
11665TIP3   OH256485   3.242   2.919  13.092  0.2563  0.1938  0.1032
11665TIP3    H156486   3.187   2.980  13.044  2.2939  2.1591  0.1282
11665TIP3    H256487   3.274   2.857  13.026 -3.2811 -2.2227  0.3566
11666TIP3   OH256488   1.210   4.307   4.436  0.2402  0.1355  0.0945
11666TIP3    H156489   1.150   4.368   4.479  0.9261  0.7900  0.1347
11666TIP3    H256490   1.268   4.278   4.506  2.4425  2.4820 -0.6059
11667TIP3   OH256491   1.906   1.391  11.632  0.2475 -0.2318 -0.3902
11667TIP3    H156492   1.978   1.379  11.569  1.2473 -0.5170  0.7653
11667TIP3    H256493   1.949   1.424  11.711 -1.2388  2.1865 -0.4740
11668TIP3   OH256494   0.427   0.285  15.428 -0.4941 -0.3197 -0.3070
11668TIP3    H156495   0.413   0.231  15.350 -1.2084 -1.9838  0.9065
11668TIP3    H256496   0.482   0.231  15.485 -0.2792  0.7145  0.5028
11669TIP3   OH256497   4.112   1.222  11.972  0.1933 -0.5809  0.1191
11669TIP3    H156498   4.134   1.269  11.892  2.7001 -1.6478  0.0955
11669TIP3    H256499   4.124   1.287  12.042 -1.9992  0.3515 -0.2918
11670TIP3   OH256500   1.110   0.577   6.128 -0.8051  0.5425 -0.7450
11670TIP3    H156501   1.152   0.508   6.076  0.7385 -0.5657  1.7482
11670TIP3    H256502   1.017   0.568   6.109 -0.4475 -0.8129 -2.1037
11671TIP3   OH256503   4.316   4.060  16.592  0.2535  0.2597  0.1651
11671TIP3    H156504   4.382   4.115  16.551  0.1725  0.0810 -0.2064
11671TIP3    H256505   4.294   4.106  16.673 -0.2851  1.1096 -0.4538
11672TIP3   OH256506   0.894   6.763  17.142 -1.1270  1.1121 -0.6198
11672TIP3    H156507   0.914   6.783  17.051 -0.4055 -0.6639 -0.8786
11672TIP3    H256508   0.954   6.818  17.192  0.8362 -0.3189 -1.3075
11673TIP3   OH256509   1.259   4.626  12.910 -0.2346  0.3581 -0.6283
11673TIP3    H156510   1.200   4.680  12.962 -0.4875  1.8464 -2.3408
11673TIP3    H256511   1.347   4.652  12.937 -0.3484 -0.2857  0.3911
11674TIP3   OH256512   6.436   5.343  14.338  0.8198  0.5938 -0.0516
11674TIP3    H156513   6.423   5.436  14.356  1.9965  0.7688 -0.0105
11674TIP3    H256514   6.507   5.316  14.397  1.1077 -0.1046 -0.6873
11675TIP3   OH256515   2.163   1.393  16.028 -0.1768  0.3490  0.0238
11675TIP3    H156516   2.149   1.468  16.085  0.5174 -2.1312  3.8633
11675TIP3    H256517   2.257   1.393  16.010  0.5145 -1.2323  2.9373
11676TIP3   OH256518   3.440   3.026  11.054  0.5136 -0.0125 -0.2752
11676TIP3    H156519   3.389   2.974  10.992  1.8584 -0.3725 -1.1382
11676TIP3    H256520   3.422   3.116  11.031 -0.2124 -0.1240 -0.1540
11677TIP3   OH256521   2.373   1.588   2.831  0.6445  0.1688 -0.7672
11677TIP3    H156522   2.411   1.531   2.898 -2.5148  0.5514  1.6195
11677TIP3    H256523   2.300   1.537   2.795  0.9824  0.8022 -2.4083
11678TIP3   OH256524   0.229   2.240  16.585 -0.4521  0.0374  0.0033
11678TIP3    H156525   0.205   2.265  16.674 -1.7384 -0.9904 -0.0267
11678TIP3    H256526   0.227   2.322  16.535  0.8752  0.7223  1.0071
11679TIP3   OH256527   2.346   0.809   5.321  0.2247  0.1163 -0.9067
11679TIP3    H156528   2.292   0.867   5.374  1.0083 -0.5568  0.6871
11679TIP3    H256529   2.436   0.832   5.345  0.5890 -0.4482 -1.6944
11680TIP3   OH256530   0.700   0.297  13.137 -0.3484  0.7108 -0.2412
11680TIP3    H156531   0.775   0.356  13.143 -0.7414  1.1906  0.0819
11680TIP3    H256532   0.731   0.215  13.175  0.1804  0.7298 -0.6205
11681TIP3   OH256533   1.588   1.758   3.543  0.2774 -0.2918  0.0778
11681TIP3    H156534   1.564   1.781   3.633 -1.5855 -2.5974  0.2721
11681TIP3    H256535   1.543   1.823   3.489  4.0002  3.2171  0.6882
11682TIP3   OH256536   4.796   4.692   4.842  0.2927  0.4551  0.0159
11682TIP3    H156537   4.857   4.717   4.773 -0.8432  0.9186 -0.8383
11682TIP3    H256538   4.841   4.620   4.888  1.0588  0.1168 -1.1983
11683TIP3   OH256539   5.249   3.066  11.267 -0.1403  0.1838  0.0546
11683TIP3    H156540   5.183   3.105  11.324 -0.4929  0.0508 -0.2572
11683TIP3    H256541   5.323   3.126  11.271 -0.9157  1.2368 -0.9425
11684TIP3   OH256542   3.704   2.148   2.384  0.6959 -0.2650  0.4781
11684TIP3    H156543   3.695   2.205   2.460 -1.1282 -0.6884  0.6148
11684TIP3    H256544   3.651   2.071   2.405  1.3958 -1.0662 -0.5886
11685TIP3   OH256545   4.751   1.771  15.999  0.1307  0.0968 -0.3888
11685TIP3    H156546   4.663   1.772  16.038  0.0108  0.0083 -0.6557
11685TIP3    H256547   4.778   1.863  15.998  0.8108 -0.0391  1.4168
11686TIP3   OH256548   4.192   1.787  13.200  0.1371  0.9526  0.0620
11686TIP3    H156549   4.217   1.794  13.108 -2.4565 -2.1122 -1.0743
11686TIP3    H256550   4.145   1.868  13.218  0.2178  1.3800 -1.5048
11687TIP3   OH256551   2.926   6.505  13.206  0.2223  0.5883  0.5051
11687TIP3    H156552   2.961   6.484  13.119 -1.1764  1.8904 -0.4313
11687TIP3    H256553   2.843   6.457  13.211 -0.0128  1.0244  0.8431
11688TIP3   OH256554   1.643   1.710   5.136  0.0783  0.2101  0.1502
11688TIP3    H156555   1.710   1.765   5.096  0.7065 -1.0610 -0.5932
11688TIP3    H256556   1.592   1.771   5.191  0.8269  1.4871 -0.5205
11689TIP3   OH256557   4.498   5.580   3.518  0.3337  0.0449  0.3165
11689TIP3    H156558   4.462   5.515   3.578  1.0598  0.0593  0.7870
11689TIP3    H256559   4.459   5.663   3.546 -1.9188 -0.3666 -1.3456
11690TIP3   OH256560   3.761   6.015  13.626  0.1020 -0.3528  0.4740
11690TIP3    H156561   3.841   6.054  13.661  0.8933 -1.6766  0.2318
11690TIP3    H256562   3.706   6.090  13.602  2.4661  0.7124 -2.1346
11691TIP3   OH256563   2.301   5.945   2.941  0.2659  0.4276 -0.6206
11691TIP3    H156564   2.248   6.000   2.999  1.9978  0.4101  1.0760
11691TIP3    H256565   2.255   5.861   2.940  1.6494 -0.6608  3.4114
11692TIP3   OH256566   6.181   2.323   5.219  0.0059  0.5000  0.3425
11692TIP3    H156567   6.238   2.395   5.246 -0.2954  0.8971 -0.0738
11692TIP3    H256568   6.196   2.313   5.125 -0.6379  0.6439  0.2163
11693TIP3   OH256569   4.469   2.240   6.299  0.3679  0.4461  0.1481
11693TIP3    H156570   4.512   2.174   6.354 -0.2138  0.8489  1.1024
11693TIP3    H256571   4.424   2.297   6.361  0.0196  1.1401 -0.7340
11694TIP3   OH256572   5.163   6.146  11.072 -0.1873  0.2067  0.0399
11694TIP3    H156573   5.104   6.187  11.008 -0.4225 -1.4777 -0.8735
11694TIP3    H256574   5.249   6.182  11.051 -0.2150 -0.5172 -1.4339
11695TIP3   OH256575   5.953   0.295   4.796 -0.3549  0.3234 -0.3521
11695TIP3    H156576   5.931   0.225   4.735 -0.1785  1.0448 -1.2745
11695TIP3    H256577   6.033   0.333   4.761 -0.6868  1.2676 -0.1309
11696TIP3   OH256578   4.205   3.770   2.652 -0.8713  0.2508 -0.3049
11696TIP3    H156579   4.209   3.866   2.641 -1.2169  0.2499 -0.4650
11696TIP3    H256580   4.292   3.740   2.626 -0.8498  0.4976 -0.5270
11697TIP3   OH256581   2.839   4.932   2.444 -0.3783  0.3834  0.3539
11697TIP3    H156582   2.883   4.945   2.529  0.6169  2.0728 -0.3578
11697TIP3    H256583   2.788   4.852   2.455  2.0698 -1.1306  1.5804
11698TIP3   OH256584   3.237   0.680  11.392 -0.3371 -0.9697  0.1610
11698TIP3    H156585   3.271   0.593  11.411 -3.3908 -1.9375  1.8070
11698TIP3    H256586   3.171   0.666  11.324 -3.1482 -0.6039  2.6163
11699TIP3   OH256587   0.033   2.505   2.099  0.4481 -0.5951 -0.2390
11699TIP3    H156588  -0.059   2.489   2.082  0.2132 -2.4638  2.1417
11699TIP3    H256589   0.074   2.507   2.013 -1.7173 -0.2631 -1.3175
11700TIP3   OH256590   2.645   5.515  14.609 -0.1969 -0.2630  0.2990
11700TIP3    H156591   2.668   5.529  14.701 -2.1705  0.2399  0.7622
11700TIP3    H256592   2.621   5.423  14.604  0.2067 -0.3642  0.2137
11701TIP3   OH256593   6.394   4.221  16.918  0.2186  0.0592  0.9143
11701TIP3    H156594   6.389   4.224  17.014  0.2599 -1.2320  0.9854
11701TIP3    H256595   6.416   4.310  16.892 -0.2371  0.5277  2.0799
11702TIP3   OH256596   1.934   0.088   2.474  0.5430 -0.4364 -0.6132
11702TIP3    H156597   1.995   0.015   2.469  0.4472 -0.4659 -1.4232
11702TIP3    H256598   1.981   0.161   2.433  0.5979 -0.0677  0.0959
11703TIP3   OH256599   2.950   4.838  13.045 -0.0331  0.5136 -0.1126
11703TIP3    H156600   2.996   4.861  12.965  0.2993  0.1439 -0.0304
11703TIP3    H256601   2.877   4.784  13.016 -0.9699  1.8576 -0.3332
11704TIP3   OH256602   5.236   5.312   4.729  0.1210  0.5212  0.3517
11704TIP3    H156603   5.324   5.308   4.691 -0.2355 -1.1327 -0.4096
11704TIP3    H256604   5.244   5.269   4.814 -0.0788 -0.3023 -0.0349
11705TIP3   OH256605   5.935   6.446  10.764  0.0874  0.5083 -0.1915
11705TIP3    H156606   5.882   6.515  10.803  0.0558  0.2841  0.1766
11705TIP3    H256607   5.946   6.472  10.673 -0.4856  0.6590 -0.2231
11706TIP3   OH256608   5.930   6.635  13.394  0.4758  0.1525  0.4826
11706TIP3    H156609   5.943   6.722  13.430 -0.7133 -0.1699  1.7703
11706TIP3    H256610   5.980   6.577  13.453  0.0446 -0.1887  0.5173
11707TIP3   OH256611   3.275   3.666  15.836 -0.3372  0.6401  0.1708
11707TIP3    H156612   3.232   3.663  15.922  0.9364  0.7464  0.8416
11707TIP3    H256613   3.364   3.636  15.854 -0.8810 -2.4560 -1.6873
11708TIP3   OH256614   0.276   3.535   3.858  0.1812  0.0460  0.7265
11708TIP3    H156615   0.333   3.518   3.783 -1.2351  1.4114 -0.7306
11708TIP3    H256616   0.223   3.455   3.866  1.1594 -0.5870  1.0798
11709TIP3   OH256617   2.761   5.244   2.586  0.1983 -0.7312  0.4016
11709TIP3    H156618   2.782   5.285   2.502 -0.7340  1.6926  1.2692
11709TIP3    H256619   2.828   5.176   2.596  0.4221 -1.0286 -2.2051
11710TIP3   OH256620   0.043   0.964   4.940 -0.1714 -0.5487 -0.4012
11710TIP3    H156621   0.091   1.012   4.873  0.4683 -2.2589 -1.2134
11710TIP3    H256622  -0.048   0.993   4.930  0.1277  0.1799 -1.1269
11711TIP3   OH256623   0.750   2.734   1.175 -0.0707 -0.3404 -0.0187
11711TIP3    H156624   0.783   2.646   1.193  0.7936  0.4049  2.4482
11711TIP3    H256625   0.655   2.726   1.179  0.0226 -0.9949  1.3320
11712TIP3   OH256626   2.448   6.744   1.641 -0.0567 -0.3584  0.3591
11712TIP3    H156627   2.423   6.659   1.677  1.3161  0.2932  3.1454
11712TIP3    H256628   2.539   6.732   1.613 -0.4346 -0.2646 -0.9534
11713TIP3   OH256629   5.050   3.656  14.107  0.0786 -0.1027  0.4948
11713TIP3    H156630   4.989   3.703  14.051  0.2752  0.7364  0.9765
11713TIP3    H256631   5.084   3.722  14.167  1.0382 -0.6703  0.5979
11714TIP3   OH256632   6.080   2.695   3.501  0.3588  0.3259 -0.3066
11714TIP3    H156633   6.001   2.745   3.521  0.0402 -0.1604 -0.3407
11714TIP3    H256634   6.144   2.724   3.567 -0.2184 -0.1560  0.4897
11715TIP3   OH256635   0.897   5.488   1.810 -0.5337  0.4158  0.0215
11715TIP3    H156636   0.856   5.505   1.895  1.5671 -0.6083  1.3209
11715TIP3    H256637   0.831   5.439   1.761 -1.3449 -0.0520  1.5307
11716TIP3   OH256638   2.315   2.634   3.711 -0.1186  0.1409 -0.3675
11716TIP3    H156639   2.406   2.645   3.684  0.0715  2.6775  0.9692
11716TIP3    H256640   2.266   2.691   3.652 -0.7644 -0.6118 -0.5712
11717TIP3   OH256641   3.704   2.458   0.138 -0.2514  0.3101  0.1876
11717TIP3    H156642   3.790   2.418   0.133 -0.0428  0.8304 -0.5655
11717TIP3    H256643   3.720   2.551   0.128 -0.9366  0.3668 -0.4964
11718TIP3   OH256644   2.916   2.212  12.708 -0.2623  0.5634 -0.1731
11718TIP3    H156645   2.938   2.214  12.615  0.8618  0.2465  0.0694
11718TIP3    H256646   2.917   2.119  12.730 -1.0434  0.6028  0.0441
11719TIP3   OH256647   3.922   2.328   6.111  0.0442  0.0399  0.1959
11719TIP3    H156648   3.996   2.380   6.080 -1.7017  3.1719  0.8582
11719TIP3    H256649   3.914   2.352   6.204 -1.9988  0.1011  0.0406
11720TIP3   OH256650   0.160   0.228  12.136  0.1382  0.1267  0.0661
11720TIP3    H156651   0.124   0.298  12.191 -0.0092 -0.4414  0.7081
11720TIP3    H256652   0.210   0.173  12.197  1.4896  0.4787 -0.6753
11721TIP3   OH256653   6.715   6.460   4.821  0.4607  0.5411  0.4214
11721TIP3    H156654   6.681   6.542   4.786 -0.7405 -0.4824 -0.9078
11721TIP3    H256655   6.773   6.426   4.753  2.2280  1.0007  1.6087
11722TIP3   OH256656   2.245   4.095  16.817 -0.6073  0.4907 -0.6078
11722TIP3    H156657   2.231   4.117  16.909  2.1435  0.0924 -0.0283
11722TIP3    H256658   2.199   4.164  16.769  0.8179  2.7848  1.1124
11723TIP3   OH256659   5.223   3.400   2.303  0.0594 -0.4160  0.3532
11723TIP3    H156660   5.308   3.370   2.337 -0.9833 -2.4871  1.3201
11723TIP3    H256661   5.230   3.495   2.302  2.2805 -0.5198  0.7243
11724TIP3   OH256662   4.688   4.913  12.036  0.1501  0.4078  0.1021
11724TIP3    H156663   4.632   4.925  11.959  0.0772  3.4060  0.4891
11724TIP3    H256664   4.627   4.899  12.108  0.0367  0.9139  0.1060
11725TIP3   OH256665   1.334   5.543  13.025 -0.3357  0.3201 -0.2402
11725TIP3    H156666   1.370   5.603  12.961  1.6219 -1.9491 -1.4445
11725TIP3    H256667   1.250   5.516  12.989 -0.1977  0.6322 -0.7984
11726TIP3   OH256668   5.446   1.602  14.643  0.0572 -1.0563  0.3001
11726TIP3    H156669   5.392   1.615  14.566  0.4125  0.5946  0.3095
11726TIP3    H256670   5.504   1.530  14.619 -0.2392 -0.9688 -0.7346
11727TIP3   OH256671   4.259   4.082   4.256 -0.3463 -0.3376  0.3271
11727TIP3    H156672   4.334   4.141   4.258  0.1048 -0.6424 -2.6089
11727TIP3    H256673   4.197   4.123   4.196 -2.4379 -0.2909  2.3732
11728TIP3   OH256674   4.153   4.008  10.649  0.3127 -0.4425 -0.4686
11728TIP3    H156675   4.135   4.060  10.571 -1.5215  2.3991  1.6224
11728TIP3    H256676   4.066   3.983  10.681  0.8777 -0.0134  1.5485
11729TIP3   OH256677   1.490   0.554   4.508 -0.3819  0.0872  0.1624
11729TIP3    H156678   1.461   0.491   4.574  0.3842 -0.4429  0.0090
11729TIP3    H256679   1.409   0.584   4.466 -0.6998 -1.7880 -0.6583
11730TIP3   OH256680   0.725   2.408   6.266 -0.4478 -0.7194 -0.2356
11730TIP3    H156681   0.816   2.438   6.268 -0.7593  0.2689  2.1184
11730TIP3    H256682   0.730   2.320   6.229  1.1397  0.1998 -2.4198
11731TIP3   OH256683   6.749   0.982   5.611 -0.3173  0.3225 -0.0222
11731TIP3    H156684   6.782   0.992   5.700 -0.0908 -3.5476  0.5128
11731TIP3    H256685   6.826   0.961   5.559 -0.6788  0.9683 -0.8433
11732TIP3   OH256686   5.958   2.322  16.435  0.6251  0.0536 -0.3495
11732TIP3    H156687   5.913   2.353  16.513 -0.0273 -1.2379 -0.1775
11732TIP3    H256688   6.011   2.396  16.406 -1.6609  1.7086 -0.6148
11733TIP3   OH256689   5.045   5.796  14.970 -0.4096 -0.1080  0.2343
11733TIP3    H156690   4.996   5.838  15.041  0.1286  0.3439  0.3416
11733TIP3    H256691   4.978   5.775  14.905 -1.0036 -1.0277  1.0916
11734TIP3   OH256692   2.366   5.045  10.438 -0.0784 -0.2197  0.4551
11734TIP3    H156693   2.349   4.953  10.420 -1.2102 -0.0983  0.8438
11734TIP3    H256694   2.279   5.084  10.450  0.2071  1.4197 -2.0557
11735TIP3   OH256695   6.332   3.584   2.429 -0.0441 -0.6548 -0.3510
11735TIP3    H156696   6.265   3.633   2.382 -1.0302 -1.1671  0.4838
11735TIP3    H256697   6.355   3.511   2.371  0.5129  0.0457 -1.0472
11736TIP3   OH256698   3.768   6.517  12.268 -0.3898 -0.2708  0.0622
11736TIP3    H156699   3.709   6.478  12.332 -2.1640 -0.8488 -1.8180
11736TIP3    H256700   3.723   6.597  12.240  0.9282  0.6107  0.3688
11737TIP3   OH256701   2.863   1.845  11.998  0.5203 -0.3208 -0.0374
11737TIP3    H156702   2.907   1.927  12.022 -1.1183  0.2940  1.0548
11737TIP3    H256703   2.804   1.827  12.071 -0.1099 -1.7903 -0.8612
11738TIP3   OH256704   0.083   2.956  10.490  0.3863  0.5747  0.3504
11738TIP3    H156705   0.075   2.868  10.527 -0.2336  0.5408  0.1370
11738TIP3    H256706   0.099   2.941  10.397  2.1922  0.6530  0.6140
11739TIP3   OH256707   3.371   0.324  13.902  0.1762 -0.4115  0.1869
11739TIP3    H156708   3.319   0.374  13.839 -0.1455 -0.0982  0.6909
11739TIP3    H256709   3.349   0.362  13.987  0.5595 -0.8659  0.4982
11740TIP3   OH256710   5.112   6.687   1.590  0.0356  0.3856  0.0258
11740TIP3    H156711   5.097   6.719   1.502  0.1078 -2.1015 -0.9778
11740TIP3    H256712   5.208   6.682   1.598  0.0363  0.8219  0.3470
11741TIP3   OH256713   5.859   0.589  13.409 -0.4691 -0.1005 -0.1781
11741TIP3    H156714   5.866   0.519  13.345  1.5829 -0.1518  0.0165
11741TIP3    H256715   5.876   0.669  13.359  0.1760 -0.0483  0.1171
11742TIP3   OH256716   0.004   2.314  14.166  0.0153  0.5405 -0.2724
11742TIP3    H156717  -0.047   2.391  14.193 -1.0728  0.0256 -0.7925
11742TIP3    H256718  -0.062   2.252  14.134  0.9577 -0.2542 -0.7122
11743TIP3   OH256719   6.060   2.290   2.191  0.0559 -0.2151  0.0753
11743TIP3    H156720   6.086   2.280   2.283 -1.0103  0.7877  0.5284
11743TIP3    H256721   6.011   2.211   2.171  1.2035 -0.9309  0.0157
11744TIP3   OH256722   2.480   1.145   5.239 -0.3270  0.2482  0.2094
11744TIP3    H156723   2.420   1.168   5.168 -0.6101  2.3042  1.0370
11744TIP3    H256724   2.457   1.056   5.263 -0.7048 -0.2364 -1.7918
11745TIP3   OH256725   4.732   3.979  11.995 -0.2202 -0.1722  0.2935
11745TIP3    H156726   4.825   3.999  11.985 -0.8298  2.4552 -0.8103
11745TIP3    H256727   4.710   3.927  11.917 -0.0181  0.6561 -0.3253
11746TIP3   OH256728   2.998   6.036   2.024  0.4586 -0.0037  0.7504
11746TIP3    H156729   2.941   6.042   1.948  0.7252 -0.2844  0.5291
11746TIP3    H256730   3.070   6.096   2.006  1.3829 -1.2646  0.0286
11747TIP3   OH256731   1.328   2.987  11.264  0.3168  0.5798  0.3020
11747TIP3    H156732   1.329   3.055  11.197 -0.7883  0.3317  0.0179
11747TIP3    H256733   1.416   2.948  11.260  0.0298  0.0077 -1.5865
11748TIP3   OH256734   5.838   1.539   1.526  0.2715  0.6982 -0.4982
11748TIP3    H156735   5.838   1.626   1.566  0.4528  0.7087 -0.5181
11748TIP3    H256736   5.912   1.542   1.464  0.8012  0.2591  0.0996
11749TIP3   OH256737   0.205   0.363  11.459 -0.0365  0.3340 -0.0586
11749TIP3    H156738   0.163   0.371  11.373 -0.7266  0.8430  0.3213
11749TIP3    H256739   0.147   0.304  11.508  0.7462 -0.5563 -0.1776
11750TIP3   OH256740   5.912   6.577   6.194 -0.0400 -0.5171  0.0740
11750TIP3    H156741   5.869   6.560   6.111 -1.1496 -1.6179  0.8370
11750TIP3    H256742   5.940   6.491   6.225  0.5804 -0.0929  0.7181
11751TIP3   OH256743   6.141   3.218  14.943  0.5637  0.0991 -0.2201
11751TIP3    H156744   6.080   3.188  14.875  0.6797 -1.2311  0.2226
11751TIP3    H256745   6.214   3.257  14.894 -0.1323  0.7242 -0.7896
11752TIP3   OH256746   0.859   0.627   5.922 -0.1327  0.2872 -0.7021
11752TIP3    H156747   0.793   0.621   5.992  1.1567  1.9375  0.7298
11752TIP3    H256748   0.892   0.716   5.929  1.4785 -0.1694 -2.1175
11753TIP3   OH256749   0.603   1.802  11.801 -0.0638  0.2313  0.1569
11753TIP3    H156750   0.574   1.884  11.762 -0.0321  0.2878  0.2526
11753TIP3    H256751   0.619   1.744  11.726 -2.7142 -0.6056  0.1508
11754TIP3   OH256752   4.519   3.447  13.977 -0.2083 -0.5713 -0.6030
11754TIP3    H156753   4.503   3.369  14.030  1.8716 -0.8343 -0.2540
11754TIP3    H256754   4.495   3.520  14.034 -2.0187 -0.8986 -0.8757
11755TIP3   OH256755   1.422   3.523   5.843 -0.1135  0.2312 -0.4057
11755TIP3    H156756   1.450   3.614   5.841  0.9914 -0.0689  0.4450
11755TIP3    H256757   1.363   3.514   5.769 -0.1561  1.6100 -0.5590
11756TIP3   OH256758   4.651   1.207  15.386 -0.2058 -0.2223 -0.1717
11756TIP3    H156759   4.562   1.234  15.412  0.6345  1.1063  1.5100
11756TIP3    H256760   4.643   1.188  15.292 -2.5875 -1.6370  0.2202
11757TIP3   OH256761   1.113   5.542  17.213 -0.2397 -0.8649  0.2233
11757TIP3    H156762   1.113   5.637  17.211  1.5611 -0.8285 -2.3955
11757TIP3    H256763   1.053   5.517  17.142 -0.0497 -1.6693  0.3385
11758TIP3   OH256764   3.112   3.388   1.319  0.2939  0.4440  0.3649
11758TIP3    H156765   3.174   3.322   1.351  0.2590  0.5111  0.5699
11758TIP3    H256766   3.066   3.417   1.397 -1.3903 -1.0125 -0.0242
11759TIP3   OH256767   0.421   4.225   2.159 -0.3465 -0.6203  0.0078
11759TIP3    H156768   0.394   4.207   2.249 -1.8862 -1.5298 -0.6080
11759TIP3    H256769   0.390   4.150   2.108 -1.2131  0.7592 -1.5953
11760TIP3   OH256770   2.859   4.506   4.808 -0.4392 -0.0583 -0.1351
11760TIP3    H156771   2.918   4.573   4.843  1.1432 -1.8347  0.8097
11760TIP3    H256772   2.787   4.501   4.870  0.1939 -0.2305  0.6029
11761TIP3   OH256773   3.235   1.498  11.602 -0.4313 -0.3154  0.1647
11761TIP3    H156774   3.324   1.511  11.634 -0.0978 -2.4523  0.2414
11761TIP3    H256775   3.247   1.470  11.511 -1.0062 -0.9370  0.2795
11762TIP3   OH256776   3.667   2.121   6.550  0.0419  0.0874 -0.9339
11762TIP3    H156777   3.733   2.062   6.588 -0.6579  0.3450  0.7694
11762TIP3    H256778   3.592   2.115   6.610 -1.1426  0.5226 -2.3140
11763TIP3   OH256779   5.552   0.407  17.039  0.5445 -0.3134 -0.3381
11763TIP3    H156780   5.601   0.332  17.007  0.7515 -0.5217  0.4345
11763TIP3    H256781   5.544   0.391  17.133  0.9317  0.8236 -0.0959
11764TIP3   OH256782   2.762   2.354   6.074 -0.5949  0.2458  0.4472
11764TIP3    H156783   2.850   2.338   6.109 -0.4553  0.1275  0.0415
11764TIP3    H256784   2.735   2.437   6.114 -1.0435 -0.6128  2.0151
11765TIP3   OH256785   6.143   1.782   5.411 -0.0624 -0.5457  0.1839
11765TIP3    H156786   6.068   1.728   5.386 -1.4539  1.2758  0.2340
11765TIP3    H256787   6.105   1.856   5.457  2.0286 -1.1870  3.2602
11766TIP3   OH256788   2.934   3.642  13.977 -0.1819 -0.0607 -0.0189
11766TIP3    H156789   3.008   3.688  13.938 -1.9847  0.0900 -3.6083
11766TIP3    H256790   2.935   3.555  13.938 -1.6766 -0.1691  0.1038
11767TIP3   OH256791   2.138   3.809   4.733 -0.2512  0.2517 -0.2693
11767TIP3    H156792   2.078   3.875   4.697  0.0009  0.2813 -0.6422
11767TIP3    H256793   2.211   3.807   4.671 -0.5269 -0.7868 -0.5903
11768TIP3   OH256794   1.032   3.637  16.651  0.0137  0.0536 -0.1638
11768TIP3    H156795   1.097   3.652  16.583  0.6146  0.5157  0.5012
11768TIP3    H256796   0.957   3.691  16.625  1.0175  1.8796  0.6132
11769TIP3   OH256797   5.073   3.323  14.056  0.0548  0.3974 -0.0755
11769TIP3    H156798   4.984   3.359  14.054  0.3537  1.1417 -1.8940
11769TIP3    H256799   5.089   3.295  13.966  1.2074 -0.9233  0.5068
11770TIP3   OH256800   2.043   1.601   0.076  0.6183 -0.0125  0.3591
11770TIP3    H156801   1.989   1.523   0.063  0.3542 -0.1439  2.0389
11770TIP3    H256802   2.032   1.652  -0.005  0.1483 -1.3167 -0.4186
11771TIP3   OH256803   3.366   3.741  13.170 -1.0350  0.0502  0.2775
11771TIP3    H156804   3.317   3.737  13.088  0.9983 -1.3696 -0.9581
11771TIP3    H256805   3.299   3.729  13.238 -2.3713 -2.8604 -1.3387
11772TIP3   OH256806   4.359   3.438  15.733  0.3606  0.2456 -0.3266
11772TIP3    H156807   4.265   3.459  15.729 -0.2609 -1.7303  1.8089
11772TIP3    H256808   4.401   3.518  15.764 -0.6526  1.0293 -0.9092
11773TIP3   OH256809   2.594   6.349  15.473  0.0016 -0.9081 -1.0191
11773TIP3    H156810   2.635   6.402  15.404 -1.7493  1.4754 -0.3499
11773TIP3    H256811   2.602   6.402  15.552 -0.4973 -2.3603  0.0604
11774TIP3   OH256812   3.851   3.564  15.144  0.5563 -0.5089  0.0755
11774TIP3    H156813   3.852   3.475  15.107 -0.5354  0.7033 -3.2772
11774TIP3    H256814   3.777   3.606  15.100  0.8359  1.9860  1.8381
11775TIP3   OH256815   6.676   5.049   3.310  0.2242 -0.1217 -0.4546
11775TIP3    H156816   6.653   5.021   3.399  1.1238  0.3426 -0.0614
11775TIP3    H256817   6.598   5.029   3.258  0.6779 -3.0272 -0.1641
11776TIP3   OH256818   3.121   6.197  14.167 -0.2642  0.0784  0.1327
11776TIP3    H156819   3.034   6.186  14.205  0.0435  0.7466  1.0555
11776TIP3    H256820   3.176   6.133  14.213 -0.2423 -0.2640 -0.3668
11777TIP3   OH256821   6.396   0.254   2.708  0.0059  0.1512  0.4184
11777TIP3    H156822   6.399   0.204   2.627 -0.6837  0.0292  0.4623
11777TIP3    H256823   6.337   0.204   2.765  0.6584  0.1161  1.0787
11778TIP3   OH256824   5.960   4.414   4.172  0.0563 -0.7263 -0.1140
11778TIP3    H156825   5.921   4.382   4.091 -1.1656 -1.4273  0.7181
11778TIP3    H256826   6.043   4.453   4.145 -0.7932 -0.0041 -1.8318
11779TIP3   OH256827   3.618   6.308  16.123 -0.0176 -0.8654  0.1699
11779TIP3    H156828   3.532   6.341  16.095  0.0204 -1.5939 -0.8335
11779TIP3    H256829   3.643   6.244  16.057  1.0484 -1.0930  0.7597
11780TIP3   OH256830   4.455   4.914  13.883  0.1039  0.1548 -0.4999
11780TIP3    H156831   4.433   4.977  13.952  0.1796 -0.3176 -0.0348
11780TIP3    H256832   4.395   4.841  13.897  1.5343 -0.8947  0.4343
11781TIP3   OH256833   4.222   0.393  16.908 -0.1155 -0.1983  0.8078
11781TIP3    H156834   4.285   0.460  16.933  0.1653 -0.5264  0.9862
11781TIP3    H256835   4.175   0.372  16.988  0.8232 -1.2888  1.1089
11782TIP3   OH256836   5.148   4.389   3.693  0.1752 -0.1032 -0.4895
11782TIP3    H156837   5.076   4.326   3.698 -0.7219  0.8584 -0.8877
11782TIP3    H256838   5.184   4.392   3.781 -1.6233  0.9091  0.2715
11783TIP3   OH256839   6.343   3.632  13.741 -0.2799 -0.0743 -0.4694
11783TIP3    H156840   6.346   3.576  13.663 -1.0332  1.8103 -1.9194
11783TIP3    H256841   6.258   3.675  13.736  0.2805  1.2134  0.5634
11784TIP3   OH256842   6.160   0.259   5.750 -0.0677  0.2080 -0.3359
11784TIP3    H156843   6.244   0.214   5.751  0.1666  0.6147  1.4417
11784TIP3    H256844   6.181   0.352   5.750 -0.4294  0.3459  1.4738
11785TIP3   OH256845   3.917   3.182   4.939  0.2570 -0.0277  0.1771
11785TIP3    H156846   3.870   3.181   5.023  0.4272  0.5844  0.2887
11785TIP3    H256847   3.925   3.275   4.918  2.4057 -0.0444  0.7154
11786TIP3   OH256848   4.641   6.825   0.957 -0.2535  0.2496 -0.0466
11786TIP3    H156849   4.627   6.755   0.893 -0.1182  0.5606 -0.4222
11786TIP3    H256850   4.680   6.896   0.906  2.2140 -0.3712  0.8552
11787TIP3   OH256851   1.300   3.204   3.224  0.2913  0.4459  0.1747
11787TIP3    H156852   1.334   3.183   3.310 -0.3627  1.2428  0.6381
11787TIP3    H256853   1.210   3.171   3.224  0.5756 -0.3922 -0.5480
11788TIP3   OH256854   0.176   0.873   4.388  0.5709 -1.0719  0.2097
11788TIP3    H156855   0.171   0.913   4.475  2.2547 -1.5147  0.5629
11788TIP3    H256856   0.169   0.947   4.327  3.1727 -0.2013  0.8337
11789TIP3   OH256857   5.018   5.194  14.065 -0.0145  0.3971 -0.1926
11789TIP3    H156858   4.999   5.173  13.974  0.7894  0.3766 -0.3681
11789TIP3    H256859   4.989   5.284  14.076 -0.0244  0.4338 -0.5016
11790TIP3   OH256860   6.232   3.445  14.807  0.6054 -0.4778 -0.1754
11790TIP3    H156861   6.208   3.452  14.715 -0.4333 -0.1067  0.1082
11790TIP3    H256862   6.150   3.422  14.852  1.1260 -0.8103  0.6369
11791TIP3   OH256863   5.211   0.591   5.607  0.5384 -0.3316  0.5647
11791TIP3    H156864   5.250   0.645   5.676 -1.0269 -0.2448  1.4147
11791TIP3    H256865   5.204   0.650   5.532  2.4720 -0.4919  0.1914
11792TIP3   OH256866   3.159   1.027  13.235 -0.4880 -0.1871  0.0288
11792TIP3    H156867   3.090   0.961  13.245 -0.2268 -0.3052  1.2208
11792TIP3    H256868   3.210   0.996  13.161  0.6970 -2.3564  1.6273
11793TIP3   OH256869   3.992   6.824   4.402 -0.0841  0.1494 -0.1939
11793TIP3    H156870   4.035   6.909   4.411 -0.4534  0.2616  0.5529
11793TIP3    H256871   3.903   6.838   4.435 -0.1033 -0.5602  0.0754
11794TIP3   OH256872   1.528   4.024   3.203 -0.4378  0.1819 -0.7268
11794TIP3    H156873   1.450   4.053   3.251  0.2850  0.6895  0.1708
11794TIP3    H256874   1.526   3.929   3.209 -0.6176  0.2224 -0.1216
11795TIP3   OH256875   3.499   0.080   2.966 -0.4285 -0.0643  0.4800
11795TIP3    H156876   3.540   0.158   3.005 -1.9515 -0.9192  4.2953
11795TIP3    H256877   3.405   0.096   2.976 -0.7800 -2.0340  0.6904
11796TIP3   OH256878   6.557   0.908  12.127  0.0776 -0.5582 -0.1541
11796TIP3    H156879   6.498   0.983  12.133  0.2960 -0.3390 -0.7143
11796TIP3    H256880   6.510   0.845  12.074 -1.1013 -1.7889  2.1864
11797TIP3   OH256881   2.901   4.290  16.261 -0.7198  0.0880  0.1270
11797TIP3    H156882   2.817   4.328  16.287 -1.7684 -1.0489 -1.4346
11797TIP3    H256883   2.928   4.237  16.337  0.4348  3.1976  2.0736
11798TIP3   OH256884   5.304   5.126  16.695  0.0233  0.0601  0.5271
11798TIP3    H156885   5.217   5.158  16.670 -1.0240 -0.4367  3.2067
11798TIP3    H256886   5.316   5.047  16.642 -0.6750  0.6948 -0.6336
11799TIP3   OH256887   5.595   1.237   0.600 -0.1745  0.3463  0.0884
11799TIP3    H156888   5.527   1.171   0.613  0.4889 -0.3532  0.0003
11799TIP3    H256889   5.639   1.244   0.685  2.2969 -2.1696 -0.8645
11800TIP3   OH256890   0.504   4.681   1.419 -0.4957  0.0171 -0.7138
11800TIP3    H156891   0.538   4.608   1.471  0.8223 -0.5929 -2.3380
11800TIP3    H256892   0.451   4.732   1.481  0.7949 -0.7820  1.1480
11801TIP3   OH256893   0.328   0.334  16.365  0.0875  0.3349  0.8505
11801TIP3    H156894   0.392   0.404  16.350 -1.3774  1.7809  1.0346
11801TIP3    H256895   0.287   0.319  16.280  1.1860 -1.1833  0.5415
11802TIP3   OH256896   3.545   4.248   5.454  0.0927 -0.4454  0.5684
11802TIP3    H156897   3.554   4.261   5.549 -0.0529  1.9938  0.3120
11802TIP3    H256898   3.450   4.246   5.439  0.1162 -1.0660  0.4978
11803TIP3   OH256899   5.656   2.712   5.577 -0.1220  0.0359  0.1356
11803TIP3    H156900   5.706   2.681   5.501  1.1511  1.3784  0.3808
11803TIP3    H256901   5.720   2.759   5.630 -1.4026  0.7493  1.1044
11804TIP3   OH256902   2.485   4.960  16.545  0.2271  0.5706  0.0321
11804TIP3    H156903   2.413   4.922  16.495  0.3793 -0.9459  0.8995
11804TIP3    H256904   2.445   4.987  16.627  0.4787  0.5155  0.1728
11805TIP3   OH256905   4.631   3.365  14.990 -0.4401 -0.2234 -0.8865
11805TIP3    H156906   4.598   3.281  14.958  0.5267 -1.0942  0.2775
11805TIP3    H256907   4.726   3.355  14.988 -0.3053  1.0328 -1.1793
11806TIP3   OH256908   4.927   6.782  17.097  0.3889  0.3551  0.3249
11806TIP3    H156909   4.973   6.705  17.132 -1.0342 -0.8900 -0.4305
11806TIP3    H256910   4.879   6.817  17.171 -0.4805 -0.6569  0.2582
11807TIP3   OH256911   2.668   3.216  11.773 -0.1589 -0.2580 -0.2374
11807TIP3    H156912   2.762   3.198  11.787 -0.3888 -0.8706  0.6166
11807TIP3    H256913   2.659   3.223  11.678  0.6017 -1.1444 -0.3965
11808TIP3   OH256914   1.464   2.241   0.185  0.5837  0.1502  0.4680
11808TIP3    H156915   1.439   2.318   0.236 -1.7010  0.3319 -0.7866
11808TIP3    H256916   1.505   2.278   0.106  2.2322 -0.0625  1.1898
11809TIP3   OH256917   2.864   0.807  15.758  0.6526 -0.2569 -0.3486
11809TIP3    H156918   2.899   0.879  15.810  0.6418 -0.7343  0.3327
11809TIP3    H256919   2.841   0.847  15.674 -1.9514  1.1503  0.9044
11810TIP3   OH256920   5.036   4.917  13.795 -0.0217 -0.2244  0.0836
11810TIP3    H156921   4.969   4.976  13.758  0.5126  0.1931 -0.2251
11810TIP3    H256922   5.015   4.831  13.757 -0.7753 -0.2320  0.4972
11811TIP3   OH256923   4.353   6.464  11.878 -0.0238  0.2359  0.0169
11811TIP3    H156924   4.438   6.419  11.880  0.6507  1.3628 -1.2501
11811TIP3    H256925   4.312   6.442  11.961  2.3902  1.3142  1.6017
11812TIP3   OH256926   5.710   0.852  12.804 -0.3649 -0.1608  0.2278
11812TIP3    H156927   5.799   0.823  12.825  0.5056  0.6735 -2.0388
11812TIP3    H256928   5.696   0.824  12.714 -2.0257  0.5972  0.2145
11813TIP3   OH256929   5.808   5.650   5.616  0.2110 -0.5432 -0.5001
11813TIP3    H156930   5.763   5.700   5.548 -1.1041 -1.9917 -0.7447
11813TIP3    H256931   5.860   5.715   5.663 -2.0863  1.2344 -0.2362
11814TIP3   OH256932   1.752   0.877  11.973  0.8658 -0.1546 -0.5996
11814TIP3    H156933   1.778   0.864  11.882 -2.8170 -2.1748 -1.5502
11814TIP3    H256934   1.679   0.939  11.969 -0.5969 -1.6834  0.6582
11815TIP3   OH256935   1.756   4.275   4.953  0.6238 -0.0420  0.1507
11815TIP3    H156936   1.848   4.249   4.957  0.2606 -1.2221  2.0448
11815TIP3    H256937   1.716   4.214   4.891  0.8619 -0.3648  0.3144
11816TIP3   OH256938   5.216   1.288  12.945  0.4118 -0.1016 -0.6014
11816TIP3    H156939   5.301   1.280  12.987 -0.1169 -0.1250  0.5133
11816TIP3    H256940   5.234   1.327  12.860  1.4272  0.8922  0.0448
11817TIP3   OH256941   1.059   3.047  13.741  0.4554 -0.2320 -0.5512
11817TIP3    H156942   1.074   3.142  13.736 -0.1710 -0.1185 -0.2285
11817TIP3    H256943   1.009   3.027  13.662 -0.0309 -0.1764 -0.2604
11818TIP3   OH256944   6.207   5.454   6.720  0.3929  0.7709 -0.9356
11818TIP3    H156945   6.247   5.371   6.747  0.7370  1.1965 -0.1208
11818TIP3    H256946   6.115   5.446   6.745  0.3586  0.5191 -1.1363
11819TIP3   OH256947   2.142   6.572  13.265  0.0253 -0.5956 -0.0372
11819TIP3    H156948   2.138   6.618  13.181  0.4572 -0.9017 -0.2251
11819TIP3    H256949   2.122   6.640  13.330  2.9638  0.4772 -0.0951
11820TIP3   OH256950   1.408   4.567   5.309 -0.0255  0.0664 -0.7260
11820TIP3    H156951   1.329   4.521   5.281 -0.2350  0.8212 -1.4138
11820TIP3    H256952   1.473   4.498   5.318 -1.3123 -0.9306  2.1581
11821TIP3   OH256953   6.235   1.100   5.960 -0.5253 -0.6676  0.4717
11821TIP3    H156954   6.146   1.094   5.925  0.0434  1.7407 -1.7234
11821TIP3    H256955   6.286   1.039   5.907  0.1496  2.3089 -2.7275
11822TIP3   OH256956   4.675   3.660   5.977 -0.4140 -0.0508  0.3715
11822TIP3    H156957   4.717   3.706   6.050  1.7946 -0.3723 -0.6258
11822TIP3    H256958   4.653   3.574   6.013 -0.8168  0.3317  1.0807
11823TIP3   OH256959   2.821   5.094  16.445 -0.2985  0.3490  0.4740
11823TIP3    H156960   2.903   5.125  16.485 -0.5028 -0.6317  1.7001
11823TIP3    H256961   2.794   5.020  16.500 -2.0156  0.6591  0.0894
11824TIP3   OH256962   4.483   3.398  17.230  0.6266  0.6875  0.5342
11824TIP3    H156963   4.400   3.443  17.248  0.8469  0.8999  1.0508
11824TIP3    H256964   4.503   3.419  17.139 -0.1339  0.2280  0.2499
11825TIP3   OH256965   4.726   2.069  16.792  0.0205  0.2264  0.3485
11825TIP3    H156966   4.808   2.087  16.837  1.1520  1.6391 -2.1035
11825TIP3    H256967   4.695   2.154  16.762 -1.9657 -0.3740  0.5316
11826TIP3   OH256968   5.690   0.146  14.396  0.8251 -0.3201  0.4022
11826TIP3    H156969   5.616   0.123  14.340  0.1976  0.0026  1.0785
11826TIP3    H256970   5.767   0.131  14.342  0.2164  0.3764 -0.6913
11827TIP3   OH256971   5.938   1.755  17.062 -0.5286 -0.7900  0.2083
11827TIP3    H156972   6.003   1.817  17.027 -0.4716 -0.4576  0.8882
11827TIP3    H256973   5.893   1.722  16.984 -0.0692 -0.4402 -0.2176
11828TIP3   OH256974   6.594   5.422   1.644 -0.2229  1.0962  0.3977
11828TIP3    H156975   6.551   5.367   1.710  1.1574 -0.2774  0.1959
11828TIP3    H256976   6.533   5.423   1.570 -1.1735  1.5413  1.1569
11829TIP3   OH256977   3.727   6.644   4.100  0.1838  0.1199 -0.0834
11829TIP3    H156978   3.815   6.606   4.107 -0.0353 -0.5706 -0.8285
11829TIP3    H256979   3.739   6.736   4.120  0.8841 -0.1806  0.9739
11830TIP3   OH256980   2.400   6.204   2.698 -0.2228 -0.0728 -0.0894
11830TIP3    H156981   2.330   6.268   2.708 -0.2219 -0.1719  0.6102
11830TIP3    H256982   2.429   6.186   2.787  0.4944 -0.2562 -0.3511
11831TIP3   OH256983   5.179   1.494   2.547  0.0258  0.1885  0.1785
11831TIP3    H156984   5.272   1.472   2.548 -0.2743 -1.2863 -1.1530
11831TIP3    H256985   5.169   1.553   2.473 -0.0562  0.6213  0.5289
11832TIP3   OH256986   5.104   3.820  17.170  0.1981 -0.0575  0.6016
11832TIP3    H156987   5.046   3.775  17.109 -2.3627  0.6961  2.3098
11832TIP3    H256988   5.087   3.779  17.255  1.2936  0.9831  1.3697
11833TIP3   OH256989   6.728   4.745   3.074  0.0852  0.1796 -0.1667
11833TIP3    H156990   6.811   4.783   3.101  0.1339  0.8953 -1.2737
11833TIP3    H256991   6.663   4.812   3.092 -0.6393 -1.1398  2.7076
11834TIP3   OH256992   5.850   6.698  14.285  0.2950 -0.1397  0.0695
11834TIP3    H156993   5.825   6.790  14.294  1.1195  0.0779  0.2345
11834TIP3    H256994   5.813   6.671  14.201  0.4379  0.4740 -0.1957
11835TIP3   OH256995   1.509   6.213  12.293  0.0639  0.2854 -0.9218
11835TIP3    H156996   1.430   6.261  12.317 -1.4604 -2.1673 -0.7851
11835TIP3    H256997   1.480   6.147  12.230  2.3939  0.6278 -2.4844
11836TIP3   OH256998   6.199   4.757   3.381  0.1168 -0.1631 -0.3299
11836TIP3    H156999   6.263   4.687   3.391 -0.7264 -1.6504 -3.7325
11836TIP3    H257000   6.115   4.718   3.408  0.2181  1.2199  2.4148
11837TIP3   OH257001   4.944   3.283   2.263 -0.7709  0.2156 -0.4374
11837TIP3    H157002   5.038   3.302   2.262 -0.4712 -0.7687  1.9463
11837TIP3    H257003   4.934   3.208   2.204  0.0350 -0.0124 -0.2971
11838TIP3   OH257004   3.982   4.646  10.947  0.2419 -0.5673  0.9020
11838TIP3    H157005   4.024   4.722  10.907 -1.6019 -0.5212 -1.1398
11838TIP3    H257006   3.984   4.579  10.879 -1.4993 -1.0772  1.2968
11839TIP3   OH257007   0.490   6.359  14.241 -0.0027 -0.4409 -0.3931
11839TIP3    H157008   0.483   6.386  14.149 -0.0883 -0.5522 -0.4194
11839TIP3    H257009   0.516   6.438  14.288 -0.2445 -0.3152 -0.4706
11840TIP3   OH257010   3.930   0.387  17.075 -0.0577 -0.2097 -0.3865
11840TIP3    H157011   3.885   0.319  17.026  3.6717 -2.0379 -1.6279
11840TIP3    H257012   3.966   0.342  17.152  0.4664  0.9342  0.0672
11841TIP3   OH257013   1.216   6.200   4.709  0.1150  0.1867 -0.0073
11841TIP3    H157014   1.217   6.240   4.796  1.5950  0.4406 -0.1145
11841TIP3    H257015   1.231   6.273   4.649 -0.9900  0.0276 -0.5048
11842TIP3   OH257016   5.958   6.519  14.780  0.2510  0.3374 -0.3222
11842TIP3    H157017   6.028   6.505  14.843  0.0071  1.4905  0.2273
11842TIP3    H257018   5.993   6.486  14.697  1.5901  1.2251 -0.1376
11843TIP3   OH257019   0.173   2.280   2.246 -0.0760  0.3559 -0.2793
11843TIP3    H157020   0.122   2.337   2.189 -2.0857 -0.8348  0.2145
11843TIP3    H257021   0.153   2.311   2.335  1.8716  1.2683 -0.1059
11844TIP3   OH257022   3.193   2.178   1.815 -0.8212  0.2536  0.2473
11844TIP3    H157023   3.230   2.160   1.901  2.7972 -2.2166 -1.5496
11844TIP3    H257024   3.212   2.270   1.800  0.6918  0.1420  1.2093
11845TIP3   OH257025   6.131   3.218  16.419 -0.3852 -0.1063  0.5321
11845TIP3    H157026   6.113   3.274  16.495  1.5527 -0.9867  1.6974
11845TIP3    H257027   6.120   3.129  16.452  1.3554 -0.5300  0.0735
11846TIP3   OH257028   2.724   3.423   9.998  0.6969 -0.2575  0.2388
11846TIP3    H157029   2.796   3.431   9.935  0.9498 -2.3799  0.1735
11846TIP3    H257030   2.683   3.510   9.999  2.7565  0.7816 -0.3051
11847TIP3   OH257031   5.466   0.098  15.666 -0.0947  0.7987 -0.3198
11847TIP3    H157032   5.514   0.180  15.661 -0.2486  0.9637  0.6330
11847TIP3    H257033   5.382   0.121  15.706  0.0922  0.1023  0.5175
11848TIP3   OH257034   2.662   3.700   5.947 -0.1580 -0.1849  0.0461
11848TIP3    H157035   2.729   3.723   6.011  0.6538  1.0054 -1.1765
11848TIP3    H257036   2.593   3.764   5.961 -0.4807 -0.6166  0.4557
11849TIP3   OH257037   0.028   1.695  14.142 -0.2765 -0.0597  0.0766
11849TIP3    H157038   0.110   1.713  14.187  0.1399  0.1522 -0.7534
11849TIP3    H257039  -0.039   1.710  14.209  0.4239 -2.5078  1.4749
11850TIP3   OH257040   3.475   2.907   2.543  0.0040  0.2156  0.3616
11850TIP3    H157041   3.425   2.844   2.492 -0.8351  1.7520 -0.8070
11850TIP3    H257042   3.496   2.861   2.624 -0.8601 -1.4309 -0.3020
11851TIP3   OH257043   5.186   2.691   2.603 -0.2140  0.1887 -0.2449
11851TIP3    H157044   5.152   2.757   2.662 -0.3526 -0.7372  0.7389
11851TIP3    H257045   5.110   2.638   2.579  0.3190 -1.3775  1.3014
11852TIP3   OH257046   4.642   5.037   4.823 -0.3637  0.4826  0.1083
11852TIP3    H157047   4.570   5.094   4.850 -1.3833 -0.7305  0.0255
11852TIP3    H257048   4.604   4.978   4.758  0.9397  0.3862 -0.6268
11853TIP3   OH257049   6.565   5.030   2.346 -0.1912 -0.4091 -0.9331
11853TIP3    H157050   6.491   5.080   2.313 -0.1155 -0.8444 -1.7884
11853TIP3    H257051   6.606   5.088   2.411 -1.0826 -0.0421 -0.6863
11854TIP3   OH257052   6.656   1.763  11.737  0.4524 -0.2030  0.1918
11854TIP3    H157053   6.570   1.759  11.780  1.0781 -0.9560  1.4474
11854TIP3    H257054   6.636   1.771  11.644 -0.9665  2.0746  0.6157
11855TIP3   OH257055   0.090   5.352  15.931  0.0955  0.9904 -0.2072
11855TIP3    H157056   0.017   5.338  15.991  0.9734 -0.8084  0.4853
11855TIP3    H257057   0.168   5.355  15.986  1.1413 -2.4292 -1.2334
11856TIP3   OH257058   4.882   0.222  15.610 -0.3785 -0.1948 -0.3829
11856TIP3    H157059   4.923   0.208  15.695 -0.2341 -2.0978 -0.7049
11856TIP3    H257060   4.925   0.300  15.575  0.1064  0.1589  0.9483
11857TIP3   OH257061   2.719   6.800   3.699 -0.5556  0.0415 -0.1888
11857TIP3    H157062   2.785   6.813   3.767 -1.1440 -0.2830  0.4533
11857TIP3    H257063   2.703   6.706   3.699 -0.3664  0.0018 -0.9690
11858TIP3   OH257064   4.327   4.586  13.501 -0.0819  0.2091 -0.1506
11858TIP3    H157065   4.322   4.532  13.579  1.8393  1.3752  0.8333
11858TIP3    H257066   4.362   4.528  13.433 -1.5345 -0.7360 -0.1439
11859TIP3   OH257067   5.512   1.409  13.779 -0.0182  0.3133  0.6848
11859TIP3    H157068   5.492   1.318  13.800 -0.2037  0.3371  0.6160
11859TIP3    H257069   5.490   1.417  13.686 -0.3357  0.5206  0.7770
11860TIP3   OH257070   0.311   6.649  14.101 -0.5538  0.1011  0.3783
11860TIP3    H157071   0.338   6.643  14.193 -1.8765  2.3437  0.9873
11860TIP3    H257072   0.330   6.562  14.065  3.7743  0.2744  1.6685
11861TIP3   OH257073   4.400   0.766   2.834  0.0984 -0.8496  0.3488
11861TIP3    H157074   4.349   0.754   2.914 -3.2427  0.5787 -1.3856
11861TIP3    H257075   4.413   0.678   2.800 -1.4499 -1.2668  0.7626
11862TIP3   OH257076   0.911   6.618  12.225 -0.0755  0.0249  0.1410
11862TIP3    H157077   0.995   6.664  12.228 -0.5081  0.7890  1.4933
11862TIP3    H257078   0.862   6.663  12.156 -0.2342  1.1769  0.9755
11863TIP3   OH257079   3.093   4.532  13.276  0.0767 -0.0385  0.4297
11863TIP3    H157080   3.134   4.582  13.206 -0.7159  1.7067  1.1550
11863TIP3    H257081   3.032   4.474  13.230 -0.1350  0.7832 -0.3631
11864TIP3   OH257082   0.348   6.771   4.005  0.8319 -0.2251  0.1407
11864TIP3    H157083   0.347   6.766   4.101  0.7163 -0.2966  0.1361
11864TIP3    H257084   0.290   6.701   3.977  0.6968 -0.0685  0.0238
11865TIP3   OH257085   1.990   6.378  13.105  0.3315  0.2849 -0.0718
11865TIP3    H157086   2.051   6.423  13.163 -0.0860 -0.4461  0.9856
11865TIP3    H257087   1.905   6.415  13.126  0.3690  1.1895 -1.4286
11866TIP3   OH257088   2.892   4.594  15.644  0.3493 -0.1020 -0.2010
11866TIP3    H157089   2.816   4.555  15.602 -0.6026  2.2322 -0.8077
11866TIP3    H257090   2.965   4.570  15.587 -0.4460  0.3227 -1.4496
11867TIP3   OH257091   5.739   4.911  11.760  0.0042  0.4415 -0.0608
11867TIP3    H157092   5.804   4.925  11.692 -0.8037  0.4880 -0.8487
11867TIP3    H257093   5.747   4.987  11.818 -0.7909  1.5567 -1.3535
11868TIP3   OH257094   5.142   5.364  16.574  0.7710  0.2308 -0.2119
11868TIP3    H157095   5.151   5.397  16.484 -0.0942 -0.4032 -0.5354
11868TIP3    H257096   5.053   5.330  16.578  0.7601  0.3734  0.9357
11869TIP3   OH257097   0.441   2.488  13.069  0.3080 -0.1795 -0.1757
11869TIP3    H157098   0.380   2.493  12.995 -0.0302 -1.8746 -0.0382
11869TIP3    H257099   0.518   2.535  13.039  0.1127 -0.6839 -1.5539
11870TIP3   OH257100   4.747   2.628  14.139 -0.0464 -0.0505 -0.1299
11870TIP3    H157101   4.661   2.663  14.116 -0.2710 -0.4542  0.0825
11870TIP3    H257102   4.733   2.586  14.224  0.1853 -0.7769 -0.4459
11871TIP3   OH257103   1.162   6.133   4.118 -0.1921 -0.4582  0.1239
11871TIP3    H157104   1.084   6.084   4.090  0.2719 -1.6701  0.8725
11871TIP3    H257105   1.144   6.223   4.092 -1.5576 -0.8295 -0.3171
11872TIP3   OH257106   2.021   3.064  14.031  0.6939 -0.0564 -0.1673
11872TIP3    H157107   2.100   3.017  14.059  1.3887  1.5618  0.7737
11872TIP3    H257108   2.054   3.145  13.993 -0.4894  0.0189 -1.0728
11873TIP3   OH257109   0.512   1.990   0.108 -0.2009 -0.0805 -0.0782
11873TIP3    H157110   0.500   2.034   0.192 -2.2202  1.0162 -0.8795
11873TIP3    H257111   0.538   2.060   0.048 -0.9905 -0.4264 -0.8395
11874TIP3   OH257112   3.450   2.512  13.536  0.3569  0.1396 -0.5248
11874TIP3    H157113   3.512   2.523  13.608 -0.2957  0.4798 -0.0058
11874TIP3    H257114   3.394   2.438  13.563 -1.4732  1.8061  0.5041
11875TIP3   OH257115   5.615   6.646   5.531  0.3111 -0.2082  0.2111
11875TIP3    H157116   5.632   6.722   5.588  0.0293  0.5131 -0.6417
11875TIP3    H257117   5.586   6.685   5.449  0.9951 -1.2368 -0.5258
11876TIP3   OH257118   0.679   6.333   1.386  0.5267 -0.3930 -0.0090
11876TIP3    H157119   0.740   6.330   1.460  1.4058 -1.1873 -0.7387
11876TIP3    H257120   0.661   6.426   1.374 -1.1559 -0.3036  2.3913
11877TIP3   OH257121   5.326   2.043  11.422 -0.6188  0.1271  0.5100
11877TIP3    H157122   5.262   2.114  11.431 -0.6419  0.2151 -0.2613
11877TIP3    H257123   5.319   2.016  11.331 -0.4461 -0.7245  0.7464
11878TIP3   OH257124   6.785   1.472   2.859 -0.3180  0.6401 -0.3853
11878TIP3    H157125   6.810   1.515   2.941 -0.8599  0.4360 -0.1097
11878TIP3    H257126   6.752   1.387   2.886  0.1486  0.2979 -0.8797
11879TIP3   OH257127   0.924   0.198   5.362 -0.6356 -0.4267  0.3108
11879TIP3    H157128   1.001   0.212   5.307 -0.2696  0.1907  0.9635
11879TIP3    H257129   0.952   0.135   5.428 -0.3434  0.6022  1.1955
11880TIP3   OH257130   1.326   6.306  13.646  0.1627 -0.0179 -0.6410
11880TIP3    H157131   1.408   6.281  13.604  1.9797  0.9886  1.9854
11880TIP3    H257132   1.258   6.281  13.584  2.4353 -0.8736 -2.9694
11881TIP3   OH257133   0.895   2.567  16.713 -0.3286 -0.3225  0.2046
11881TIP3    H157134   0.988   2.577  16.692  0.3181  0.3665  2.9536
11881TIP3    H257135   0.878   2.473  16.709  1.4111 -0.8477  2.7458
11882TIP3   OH257136   6.570   4.554  15.860 -0.1135 -0.1472 -0.0578
11882TIP3    H157137   6.625   4.482  15.830 -1.4267 -1.9954  1.7371
11882TIP3    H257138   6.630   4.609  15.911  0.6398 -0.6151 -0.4141
11883TIP3   OH257139   5.399   1.844   4.711  0.3987  0.5337  0.6965
11883TIP3    H157140   5.477   1.897   4.732  0.8791 -0.0336  0.3710
11883TIP3    H257141   5.434   1.766   4.669 -0.3058 -0.0929  1.2485
11884TIP3   OH257142   6.259   3.390  10.731  0.0437 -0.1582 -0.0943
11884TIP3    H157143   6.293   3.323  10.672  1.0749  0.0153  0.2777
11884TIP3    H257144   6.194   3.437  10.679  1.3987  0.4195 -1.3284
11885TIP3   OH257145   6.800   1.644   0.967  0.3509  0.1027 -0.3707
11885TIP3    H157146   6.720   1.599   0.941 -0.4221  1.6061 -0.7105
11885TIP3    H257147   6.772   1.707   1.034  1.0925  1.1914 -1.0444
11886TIP3   OH257148   2.951   2.870   3.977 -0.1017 -0.2425  0.0101
11886TIP3    H157149   2.948   2.903   3.887  0.5292 -0.0769  0.0471
11886TIP3    H257150   2.859   2.868   4.004 -0.1548  3.3439  0.6390
11887TIP3   OH257151   4.278   5.613   0.934  0.6186 -0.6480 -0.1405
11887TIP3    H157152   4.211   5.545   0.922 -0.5103  0.4931 -0.5151
11887TIP3    H257153   4.228   5.693   0.952  1.9306  0.0097  0.7479
11888TIP3   OH257154   4.940   4.846   4.164  0.5329  0.5242  0.0987
11888TIP3    H157155   4.910   4.759   4.135  0.6030  0.0971  1.2681
11888TIP3    H257156   5.035   4.843   4.154  0.5763  0.2994  0.5873
11889TIP3   OH257157   6.489   1.804   3.152 -0.2367 -0.2700 -0.0675
11889TIP3    H157158   6.534   1.884   3.125  0.7264 -0.6069  0.5216
11889TIP3    H257159   6.421   1.833   3.212  1.1328 -0.0130  1.4122
11890TIP3   OH257160   5.816   4.405  14.358 -0.0254  0.0166 -0.3212
11890TIP3    H157161   5.889   4.355  14.321 -1.0303 -0.8419 -1.2044
11890TIP3    H257162   5.813   4.485  14.304  0.8078  0.4870  0.3018
11891TIP3   OH257163   4.460   1.049  10.759  0.5826 -0.3619 -0.2031
11891TIP3    H157164   4.507   1.128  10.730  1.1069 -0.5119  0.2266
11891TIP3    H257165   4.485   0.982  10.695  3.6318 -1.3280  1.8079
11892TIP3   OH257166   0.020   4.213   3.971  0.0123 -0.3338 -0.0806
11892TIP3    H157167  -0.015   4.275   4.035 -0.1688 -0.1866 -0.3205
11892TIP3    H257168   0.034   4.133   4.021  0.7823  0.0651  0.3600
11893TIP3   OH257169   4.585   6.344  11.973  0.2552  0.3047  0.1910
11893TIP3    H157170   4.579   6.257  12.014 -0.9189 -0.3289 -1.2499
11893TIP3    H257171   4.523   6.397  12.023  0.4047  0.1194  0.5845
11894TIP3   OH257172   0.344   3.193  16.115  0.0066  0.0072 -0.0062
11894TIP3    H157173   0.347   3.133  16.189 -0.0150  0.6000  0.4881
11894TIP3    H257174   0.250   3.210  16.102 -0.0158 -0.4441 -0.4619
11895TIP3   OH257175   2.511   6.648   0.276  0.4703 -0.3368  0.2204
11895TIP3    H157176   2.602   6.633   0.302  0.4835 -1.0134 -0.1864
11895TIP3    H257177   2.501   6.600   0.194 -0.1463  0.0506  0.0615
11896TIP3   OH257178   1.736   1.727  14.813  0.4369 -0.1064 -0.0943
11896TIP3    H157179   1.826   1.737  14.782  0.5607 -1.6639 -0.3203
11896TIP3    H257180   1.745   1.714  14.908  0.7864 -3.2155 -0.4343
11897TIP3   OH257181   1.630   5.316  16.637  0.1841  0.0705 -0.0860
11897TIP3    H157182   1.712   5.290  16.679 -0.8659 -2.7426  0.4501
11897TIP3    H257183   1.620   5.254  16.564 -1.7659 -0.1366  0.2935
11898TIP3   OH257184   0.790   0.028   4.267 -0.6089  0.1639 -0.8031
11898TIP3    H157185   0.861   0.084   4.235 -0.5106  0.4934 -0.0288
11898TIP3    H257186   0.761   0.070   4.348 -0.5990 -0.8580 -0.2583
11899TIP3   OH257187   2.650   6.696  13.964  0.0085 -0.2170  0.6482
11899TIP3    H157188   2.675   6.748  14.041  0.3923  2.4365 -1.1481
11899TIP3    H257189   2.565   6.731  13.939 -0.7065 -1.9478  0.5725
11900TIP3   OH257190   6.591   4.404   0.481 -0.0023  0.2792 -0.7276
11900TIP3    H157191   6.663   4.341   0.484 -0.3931 -0.1351  0.0195
11900TIP3    H257192   6.625   4.482   0.524  0.1797  0.2704 -0.8549
11901TIP3   OH257193   3.995   6.327  14.986 -0.1557 -0.6289  0.4148
11901TIP3    H157194   3.901   6.345  14.995 -0.1540 -0.6876  0.5514
11901TIP3    H257195   4.033   6.412  14.964 -0.4621 -0.9071 -1.3579
11902TIP3   OH257196   1.358   3.693  13.309  0.1716 -0.3333 -0.0850
11902TIP3    H157197   1.331   3.703  13.401  1.0414 -1.7825  0.3609
11902TIP3    H257198   1.314   3.614  13.279 -0.2176  0.2089 -0.9773
11903TIP3   OH257199   4.423   4.719  15.156 -0.3549  0.1024  0.4015
11903TIP3    H157200   4.353   4.691  15.098 -0.3652  0.9444  0.0001
11903TIP3    H257201   4.460   4.637  15.189 -1.4494 -0.3527  0.5437
11904TIP3   OH257202   4.416   5.877   2.868 -0.6675  0.2223 -0.3040
11904TIP3    H157203   4.413   5.869   2.963 -0.5175 -0.1347 -0.3310
11904TIP3    H257204   4.462   5.799   2.838 -1.5994 -0.1879 -0.7386
11905TIP3   OH257205   1.772   3.684   4.882 -0.1835 -0.6692  0.0716
11905TIP3    H157206   1.730   3.600   4.902  1.8106 -1.8375 -0.2904
11905TIP3    H257207   1.859   3.659   4.850  0.4799  1.5642  0.0038
11906TIP3   OH257208   2.495   3.173  16.776 -0.7288  0.6588 -0.1770
11906TIP3    H157209   2.446   3.202  16.699  0.6922  1.4428 -0.8405
11906TIP3    H257210   2.475   3.237  16.843 -0.9649  0.7157 -0.3019
11907TIP3   OH257211   3.002   3.927  13.343  0.7826 -0.4767 -0.0447
11907TIP3    H157212   2.909   3.908  13.350 -0.2922  3.1359 -1.9103
11907TIP3    H257213   3.021   3.981  13.420  0.7464  0.6116 -0.7879
11908TIP3   OH257214   1.742   4.677  11.066 -0.2717  0.2932  0.3420
11908TIP3    H157215   1.655   4.648  11.092 -0.7626 -0.4604 -1.9316
11908TIP3    H257216   1.733   4.701  10.974  1.8600  0.4635  0.1273
11909TIP3   OH257217   1.040   2.520   1.349 -0.1982  0.1217 -0.4356
11909TIP3    H157218   0.953   2.541   1.382 -0.3945 -2.4002  0.9039
11909TIP3    H257219   1.099   2.539   1.423  0.2944  1.0440 -1.0551
11910TIP3   OH257220   1.592   5.591  16.293 -0.0554  0.1199  0.1320
11910TIP3    H157221   1.670   5.642  16.312 -0.3142  0.0267  1.5248
11910TIP3    H257222   1.523   5.655  16.280  0.2623  0.2113 -1.3030
11911TIP3   OH257223   1.192   0.885   5.637  0.1498  0.0697 -0.4357
11911TIP3    H157224   1.264   0.868   5.698  0.0143 -0.0316 -0.3012
11911TIP3    H257225   1.202   0.819   5.569  0.9566  0.8780 -1.1208
11912TIP3   OH257226   1.280   1.471   5.777  0.6693  0.1012  0.2000
11912TIP3    H157227   1.206   1.435   5.730  3.0407 -1.2354 -2.8509
11912TIP3    H257228   1.250   1.557   5.807 -1.8731 -0.0907 -1.4827
11913TIP3   OH257229   4.127   3.297  11.712 -0.3373 -0.0571 -0.1626
11913TIP3    H157230   4.163   3.379  11.680 -1.2542  0.6094  0.4785
11913TIP3    H257231   4.106   3.248  11.633 -0.9381  0.8395 -0.5680
11914TIP3   OH257232   3.737   3.036   2.757 -0.1565  0.1983  0.1274
11914TIP3    H157233   3.820   2.990   2.773 -0.2552  0.5118  1.6350
11914TIP3    H257234   3.673   2.965   2.748 -0.4098 -0.0499  3.0166
11915TIP3   OH257235   4.711   3.323   2.105 -0.4958 -0.5362 -0.5406
11915TIP3    H157236   4.672   3.254   2.159 -1.4590  0.2672 -0.1840
11915TIP3    H257237   4.659   3.322   2.024 -3.1807  2.2639  0.9115
11916TIP3   OH257238   5.250   1.075  12.699  0.3244  0.0424  0.9248
11916TIP3    H157239   5.219   1.034  12.779 -0.3747  0.6222  0.9640
11916TIP3    H257240   5.237   1.169  12.713  0.1606  0.1523  0.1286
11917TIP3   OH257241   4.456   2.092  12.598 -0.0494  0.7733 -0.7139
11917TIP3    H157242   4.408   2.167  12.564 -0.2221  0.2524 -1.6743
11917TIP3    H257243   4.388   2.033  12.632  0.2085  2.1882  2.6170
11918TIP3   OH257244   6.212   2.279  11.189  1.1649  0.0882  0.4333
11918TIP3    H157245   6.280   2.339  11.220  1.0609  1.0600 -1.1077
11918TIP3    H257246   6.257   2.221  11.128  0.9372 -0.3748  0.7020
11919TIP3   OH257247   1.291   2.957   2.610  0.0960  0.0366 -0.4420
11919TIP3    H157248   1.204   2.966   2.650 -0.0216 -1.0461 -0.4082
11919TIP3    H257249   1.352   2.981   2.680 -0.1221 -1.5196  0.3329
11920TIP3   OH257250   1.029   2.153  12.352 -0.1633 -0.1061  0.8778
11920TIP3    H157251   1.042   2.233  12.300  1.1043 -1.3855 -0.8741
11920TIP3    H257252   1.075   2.171  12.435  0.5799  0.7843  0.3022
11921TIP3   OH257253   0.344   3.515  14.038  0.1746 -1.0121  0.4134
11921TIP3    H157254   0.394   3.477  13.965  0.8628 -1.4967  1.1254
11921TIP3    H257255   0.310   3.598  14.002  1.0202 -0.9425 -0.2668
11922TIP3   OH257256   5.427   0.115   2.361 -0.0122  0.4927  0.7915
11922TIP3    H157257   5.406   0.185   2.299 -1.8564  0.0982  0.9260
11922TIP3    H257258   5.493   0.062   2.317  0.6300  1.7005  0.2590
11923TIP3   OH257259   1.996   4.481   3.303  0.5738  0.4107 -0.1651
11923TIP3    H157260   1.915   4.504   3.347  0.6443  0.9571 -0.3040
11923TIP3    H257261   2.009   4.551   3.238  1.0535  0.2307 -0.2738
11924TIP3   OH257262   0.163   2.414  14.868 -0.2912 -0.1925 -0.3081
11924TIP3    H157263   0.164   2.510  14.859 -0.5126 -0.1819 -0.2201
11924TIP3    H257264   0.251   2.387  14.842 -0.0437  0.0863  0.2316
11925TIP3   OH257265   4.283   4.268  11.996  0.3808 -0.1706  0.3145
11925TIP3    H157266   4.355   4.237  11.942  1.2484  0.0816  1.2865
11925TIP3    H257267   4.269   4.358  11.967 -1.1048 -0.9023 -1.4398
11926TIP3   OH257268   0.244   5.617  15.178 -0.3614 -0.6834  0.3456
11926TIP3    H157269   0.246   5.523  15.165  1.7894 -0.5504 -0.6627
11926TIP3    H257270   0.310   5.634  15.245 -0.9087  0.1164  0.7133
11927TIP3   OH257271   1.548   2.072   1.393 -0.5849 -0.8028  0.1203
11927TIP3    H157272   1.621   2.132   1.378  0.0817 -0.7769  2.9433
11927TIP3    H257273   1.587   1.985   1.386 -0.2117 -0.7887  1.6779
11928TIP3   OH257274   2.962   1.023  11.947 -0.7048 -0.1338  0.5978
11928TIP3    H157275   2.941   0.998  11.857 -1.5399 -0.0637  0.7598
11928TIP3    H257276   2.885   1.072  11.976 -0.3426  0.0461  1.2732
11929TIP3   OH257277   4.415   0.801   6.491  0.4054  0.3300 -0.1894
11929TIP3    H157278   4.360   0.737   6.537  0.1915  1.0683  0.5850
11929TIP3    H257279   4.387   0.793   6.399 -0.7135  0.3910  0.1239
11930TIP3   OH257280   3.088   0.956  13.587  0.1901  0.0783 -0.0482
11930TIP3    H157281   3.027   1.006  13.533  2.0437 -1.0098 -3.3974
11930TIP3    H257282   3.173   0.999  13.575  0.6765 -0.0958  2.2593
11931TIP3   OH257283   4.662   6.222  12.830  0.1464  0.1191  0.0560
11931TIP3    H157284   4.723   6.294  12.815  0.8686 -0.4117  0.4054
11931TIP3    H257285   4.577   6.264  12.838  0.5038  0.8963 -0.1350
11932TIP3   OH257286   5.537   1.859   0.958 -0.5290 -0.0607 -0.3576
11932TIP3    H157287   5.614   1.849   0.902 -2.1544 -0.4150 -2.6888
11932TIP3    H257288   5.572   1.884   1.044  2.2435 -1.7021 -0.8930
11933TIP3   OH257289   4.111   5.505  16.733  0.1543  0.4503  0.0504
11933TIP3    H157290   4.039   5.469  16.681 -0.7876 -0.7574  2.0946
11933TIP3    H257291   4.092   5.599  16.740  0.2189  0.6186 -1.5673
11934TIP3   OH257292   0.231   3.252   3.885  0.5516 -0.0802  0.6424
11934TIP3    H157293   0.205   3.160   3.890  0.4970 -0.1537 -0.7136
11934TIP3    H257294   0.322   3.250   3.853  0.4132  0.3374  0.2071
11935TIP3   OH257295   5.859   5.937   1.936 -0.0684 -0.2286 -0.1647
11935TIP3    H157296   5.781   5.992   1.939  1.3882  1.9909 -0.8972
11935TIP3    H257297   5.827   5.849   1.957 -2.6712  0.6731 -0.0279
11936TIP3   OH257298   4.254   1.661   3.879 -0.0044 -0.3060  0.0148
11936TIP3    H157299   4.202   1.590   3.842  0.0256 -0.3951  0.1410
11936TIP3    H257300   4.313   1.617   3.940  2.0797 -0.5380 -2.0377
11937TIP3   OH257301   2.851   2.643  15.354 -0.0930  0.0788 -0.0454
11937TIP3    H157302   2.894   2.597  15.426  1.3019  1.8663  0.3239
11937TIP3    H257303   2.766   2.669  15.390  0.5398  0.8489  0.9310
11938TIP3   OH257304   0.697   5.413  12.127 -0.5708  0.0912 -0.0757
11938TIP3    H157305   0.728   5.365  12.203 -0.7883 -0.1457 -0.1335
11938TIP3    H257306   0.777   5.443  12.083 -0.4432  0.0951  0.1616
11939TIP3   OH257307   4.264   0.310   1.659  0.1798  0.3156  0.2396
11939TIP3    H157308   4.198   0.373   1.630  0.4163  1.0875  1.3163
11939TIP3    H257309   4.332   0.314   1.592 -0.6935 -0.2209 -0.6896
11940TIP3   OH257310   5.065   5.132   3.456  0.0248  0.4387  0.1404
11940TIP3    H157311   5.130   5.140   3.526  0.6266 -0.1111 -0.3446
11940TIP3    H257312   5.083   5.207   3.399 -0.4745  0.8939  0.5756
11941TIP3   OH257313   0.953   3.561   1.978  0.0177 -0.0129 -0.1149
11941TIP3    H157314   0.949   3.616   2.056 -0.4259 -0.4358  0.1677
11941TIP3    H257315   0.876   3.586   1.927  1.0454  1.2414 -1.0953
11942TIP3   OH257316   6.443   2.593  15.703  0.1206  0.4945 -0.6989
11942TIP3    H157317   6.460   2.649  15.627  2.7829  0.3271 -0.3288
11942TIP3    H257318   6.481   2.509  15.680  0.6767  0.3448  0.6740
11943TIP3   OH257319   3.480   1.793  16.691 -0.0215  0.7904 -0.1116
11943TIP3    H157320   3.553   1.732  16.701 -2.3938 -2.4457 -0.7184
11943TIP3    H257321   3.479   1.844  16.771  2.6884  0.7393  0.0222
11944TIP3   OH257322   4.871   6.448  15.621 -0.0194  0.3051 -0.3243
11944TIP3    H157323   4.808   6.394  15.575  0.0570  0.0249 -0.1016
11944TIP3    H257324   4.821   6.525  15.649  0.2888  1.2680 -2.2476
11945TIP3   OH257325   5.263   4.277   6.294  0.3762  0.5148  0.2700
11945TIP3    H157326   5.182   4.310   6.255  0.7066  1.0388  0.0066
11945TIP3    H257327   5.249   4.285   6.389 -1.4421 -3.1321  0.5004
11946TIP3   OH257328   4.853   6.329  12.225  0.0046 -0.0726 -0.1259
11946TIP3    H157329   4.763   6.305  12.248 -0.8941  1.5293 -1.7550
11946TIP3    H257330   4.875   6.401  12.284  0.2616 -0.4928  0.3026
11947TIP3   OH257331   5.893   4.629  15.483  0.0471  0.1978  0.2633
11947TIP3    H157332   5.861   4.607  15.396 -0.3816 -0.9960  0.7185
11947TIP3    H257333   5.871   4.722  15.493 -3.8001 -0.6260  0.7675
11948TIP3   OH257334   6.597   0.051  15.360  0.1333  0.3773 -0.3072
11948TIP3    H157335   6.549   0.003  15.427 -2.2676  2.3424 -0.4587
11948TIP3    H257336   6.684   0.013  15.361 -0.8865 -2.1849  1.2901
11949TIP3   OH257337   5.275   0.041   5.130 -0.3329 -0.3099 -0.3248
11949TIP3    H157338   5.347   0.071   5.185 -1.3775  3.8438 -0.8741
11949TIP3    H257339   5.209   0.009   5.192  0.0879  0.4982  0.5666
11950TIP3   OH257340   3.074   1.534  11.328 -0.1881 -1.0025  0.2158
11950TIP3    H157341   3.070   1.625  11.358  0.9218 -1.8927  3.3808
11950TIP3    H257342   3.166   1.519  11.308 -0.3087 -1.5274  0.0381
11951TIP3   OH257343   5.828   1.837  12.863  0.2610  0.2127  0.9724
11951TIP3    H157344   5.870   1.774  12.805  0.6115  1.0839  0.2521
11951TIP3    H257345   5.846   1.805  12.952 -0.8216 -1.4956  0.6318
11952TIP3   OH257346   6.292   1.872  10.934  0.7538  0.0379  0.3084
11952TIP3    H157347   6.197   1.888  10.932  0.6192 -0.7309 -0.5951
11952TIP3    H257348   6.317   1.870  10.842  1.4624 -0.7823  0.5112
11953TIP3   OH257349   4.823   3.313  11.347 -0.2537  0.3066  0.3291
11953TIP3    H157350   4.779   3.267  11.276  0.7652  1.0275 -0.8248
11953TIP3    H257351   4.906   3.266  11.358 -0.6929 -0.2103  1.5259
11954TIP3   OH257352   5.618   1.778  14.280 -0.5655  0.1782 -0.1161
11954TIP3    H157353   5.549   1.791  14.346 -1.4031 -0.7214 -0.7922
11954TIP3    H257354   5.625   1.683  14.271  0.5744  0.2650 -0.2743
11955TIP3   OH257355   6.255   1.328   1.620 -0.0089 -0.5778 -0.0375
11955TIP3    H157356   6.237   1.316   1.526  0.8247 -1.8150 -0.0649
11955TIP3    H257357   6.177   1.295   1.664  0.7172 -2.7608 -0.2504
11956TIP3   OH257358   5.053   2.383   2.376  0.3632  0.0500  0.1531
11956TIP3    H157359   5.043   2.434   2.295 -4.1105 -1.5763 -0.5996
11956TIP3    H257360   5.056   2.292   2.347 -0.7861 -0.5315  1.7343
11957TIP3   OH257361   6.809   2.796   4.742 -0.5681  0.2235 -0.4250
11957TIP3    H157362   6.753   2.860   4.785 -1.1582 -0.0749 -0.7440
11957TIP3    H257363   6.758   2.715   4.741  0.8271 -0.7845  1.5763
11958TIP3   OH257364   5.165   1.949   2.062  0.0870 -0.0229 -0.0696
11958TIP3    H157365   5.088   1.893   2.069 -0.0286  0.2567  1.3804
11958TIP3    H257366   5.230   1.907   2.119 -0.0083  1.2866  1.0610
11959TIP3   OH257367   6.778   6.386  10.623  0.3830 -0.4453 -0.6244
11959TIP3    H157368   6.848   6.327  10.597 -0.6183 -0.5748 -3.3845
11959TIP3    H257369   6.700   6.351  10.581 -1.7850 -1.0907  3.4093
11960TIP3   OH257370   6.148   4.575   2.910 -0.0259  0.0150  0.5805
11960TIP3    H157371   6.240   4.569   2.936  0.1723  2.1982  0.6226
11960TIP3    H257372   6.101   4.594   2.991 -0.0760  1.8250  0.1744
11961TIP3   OH257373   2.571   3.282   5.532  0.1127 -0.1547  0.2128
11961TIP3    H157374   2.595   3.369   5.501 -0.3332 -0.5085 -1.1631
11961TIP3    H257375   2.586   3.286   5.627 -0.1471  1.4933  0.2135
11962TIP3   OH257376   1.313   3.035   0.701  0.0533  0.3467 -0.3806
11962TIP3    H157377   1.306   3.128   0.682 -0.4232  0.1193 -1.4034
11962TIP3    H257378   1.324   2.993   0.615  2.3643 -0.3872  0.2042
11963TIP3   OH257379   1.823   4.540   2.912 -0.6771  0.2020  0.4287
11963TIP3    H157380   1.735   4.506   2.902 -1.5715  2.0202  1.5589
11963TIP3    H257381   1.826   4.572   3.002  0.5930  1.6350 -0.0774
11964TIP3   OH257382   4.038   5.372  13.243  0.7932  0.0347  0.1890
11964TIP3    H157383   4.100   5.432  13.285 -0.4470  0.9008  0.8713
11964TIP3    H257384   4.067   5.285  13.269  1.8667  0.4034  0.2724
11965TIP3   OH257385   4.138   6.110   6.378 -0.3103 -0.3037 -0.2892
11965TIP3    H157386   4.046   6.107   6.403  0.1058 -0.8508  1.2485
11965TIP3    H257387   4.177   6.175   6.436  0.2951 -0.1067 -0.9002
11966TIP3   OH257388   1.307   6.393  16.738 -0.3418 -0.3423 -0.2125
11966TIP3    H157389   1.338   6.345  16.661 -0.1639  0.2510 -0.5224
11966TIP3    H257390   1.387   6.416  16.785 -0.4090 -0.1259 -0.2040
11967TIP3   OH257391   6.113   3.685  16.888  0.0230  0.0672  0.6175
11967TIP3    H157392   6.177   3.719  16.825 -0.5360 -0.9413 -0.5294
11967TIP3    H257393   6.127   3.590  16.888 -3.5172 -0.6501 -2.1298
11968TIP3   OH257394   3.641   4.699  13.553 -0.2795  0.0038 -0.5427
11968TIP3    H157395   3.552   4.663  13.550 -0.3583  0.2339 -0.9630
11968TIP3    H257396   3.628   4.793  13.568 -0.2255  0.5366 -3.3645
11969TIP3   OH257397   3.077   5.596  14.601 -0.1742  0.3222 -0.1532
11969TIP3    H157398   3.075   5.628  14.691 -3.4428  0.7164 -0.2643
11969TIP3    H257399   3.080   5.676  14.548 -0.3621  0.1715 -0.3920
11970TIP3   OH257400   4.481   0.225  14.662 -0.5065  0.5695  0.1517
11970TIP3    H157401   4.476   0.319  14.646  2.6905  1.1331  1.6507
11970TIP3    H257402   4.422   0.210  14.735  1.2333  2.1142  1.9988
11971TIP3   OH257403   3.940   5.247   1.057 -0.0427  0.1178 -0.6629
11971TIP3    H157404   3.982   5.164   1.034 -1.8781 -0.9240 -0.4447
11971TIP3    H257405   3.861   5.250   1.003 -0.0847  1.6662 -0.5630
11972TIP3   OH257406   5.113   1.687   1.757 -0.0558 -0.1779  0.4914
11972TIP3    H157407   5.055   1.654   1.688 -0.4528  0.1982  0.6382
11972TIP3    H257408   5.098   1.628   1.831  0.9317 -1.0456  0.0278
11973TIP3   OH257409   0.657   5.332  14.021 -0.0005 -0.1838  0.1806
11973TIP3    H157410   0.643   5.294  14.108  0.7871  0.7281  0.7212
11973TIP3    H257411   0.702   5.262  13.972  1.0199 -0.1446  1.0165
11974TIP3   OH257412   3.248   2.832   5.373 -0.0293 -0.1664  0.7622
11974TIP3    H157413   3.272   2.766   5.308  1.3451  0.6412  0.3978
11974TIP3    H257414   3.197   2.897   5.324  1.4519  0.7129  0.3126
11975TIP3   OH257415   4.866   2.099   1.482 -0.0292  0.5481  1.1770
11975TIP3    H157416   4.935   2.089   1.548  0.3854  0.5240  0.7446
11975TIP3    H257417   4.913   2.123   1.402 -0.4034 -0.6781  0.5675
11976TIP3   OH257418   2.414   6.390  11.799  0.3057  0.2769  0.0989
11976TIP3    H157419   2.396   6.481  11.778 -0.2909  0.1049 -0.1643
11976TIP3    H257420   2.337   6.342  11.766  0.3308 -0.2454  0.7831
11977TIP3   OH257421   4.855   4.802  16.292 -0.0383  0.5844  0.0026
11977TIP3    H157422   4.863   4.776  16.384  0.0921  2.4381  0.5649
11977TIP3    H257423   4.945   4.810  16.261 -0.0609  0.8778  0.0080
11978TIP3   OH257424   4.354   2.007  16.986 -0.3083  0.5325  0.0763
11978TIP3    H157425   4.322   2.081  16.935  0.2217 -0.5423 -1.9647
11978TIP3    H257426   4.371   2.042  17.073 -1.3301  2.4641 -0.4576
11979TIP3   OH257427   2.102   5.451  14.592  0.4679  0.2295 -0.5443
11979TIP3    H157428   2.078   5.544  14.595 -1.2027 -0.0811 -2.3608
11979TIP3    H257429   2.062   5.413  14.670 -0.4687  0.7070 -0.7803
11980TIP3   OH257430   3.980   0.352   2.217  0.1308 -0.4121 -0.5048
11980TIP3    H157431   3.903   0.328   2.267  0.3240 -0.1847 -0.0954
11980TIP3    H257432   4.044   0.378   2.282 -0.0739  1.2309 -0.9221
11981TIP3   OH257433   6.485   5.842   0.308 -0.0015 -0.9571  0.5417
11981TIP3    H157434   6.554   5.907   0.311 -0.7429  0.0803 -2.3713
11981TIP3    H257435   6.412   5.882   0.355  0.5755 -1.1352  1.6436
11982TIP3   OH257436   5.849   2.740   4.212  0.0141 -0.0991  0.3410
11982TIP3    H157437   5.793   2.816   4.200  0.9104  0.6520  0.8126
11982TIP3    H257438   5.909   2.742   4.138 -0.5634 -0.9038 -0.1651
11983TIP3   OH257439   0.683   2.317   4.714 -0.2468 -0.5349  0.6148
11983TIP3    H157440   0.616   2.333   4.781 -0.5115  0.0059  0.2285
11983TIP3    H257441   0.721   2.404   4.699 -0.8052 -0.4863 -0.5868
11984TIP3   OH257442   4.523   4.209  11.872  0.2197 -0.3731 -0.7021
11984TIP3    H157443   4.571   4.167  11.943  1.5895  0.7894 -0.8894
11984TIP3    H257444   4.550   4.162  11.793  1.3939  0.5024 -0.8528
11985TIP3   OH257445   1.491   6.298   4.229 -0.2637  0.1671  0.5859
11985TIP3    H157446   1.580   6.324   4.207 -0.7689  0.7638 -0.8971
11985TIP3    H257447   1.452   6.376   4.268 -0.7867  0.6405 -0.8290
11986TIP3   OH257448   5.830   0.292  14.858  0.2220 -0.4685 -0.7052
11986TIP3    H157449   5.794   0.267  14.943  1.1703 -0.2712 -0.2362
11986TIP3    H257450   5.924   0.282  14.867  0.4154  0.4954 -1.4159
11987TIP3   OH257451   1.570   0.841  14.890 -0.0653 -0.0941  0.7397
11987TIP3    H157452   1.658   0.804  14.902  0.2946 -0.4817 -2.1656
11987TIP3    H257453   1.512   0.765  14.890 -0.1005 -0.0685  0.6447
11988TIP3   OH257454   2.504   4.463   1.000 -0.1415  0.3867  0.0525
11988TIP3    H157455   2.522   4.550   0.964 -0.8345  0.3395 -0.4193
11988TIP3    H257456   2.481   4.480   1.091 -2.3599  0.9544 -0.5453
11989TIP3   OH257457   5.507   0.184  16.666 -0.6681 -0.5081 -0.4701
11989TIP3    H157458   5.576   0.134  16.622  0.6594  1.1682 -0.4074
11989TIP3    H257459   5.445   0.204  16.596  1.0782  1.5395 -1.5676
11990TIP3   OH257460   1.028   6.063   4.426 -0.2039 -0.3642  0.2784
11990TIP3    H157461   1.024   6.000   4.354  0.6166  1.8218 -1.8445
11990TIP3    H257462   1.121   6.072   4.445 -0.1622  1.2287 -0.5086
11991TIP3   OH257463   3.689   1.023   5.410 -0.0238  0.4246 -0.5442
11991TIP3    H157464   3.650   0.983   5.333  1.7044  0.0427 -1.2599
11991TIP3    H257465   3.713   0.949   5.466 -0.9026  0.6841  0.2081
11992TIP3   OH257466   0.640   1.407  10.485  0.0029 -0.2940  0.2129
11992TIP3    H157467   0.645   1.502  10.471  0.6118 -0.1193  1.4548
11992TIP3    H257468   0.710   1.371  10.431 -0.8903 -0.1463 -1.0646
11993TIP3   OH257469   6.012   2.565  13.677  0.5415  0.2290 -0.0576
11993TIP3    H157470   5.926   2.585  13.640  0.4733 -0.2258 -0.1589
11993TIP3    H257471   6.073   2.624  13.631  0.5594 -0.7699 -1.3941
11994TIP3   OH257472   5.435   5.342  12.497  0.1637  0.4183 -1.0365
11994TIP3    H157473   5.386   5.320  12.417 -1.1958  0.8950 -0.3562
11994TIP3    H257474   5.492   5.266  12.511 -1.7422 -1.0483 -0.8191
11995TIP3   OH257475   3.979   1.645  10.687 -0.5236  0.0087 -0.3612
11995TIP3    H157476   3.925   1.571  10.659 -1.4085  1.1944 -1.8706
11995TIP3    H257477   3.927   1.723  10.668 -0.0159  1.0590  2.0639
11996TIP3   OH257478   6.281   5.514  14.610  0.0189 -0.1400 -0.0687
11996TIP3    H157479   6.248   5.511  14.520 -2.9204 -0.6541  0.9228
11996TIP3    H257480   6.319   5.427  14.624 -0.2777 -0.3581 -0.5677
11997TIP3   OH257481   2.663   4.389   5.482 -0.5997 -0.1305  0.1358
11997TIP3    H157482   2.627   4.407   5.569  1.3244 -2.1166  1.4397
11997TIP3    H257483   2.751   4.426   5.484  0.2637 -2.0635 -0.1460
11998TIP3   OH257484   2.879   3.390  17.246 -0.0473  0.3811 -0.5779
11998TIP3    H157485   2.868   3.417  17.338 -1.1322  1.0419 -0.8755
11998TIP3    H257486   2.864   3.296  17.247  2.0611 -0.0001  0.2208
11999TIP3   OH257487   0.410   6.286   0.888 -0.1196  0.3205 -0.0637
11999TIP3    H157488   0.348   6.317   0.822 -0.2781  0.9223  0.3574
11999TIP3    H257489   0.355   6.263   0.964 -0.0107 -1.0418 -0.3683
12000TIP3   OH257490   6.530   4.831   1.695 -0.5064 -0.6097  0.1925
12000TIP3    H157491   6.567   4.788   1.772  0.7391  0.6775  0.3413
12000TIP3    H257492   6.462   4.770   1.664 -1.3359 -0.9670  2.5354
12001TIP3   OH257493   3.620   2.557   1.864  0.8688  0.1764 -0.1169
12001TIP3    H157494   3.612   2.651   1.845  1.2802  0.1324 -0.5158
12001TIP3    H257495   3.712   2.537   1.848  0.6647 -0.4153 -0.5948
12002TIP3   OH257496   2.476   5.780  15.663  0.0181 -0.0775  0.4047
12002TIP3    H157497   2.384   5.771  15.688 -0.5506 -1.9146 -1.9197
12002TIP3    H257498   2.513   5.692  15.675  1.4331  0.5814  1.1011
12003TIP3   OH257499   2.921   6.660  10.514  0.0244  0.6723  0.6251
12003TIP3    H157500   2.993   6.598  10.512 -1.0873 -0.7206  1.8160
12003TIP3    H257501   2.953   6.733  10.568  0.8651  0.5425  0.3185
12004TIP3   OH257502   0.118   2.627   3.153  0.3879  0.2404 -0.2335
12004TIP3    H157503   0.110   2.560   3.085  1.2622 -0.0761 -0.0357
12004TIP3    H257504   0.193   2.679   3.126  0.0360  0.8161 -0.1047
12005TIP3   OH257505   0.309   5.529   5.019  0.7532 -0.0319 -0.6527
12005TIP3    H157506   0.331   5.612   4.977  0.4612 -0.3316 -1.4216
12005TIP3    H257507   0.391   5.479   5.018  1.3303  0.8112  1.2130
12006TIP3   OH257508   4.232   6.321   6.519  0.1507  0.0441  0.5248
12006TIP3    H157509   4.219   6.372   6.599  1.1427  2.9908 -1.0123
12006TIP3    H257510   4.327   6.310   6.513  0.1562  0.5508 -0.6021
12007TIP3   OH257511   5.679   6.561  12.472 -0.3005  0.3109  0.1897
12007TIP3    H157512   5.737   6.614  12.416  0.3255 -0.0293  0.5039
12007TIP3    H257513   5.648   6.491  12.414  0.2646  0.0176  0.2315
12008TIP3   OH257514   3.492   3.307  13.935  0.2616 -0.0558  0.0100
12008TIP3    H157515   3.554   3.329  14.005 -0.6288 -0.4525  0.9605
12008TIP3    H257516   3.496   3.382  13.875 -0.7987  1.5566  1.8267
12009TIP3   OH257517   6.533   3.372  15.229  0.3647  0.0301 -0.4401
12009TIP3    H157518   6.628   3.378  15.230  0.3228  0.8268 -0.3068
12009TIP3    H257519   6.503   3.463  15.240 -0.4287 -0.4294  1.6479
12010TIP3   OH257520   6.491   1.903  11.348 -0.0176 -0.2096 -0.3120
12010TIP3    H157521   6.496   1.832  11.413 -1.5225 -0.8031 -0.8142
12010TIP3    H257522   6.400   1.932  11.352 -0.2231 -0.4447 -2.3352
12011TIP3   OH257523   4.475   4.985  15.177  0.2304 -0.2853  0.0142
12011TIP3    H157524   4.439   4.900  15.154  0.8611 -0.0785 -1.8870
12011TIP3    H257525   4.547   4.965  15.237 -0.0185 -1.0394  0.0659
12012TIP3   OH257526   2.829   1.105   2.384 -0.2639  0.1342 -0.4830
12012TIP3    H157527   2.858   1.046   2.314 -1.6519 -0.7875 -0.3239
12012TIP3    H257528   2.743   1.135   2.356 -1.2549 -0.9574  1.1819
12013TIP3   OH257529   2.045   0.532   1.309  0.5146 -0.2649  0.3898
12013TIP3    H157530   2.139   0.541   1.295  0.4353  2.0164  0.9578
12013TIP3    H257531   2.008   0.618   1.286 -1.2061 -0.5793  1.7195
12014TIP3   OH257532   2.928   0.087   0.870 -0.1841  0.3755 -0.1992
12014TIP3    H157533   2.891   0.116   0.953 -1.8205  0.4263 -0.9029
12014TIP3    H257534   2.988   0.157   0.844  0.5213  0.2472  1.0344
12015TIP3   OH257535   3.249   6.519   2.622 -0.0853 -0.1036  0.1290
12015TIP3    H157536   3.322   6.465   2.593  1.5683  1.5926  0.9406
12015TIP3    H257537   3.181   6.504   2.556  1.2968 -1.0376 -1.1575
12016TIP3   OH257538   6.806   6.601   6.309  0.0465 -0.7091 -0.3546
12016TIP3    H157539   6.733   6.539   6.316 -0.9540  0.3417 -1.0185
12016TIP3    H257540   6.764   6.684   6.285  1.6212 -0.5388 -2.9344
12017TIP3   OH257541   5.314   0.025  13.966  0.6753  0.0107 -0.0083
12017TIP3    H157542   5.404  -0.007  13.970  0.3688 -0.9369 -0.4770
12017TIP3    H257543   5.261  -0.053  13.952 -0.2841  0.4830  0.8603
12018TIP3   OH257544   4.189   5.109  13.307 -0.1814  0.3959 -0.8385
12018TIP3    H157545   4.204   5.033  13.362  1.0836  1.4784  0.3780
12018TIP3    H257546   4.211   5.080  13.218  1.0163 -0.4387 -0.2850
12019TIP3   OH257547   5.576   2.468   1.056  0.0394 -0.3900 -0.2184
12019TIP3    H157548   5.506   2.531   1.072  0.2260 -0.0444 -0.7298
12019TIP3    H257549   5.564   2.442   0.965  1.4438  0.7855 -0.7816
12020TIP3   OH257550   1.012   2.929  11.022 -0.2724  0.0345  0.5306
12020TIP3    H157551   1.048   2.850  10.981  0.0791  0.6123 -0.3112
12020TIP3    H257552   1.088   2.971  11.063 -0.2867  0.3779  0.2174
12021TIP3   OH257553   3.489   5.949  11.015 -0.4973  0.3031  0.0580
12021TIP3    H157554   3.443   5.913  10.939  0.8367 -1.1313 -0.1369
12021TIP3    H257555   3.482   6.044  11.005 -0.5640  0.1421 -1.7196
12022TIP3   OH257556   1.736   2.925  11.326 -0.2406  0.7102  0.2743
12022TIP3    H157557   1.671   2.882  11.271 -1.7142  1.3621  1.4486
12022TIP3    H257558   1.775   2.991  11.268 -0.0165 -0.2117 -0.6714
12023TIP3   OH257559   5.849   2.391  15.437  0.1396  0.3089 -0.5459
12023TIP3    H157560   5.931   2.432  15.410  1.3962 -2.3866 -1.2118
12023TIP3    H257561   5.822   2.339  15.362 -3.0630  2.1875 -0.8857
12024TIP3   OH257562   3.546   1.323  11.856  0.6993 -0.4019  0.0954
12024TIP3    H157563   3.630   1.338  11.812  0.1572 -1.2755 -1.3296
12024TIP3    H257564   3.541   1.228  11.864 -1.8011 -0.7619 -3.4441
12025TIP3   OH257565   3.384   2.278   1.255  0.2547 -1.2827  0.4819
12025TIP3    H157566   3.398   2.360   1.207  2.4941 -1.3481  0.8997
12025TIP3    H257567   3.402   2.209   1.191  1.3076 -1.3827  0.8540
12026TIP3   OH257568   6.160   3.161   1.098  0.1217 -0.3605  0.2705
12026TIP3    H157569   6.085   3.103   1.109  0.5257 -0.7468  1.0871
12026TIP3    H257570   6.225   3.108   1.051 -0.6784  0.4869 -1.9093
12027TIP3   OH257571   5.436   4.530  11.044 -0.0145 -0.5971 -0.4628
12027TIP3    H157572   5.402   4.443  11.022 -1.2663 -0.1042 -0.6017
12027TIP3    H257573   5.504   4.547  10.979 -0.5563 -1.0048 -1.1469
12028TIP3   OH257574   2.220   2.952   2.432 -0.9420  0.4337  0.0137
12028TIP3    H157575   2.247   3.010   2.361 -1.6017  1.4455  0.5566
12028TIP3    H257576   2.169   3.008   2.490 -2.9434 -1.0504 -0.2184
12029TIP3   OH257577   0.337   5.689   5.892  0.1055  0.4434 -0.0418
12029TIP3    H157578   0.402   5.758   5.907  0.6506  0.0193 -0.4197
12029TIP3    H257579   0.351   5.628   5.965 -0.7709  1.0074  0.6281
12030TIP3   OH257580   5.645   3.418   2.994 -0.0709 -0.7084 -0.4928
12030TIP3    H157581   5.595   3.385   2.920 -0.2343 -1.0016 -0.2566
12030TIP3    H257582   5.646   3.345   3.056  0.3652 -0.5912 -0.3569
12031TIP3   OH257583   5.310   2.905   4.969  0.5715  0.9989  0.1921
12031TIP3    H157584   5.377   2.964   5.004 -0.1782  0.1468  3.3868
12031TIP3    H257585   5.336   2.818   4.999  0.2317 -0.0211 -2.1794
12032TIP3   OH257586   1.781   3.421  11.546  1.0006 -0.0537  0.0140
12032TIP3    H157587   1.839   3.496  11.532  1.6918 -0.7101 -0.7314
12032TIP3    H257588   1.708   3.457  11.597  2.0548  0.7884  0.9948
12033TIP3   OH257589   3.821   0.860  11.868 -0.5874  0.1588 -0.5871
12033TIP3    H157590   3.781   0.921  11.929 -1.4041 -2.8703  2.1283
12033TIP3    H257591   3.758   0.789  11.859  0.5035 -0.6021 -3.2349
12034TIP3   OH257592   3.093   1.899  12.351  0.1143 -0.1993  0.2047
12034TIP3    H157593   3.165   1.839  12.331  0.8111  1.2402 -1.8410
12034TIP3    H257594   3.045   1.909  12.269 -1.7505 -0.1926  1.2353
12035TIP3   OH257595   5.210   2.905  17.213  0.5564 -0.2459  0.2224
12035TIP3    H157596   5.190   2.998  17.225 -2.1784 -0.6222 -0.6069
12035TIP3    H257597   5.190   2.865  17.298 -1.2163 -0.4173 -0.2196
12036TIP3   OH257598   2.386   5.646  10.496 -0.0377  0.1685  0.4274
12036TIP3    H157599   2.396   5.738  10.522  0.1877  0.2232  0.1488
12036TIP3    H257600   2.291   5.633  10.493 -0.1238  0.9226 -1.3465
12037TIP3   OH257601   3.617   2.021   5.403 -0.4618  0.0682  0.3620
12037TIP3    H157602   3.572   2.103   5.382 -0.8142 -0.6322 -2.0189
12037TIP3    H257603   3.547   1.956   5.407  0.0592 -0.6521 -1.1877
12038TIP3   OH257604   3.494   4.959   5.892 -0.5851 -0.5270 -0.5773
12038TIP3    H157605   3.587   4.941   5.898 -0.6981 -0.6723  1.0680
12038TIP3    H257606   3.452   4.883   5.932 -1.3262  0.3196  0.3064
12039TIP3   OH257607   6.693   3.877  16.411  0.0598  0.4927  0.2523
12039TIP3    H157608   6.764   3.814  16.425 -1.2950 -1.0196  0.5477
12039TIP3    H257609   6.649   3.884  16.495 -1.2321  0.0088 -0.3524
12040TIP3   OH257610   3.667   1.998  11.555  0.2995 -0.2618  1.0592
12040TIP3    H157611   3.675   2.092  11.538  2.4023 -0.5854 -0.1047
12040TIP3    H257612   3.622   1.963  11.478 -0.4295 -0.2231  1.4636
12041TIP3   OH257613   3.805   3.084   5.502 -0.1201  0.3277  0.2173
12041TIP3    H157614   3.809   3.133   5.420  0.3569 -0.0507  0.0134
12041TIP3    H257615   3.834   3.146   5.568 -1.1771  0.8623  0.2143
12042TIP3   OH257616   3.678   5.275   0.407  0.1740 -0.3811  0.1338
12042TIP3    H157617   3.716   5.362   0.394  0.8560 -0.8893 -1.4481
12042TIP3    H257618   3.606   5.270   0.344 -0.8578 -0.4198  1.2733
12043TIP3   OH257619   0.510   5.035   4.611  0.2752  0.0710  0.4006
12043TIP3    H157620   0.594   5.026   4.567  0.3222  0.9094  0.2979
12043TIP3    H257621   0.459   4.959   4.582  1.0119 -0.4805  0.5232
12044TIP3   OH257622   1.458   3.254   4.763  0.2450 -0.0283 -0.3127
12044TIP3    H157623   1.480   3.194   4.691 -0.1640  1.4123 -1.6783
12044TIP3    H257624   1.387   3.308   4.729  2.0683  2.7721 -0.0224
12045TIP3   OH257625   4.075   2.871   3.318 -0.3687  0.5089 -0.1018
12045TIP3    H157626   4.160   2.829   3.313 -0.0772  1.1974 -1.6002
12045TIP3    H257627   4.094   2.964   3.332 -0.8344  0.7328 -0.8729
12046TIP3   OH257628   6.534   5.078  17.075  0.0616 -0.0533  0.1469
12046TIP3    H157629   6.585   5.005  17.110 -1.5989 -0.8011  1.1353
12046TIP3    H257630   6.597   5.128  17.022  2.1200 -0.1767  2.3072
12047TIP3   OH257631   2.733   3.505   3.289  0.2209  0.3120 -0.2875
12047TIP3    H157632   2.815   3.487   3.245  0.3307 -1.8983  0.6863
12047TIP3    H257633   2.716   3.427   3.341 -1.6789  1.3744  0.8085
12048TIP3   OH257634   5.397   2.501  15.898 -0.1626  0.2108  0.0303
12048TIP3    H157635   5.448   2.440  15.952  1.5104  3.1490  2.0571
12048TIP3    H257636   5.461   2.538  15.837 -0.9729  0.5122 -0.6560
12049TIP3   OH257637   3.575   5.830  11.526  0.1081  0.5997 -0.0677
12049TIP3    H157638   3.491   5.848  11.568 -1.0620 -1.9777 -1.0832
12049TIP3    H257639   3.619   5.770  11.586  1.1815  1.8066  0.3771
12050TIP3   OH257640   4.873   0.393   2.668 -0.2347  0.4602 -0.2432
12050TIP3    H157641   4.922   0.425   2.593 -0.5239  1.4897 -0.0172
12050TIP3    H257642   4.846   0.473   2.714  0.2184 -0.1432  1.1332
12051TIP3   OH257643   1.151   1.894  15.530 -0.6262 -0.4205 -0.0079
12051TIP3    H157644   1.220   1.939  15.482 -1.3106 -0.3413 -0.9472
12051TIP3    H257645   1.152   1.935  15.617  0.2177 -0.1322 -0.1431
12052TIP3   OH257646   1.538   1.578  16.332 -0.5971  0.1061 -0.1706
12052TIP3    H157647   1.449   1.585  16.367 -1.7032 -3.0359 -1.9976
12052TIP3    H257648   1.583   1.518  16.392 -1.3680 -2.3460 -1.9196
12053TIP3   OH257649   4.537   3.911  16.993 -0.6024 -0.2147 -0.5558
12053TIP3    H157650   4.514   3.930  17.084 -0.0401  1.3922 -0.7150
12053TIP3    H257651   4.547   3.816  16.990  0.0707 -0.2365  1.2323
12054TIP3   OH257652   4.151   5.149  12.655 -0.8395 -0.6424  0.2899
12054TIP3    H157653   4.215   5.217  12.679 -0.0213 -1.6428  1.0310
12054TIP3    H257654   4.105   5.130  12.737 -0.2422 -1.8085  0.3766
12055TIP3   OH257655   4.744   4.990   3.993  0.1359  0.1195 -0.1741
12055TIP3    H157656   4.830   4.948   3.997  0.4034  0.7090  0.6003
12055TIP3    H257657   4.713   4.989   4.084 -0.1812  0.9136 -0.2650
12056TIP3   OH257658   3.169   4.087  14.412 -0.2503  0.0899  0.0144
12056TIP3    H157659   3.193   4.008  14.364 -2.1437 -1.1265  0.9317
12056TIP3    H257660   3.130   4.145  14.347 -2.9104 -1.5892 -0.0322
12057TIP3   OH257661   6.549   4.145   5.349  0.5838 -1.3671 -0.7435
12057TIP3    H157662   6.485   4.158   5.419  0.3612 -0.6834 -1.0577
12057TIP3    H257663   6.592   4.230   5.340  0.2373 -1.2817 -1.7952
12058TIP3   OH257664   5.141   1.901   5.884 -0.1729  0.0065  0.5378
12058TIP3    H157665   5.129   1.912   5.979 -0.5478 -0.2717  0.5227
12058TIP3    H257666   5.155   1.808   5.872  0.2081  0.0854  0.3510
12059TIP3   OH257667   3.272   6.574  14.400 -0.1154  0.0351 -0.0236
12059TIP3    H157668   3.270   6.665  14.429 -0.8654  0.1641 -0.4544
12059TIP3    H257669   3.253   6.523  14.479  0.5830  0.2298  0.2767
12060TIP3   OH257670   1.649   4.447   0.064 -0.1743  0.6361  0.1255
12060TIP3    H157671   1.635   4.492  -0.019 -0.2493 -0.7655 -0.6523
12060TIP3    H257672   1.723   4.388   0.048 -1.0256 -0.6136  0.6360
12061TIP3   OH257673   5.069   2.150   6.419 -0.1536  0.3233  0.3973
12061TIP3    H157674   4.979   2.133   6.390 -0.1344 -0.3184  0.6947
12061TIP3    H257675   5.083   2.243   6.402 -0.7058  0.3175 -0.1096
12062TIP3   OH257676   1.273   0.658   4.406  0.5042  0.3150 -0.3694
12062TIP3    H157677   1.235   0.572   4.384  1.6054  0.3432 -2.6254
12062TIP3    H257678   1.210   0.721   4.372 -0.8763  0.5327  2.2825
12063TIP3   OH257679   5.576   0.595  15.518  0.5843 -0.0481 -0.2395
12063TIP3    H157680   5.570   0.682  15.559  0.7349  0.5095 -1.3681
12063TIP3    H257681   5.655   0.600  15.464  1.9959 -1.7186  1.5525
12064TIP3   OH257682   6.451   1.529  14.718 -0.0270 -0.6024  0.4894
12064TIP3    H157683   6.373   1.584  14.702  0.9175  0.2652 -1.5585
12064TIP3    H257684   6.465   1.484  14.634  1.3364 -1.1952  1.0181
12065TIP3   OH257685   6.578   6.110   2.226 -0.5600  0.3949 -0.2515
12065TIP3    H157686   6.542   6.023   2.244  0.6983 -0.0661  0.1857
12065TIP3    H257687   6.555   6.127   2.135 -2.0844  0.2559  0.0762
12066TIP3   OH257688   1.613   5.974   2.277  0.0797  0.8712  0.1396
12066TIP3    H157689   1.701   6.011   2.281 -0.3167  1.7778  1.9435
12066TIP3    H257690   1.557   6.048   2.255 -0.3771  0.6312  0.4655
12067TIP3   OH257691   6.408   0.450  16.269 -0.0205 -0.6355  0.6709
12067TIP3    H157692   6.409   0.432  16.176 -2.6414  0.0786  0.4212
12067TIP3    H257693   6.429   0.544  16.276  0.6785 -0.7958  0.8780
12068TIP3   OH257694   2.606   2.440  15.613  0.2123 -0.0429  0.5574
12068TIP3    H157695   2.553   2.373  15.655 -3.7163  0.1190 -3.4053
12068TIP3    H257696   2.686   2.394  15.585  0.0874 -1.5838  2.5331
12069TIP3   OH257697   6.176   4.367  14.941 -0.0295  0.3495 -0.3242
12069TIP3    H157698   6.218   4.384  14.856 -2.2235 -1.6992 -1.9328
12069TIP3    H257699   6.113   4.439  14.951 -0.1521  0.2989 -0.7100
12070TIP3   OH257700   0.130   2.080   1.355  0.5877 -0.6703 -0.3208
12070TIP3    H157701   0.038   2.105   1.365 -0.0201 -2.8380  0.2058
12070TIP3    H257702   0.171   2.106   1.437 -0.1129 -1.6801  0.3843
12071TIP3   OH257703   2.243   5.824   3.389  0.1096 -0.1261  0.9224
12071TIP3    H157704   2.150   5.831   3.367  0.4176  1.5964  0.0162
12071TIP3    H257705   2.272   5.745   3.344 -1.0737 -1.1827  1.9351
12072TIP3   OH257706   1.638   2.657  13.352  0.3189  0.0927  0.3839
12072TIP3    H157707   1.710   2.661  13.415  0.1215 -1.0652  0.7006
12072TIP3    H257708   1.623   2.748  13.327  2.6446  0.3079 -0.5275
12073TIP3   OH257709   1.225   6.630   0.194  0.5857  0.4957 -0.8972
12073TIP3    H157710   1.278   6.642   0.115 -0.3772  0.9604 -1.4883
12073TIP3    H257711   1.142   6.593   0.163  0.5433 -0.2444  0.0162
12074TIP3   OH257712   5.318   5.525  15.860  0.3301 -0.0313  0.1155
12074TIP3    H157713   5.275   5.441  15.847  0.1710 -0.3114  2.0793
12074TIP3    H257714   5.293   5.578  15.784 -1.0237 -1.1629 -0.2625
12075TIP3   OH257715   5.011   5.679  17.188  0.4191 -0.8736  0.5281
12075TIP3    H157716   5.031   5.682  17.094 -0.0455 -1.2145  0.4147
12075TIP3    H257717   5.076   5.737  17.228  0.2166 -0.2313 -0.0669
12076TIP3   OH257718   6.741   5.735  12.442 -0.2960  0.2658  0.2637
12076TIP3    H157719   6.754   5.753  12.535 -0.6327  0.4680  0.2729
12076TIP3    H257720   6.731   5.640  12.437 -0.6575  0.2897  0.4813
12077TIP3   OH257721   0.953   1.281  16.920  0.1353 -0.5147 -0.6144
12077TIP3    H157722   0.875   1.335  16.906 -0.5643 -1.8099 -2.0380
12077TIP3    H257723   0.975   1.249  16.833  1.1339 -1.7009  0.0516
12078TIP3   OH257724   4.343   6.042   1.147 -0.1509 -0.5859  0.1994
12078TIP3    H157725   4.302   6.069   1.065  2.6729  1.8946 -0.5851
12078TIP3    H257726   4.379   5.956   1.129  1.5095  0.4292 -1.7026
12079TIP3   OH257727   2.815   2.322  11.070  0.1431  0.0043  0.1762
12079TIP3    H157728   2.867   2.253  11.112  0.2013  0.7969  1.4618
12079TIP3    H257729   2.875   2.361  11.007  0.7583  0.1529  0.8308
12080TIP3   OH257730   3.346   4.428  13.104  0.8917 -0.0299 -0.3550
12080TIP3    H157731   3.276   4.488  13.076  0.5230 -0.2795  0.0204
12080TIP3    H257732   3.300   4.360  13.154  1.2918 -0.7106 -0.9094
12081TIP3   OH257733   5.443   3.397   3.330 -0.4875  0.3389 -0.5846
12081TIP3    H157734   5.518   3.410   3.272 -0.7880  0.0036 -1.0604
12081TIP3    H257735   5.370   3.439   3.284 -0.6043  0.5966 -0.1628
12082TIP3   OH257736   2.499   4.445  13.196  0.1766 -0.5171 -0.2808
12082TIP3    H157737   2.502   4.391  13.118 -0.0000 -1.2323  0.2021
12082TIP3    H257738   2.585   4.435  13.236  0.5909  0.5764 -0.8556
12083TIP3   OH257739   6.784   0.208  16.901 -0.0456  0.1258  0.5087
12083TIP3    H157740   6.720   0.143  16.928 -1.9936  1.9090  0.4632
12083TIP3    H257741   6.800   0.260  16.981  0.2805  0.5468  0.1759
12084TIP3   OH257742   5.528   1.181   2.206  0.4428  0.7097 -1.1612
12084TIP3    H157743   5.496   1.173   2.296  0.2381  0.1538 -1.2739
12084TIP3    H257744   5.621   1.202   2.214  0.7738 -0.7870 -0.7997
12085TIP3   OH257745   5.271   4.545  14.593 -0.1344 -0.6683  0.1459
12085TIP3    H157746   5.195   4.603  14.593  0.7217  0.5294 -1.0499
12085TIP3    H257747   5.305   4.549  14.682  0.7328  1.9039 -0.2046
12086TIP3   OH257748   3.500   4.832  12.357 -0.7351 -0.0524 -0.1680
12086TIP3    H157749   3.526   4.797  12.443 -0.7339 -0.5968 -0.3836
12086TIP3    H257750   3.407   4.853  12.367 -0.5390  0.6850  0.2164
12087TIP3   OH257751   3.657   4.237   4.113  0.1745 -0.5553  0.0659
12087TIP3    H157752   3.722   4.297   4.150  0.1450 -0.7245  0.3970
12087TIP3    H257753   3.695   4.150   4.125  0.6362 -0.5494 -1.2573
12088TIP3   OH257754   0.266   4.231   4.861 -0.2854  0.2011 -0.0816
12088TIP3    H157755   0.249   4.271   4.776  1.1801  2.7701  0.7370
12088TIP3    H257756   0.333   4.165   4.842 -0.7432 -0.0039 -1.0708
12089TIP3   OH257757   1.731   4.684  13.630  0.5038  0.2439  0.1585
12089TIP3    H157758   1.651   4.731  13.608  1.2404  0.6841 -1.7519
12089TIP3    H257759   1.716   4.653  13.719 -1.9930 -0.1306 -0.3032
12090TIP3   OH257760   3.995   2.906   1.485  0.2416 -0.2441  0.2542
12090TIP3    H157761   3.964   2.893   1.574  0.5826 -1.1229  0.2493
12090TIP3    H257762   4.082   2.943   1.495  1.4034 -2.8062  0.3586
12091TIP3   OH257763   0.251   3.788   0.674 -0.1728  0.0631  0.2314
12091TIP3    H157764   0.273   3.697   0.654 -0.3294  0.0425  0.1560
12091TIP3    H257765   0.158   3.796   0.654 -0.3731 -0.0023  1.0952
12092TIP3   OH257766   6.562   5.912   0.690 -0.0140  0.6946 -0.4953
12092TIP3    H157767   6.519   5.875   0.614 -0.1377 -1.4349  0.5416
12092TIP3    H257768   6.503   5.895   0.763  1.5848 -0.4393  0.6184
12093TIP3   OH257769   2.545   6.165   0.414  0.4703 -0.2816  0.2385
12093TIP3    H157770   2.607   6.180   0.342  2.0578 -0.6163  1.4983
12093TIP3    H257771   2.502   6.249   0.425 -0.5454 -0.4669 -1.7273
12094TIP3   OH257772   1.760   4.457  12.297 -0.1649 -0.2433  0.4491
12094TIP3    H157773   1.741   4.550  12.292 -0.3180 -0.2891  0.1721
12094TIP3    H257774   1.696   4.423  12.360 -0.5990 -0.2888 -0.0091
12095TIP3   OH257775   6.706   3.702  14.217  0.0551  0.0859  0.0553
12095TIP3    H157776   6.746   3.776  14.263  1.3997 -0.3203 -0.4166
12095TIP3    H257777   6.754   3.625  14.248 -1.2452 -0.5906  0.4439
12096TIP3   OH257778   2.896   6.649  14.525 -0.4348 -0.3657 -0.0966
12096TIP3    H157779   2.869   6.581  14.587  0.2447  2.5276  3.7523
12096TIP3    H257780   2.829   6.646  14.456 -2.2571 -2.7490  1.5863
12097TIP3   OH257781   5.922   5.229   3.597 -0.3132 -0.1907  0.3378
12097TIP3    H157782   6.000   5.176   3.613 -1.1050 -0.9781  1.8305
12097TIP3    H257783   5.854   5.189   3.652 -1.9690  0.0522 -1.4114
12098TIP3   OH257784   6.025   4.335   3.005 -0.0979  0.0593  0.1213
12098TIP3    H157785   6.047   4.242   2.994  0.0365 -0.1124  1.6391
12098TIP3    H257786   6.084   4.380   2.945 -0.7961 -0.8661 -1.3290
12099TIP3   OH257787   2.217   4.126   3.596  0.1054  0.0132 -0.2093
12099TIP3    H157788   2.279   4.056   3.614  0.5123  0.0568 -1.3859
12099TIP3    H257789   2.197   4.163   3.682  0.6192 -0.9157  0.3218
12100TIP3   OH257790   5.061   0.012  13.195  0.2170  0.1337 -0.3558
12100TIP3    H157791   5.110  -0.066  13.169  1.5821  0.5709  0.7726
12100TIP3    H257792   5.090   0.080  13.134 -1.9083 -0.4607 -2.1574
12101TIP3   OH257793   4.186   3.183   3.673  0.0364  0.1912 -0.2460
12101TIP3    H157794   4.099   3.148   3.657  0.5488 -0.5024 -1.8073
12101TIP3    H257795   4.237   3.109   3.705  0.6663 -0.1046 -1.8183
12102TIP3   OH257796   4.781   4.003   3.747 -0.1759 -0.2252 -0.5551
12102TIP3    H157797   4.788   3.943   3.672  1.2327  0.6289 -1.1354
12102TIP3    H257798   4.716   3.962   3.804  1.8965 -3.2379 -0.1002
12103TIP3   OH257799   0.709   3.136  15.467 -0.4140 -0.2722  0.7797
12103TIP3    H157800   0.698   3.211  15.526 -1.2680 -1.1384  1.7758
12103TIP3    H257801   0.619   3.110  15.445 -0.1298  0.4816 -1.5645
12104TIP3   OH257802   2.342   5.982   4.545 -0.4061  0.6350  0.2008
12104TIP3    H157803   2.355   6.076   4.546 -1.0776  0.7282  0.2244
12104TIP3    H257804   2.427   5.946   4.571  0.2268  1.1871 -1.0217
12105TIP3   OH257805   5.844   3.041   3.716 -0.3356  0.0049 -0.6709
12105TIP3    H157806   5.757   3.075   3.738 -0.0165  1.2757 -1.2488
12105TIP3    H257807   5.902   3.117   3.726  0.6927 -0.7988 -0.4113
12106TIP3   OH257808   6.512   2.127  11.829  0.1479  0.5917 -0.5585
12106TIP3    H157809   6.433   2.159  11.872  0.7050  2.3386 -0.7397
12106TIP3    H257810   6.494   2.139  11.735  0.4881  0.6513 -0.6157
12107TIP3   OH257811   4.134   4.340   4.773  0.4038  0.3184 -0.3993
12107TIP3    H157812   4.087   4.424   4.772 -1.6732 -0.7872 -0.6417
12107TIP3    H257813   4.114   4.301   4.688 -1.0599 -1.6305  0.7661
12108TIP3   OH257814   4.751   4.099  13.890  0.2728 -0.3334 -0.2328
12108TIP3    H157815   4.792   4.120  13.806 -0.7387 -0.2348 -0.7285
12108TIP3    H257816   4.718   4.010  13.879  1.2346 -0.7992  0.5241
12109TIP3   OH257817   2.527   0.494  14.437  0.3471  0.4761 -0.4543
12109TIP3    H157818   2.442   0.465  14.405  1.7559 -2.9388 -1.4662
12109TIP3    H257819   2.524   0.475  14.531  0.4921 -1.0517 -0.7449
12110TIP3   OH257820   6.260   2.768  16.493 -0.2691  0.5101  0.1956
12110TIP3    H157821   6.352   2.795  16.488  0.0849 -0.5231  0.8157
12110TIP3    H257822   6.260   2.696  16.557 -1.2739 -0.4690 -0.8700
12111TIP3   OH257823   5.988   4.366   0.180  0.0213 -0.0826 -0.7780
12111TIP3    H157824   6.004   4.320   0.262  1.8568 -0.0889 -1.0897
12111TIP3    H257825   5.974   4.296   0.115  1.9256 -0.2444 -1.0790
12112TIP3   OH257826   5.507   4.362   4.661  0.5469 -0.1178 -0.1979
12112TIP3    H157827   5.445   4.434   4.678  1.7137  1.3754 -1.9453
12112TIP3    H257828   5.456   4.283   4.678 -1.7821  1.0461 -1.3127
12113TIP3   OH257829   5.251   4.313  14.090  0.3497  0.2113 -0.5955
12113TIP3    H157830   5.183   4.371  14.055 -1.3594 -0.3556  1.5312
12113TIP3    H257831   5.203   4.235  14.120  2.1511 -0.8600 -0.3512
12114TIP3   OH257832   5.026   6.303   2.788 -0.2545  0.0269  0.4177
12114TIP3    H157833   4.983   6.244   2.726 -0.8971 -0.8667  1.6896
12114TIP3    H257834   5.119   6.281   2.781 -0.3666 -0.3532  0.0674
12115TIP3   OH257835   5.279   1.130   4.892 -0.0580 -0.0409  0.2073
12115TIP3    H157836   5.273   1.073   4.815  1.4142  0.3188 -0.1951
12115TIP3    H257837   5.309   1.214   4.858  0.2752  0.2264  1.1345
12116TIP3   OH257838   3.222   3.020   6.445 -0.0024  0.4011  0.3172
12116TIP3    H157839   3.177   3.026   6.530  0.1169  1.4480  0.3196
12116TIP3    H257840   3.154   2.990   6.384 -0.4752  1.0555  0.5100
12117TIP3   OH257841   1.887   5.618  13.346 -0.1237 -0.5506  0.4721
12117TIP3    H157842   1.824   5.631  13.275  3.5084  1.1181 -2.7964
12117TIP3    H257843   1.904   5.706  13.380  0.4869 -0.9555  1.2491
12118TIP3   OH257844   4.698   0.572   3.143  0.2953  0.1537  0.3477
12118TIP3    H157845   4.715   0.577   3.237  1.7339 -0.6250  0.1564
12118TIP3    H257846   4.678   0.479   3.128 -1.2670  0.5063  0.0655
12119TIP3   OH257847   4.819   1.700   3.238  0.4729 -0.1051  0.6690
12119TIP3    H157848   4.784   1.664   3.319  0.9421  1.3695  1.5554
12119TIP3    H257849   4.824   1.794   3.253 -2.0308  0.6086 -2.0463
12120TIP3   OH257850   6.152   5.104   5.771 -0.4998 -0.5407 -0.1061
12120TIP3    H157851   6.192   5.190   5.755 -1.7266 -0.0970 -0.8826
12120TIP3    H257852   6.069   5.107   5.724 -2.1057 -0.9346  2.5121
12121TIP3   OH257853   6.463   4.361   3.263  0.1350 -0.8369  0.3997
12121TIP3    H157854   6.464   4.378   3.169  0.6214  1.9155  0.8078
12121TIP3    H257855   6.553   4.341   3.286  0.1104 -1.0110  0.3399
12122TIP3   OH257856   0.046   6.412  12.054  0.1225  0.5400 -0.7985
12122TIP3    H157857   0.018   6.494  12.096  1.3661  0.4809  0.2011
12122TIP3    H257858  -0.036   6.363  12.041 -0.3473  0.1316  2.5523
12123TIP3   OH257859   2.809   3.979   4.415  0.0998 -0.2245 -0.1591
12123TIP3    H157860   2.855   3.896   4.413  0.7066  0.1238 -0.8062
12123TIP3    H257861   2.833   4.023   4.334  0.4542  0.9429  0.5512
12124TIP3   OH257862   6.228   6.771   3.441  0.3837  0.3503  0.3314
12124TIP3    H157863   6.151   6.803   3.488 -0.1656 -0.7034  0.1946
12124TIP3    H257864   6.301   6.825   3.472 -0.4795  1.6886  0.1031
12125TIP3   OH257865   0.511   6.696   1.718  0.6290  0.1530 -0.4692
12125TIP3    H157866   0.542   6.621   1.767  0.3727  0.1318 -0.3343
12125TIP3    H257867   0.549   6.772   1.763  0.4224  0.1320 -0.2573
12126TIP3   OH257868   5.901   4.227   2.251  0.2909  0.3557 -0.4213
12126TIP3    H157869   5.834   4.227   2.183  1.0018  2.2370 -1.1635
12126TIP3    H257870   5.967   4.288   2.220  0.8308  0.9705  1.7829
12127TIP3   OH257871   3.554   3.677  12.238  0.2410 -0.8813 -0.5987
12127TIP3    H157872   3.603   3.595  12.235  1.3120 -0.2351 -2.2985
12127TIP3    H257873   3.620   3.744  12.257 -0.1967 -0.1476 -1.5612
12128TIP3   OH257874   4.489   5.729  12.854 -0.4122  0.7930  0.5408
12128TIP3    H157875   4.568   5.705  12.902 -0.8708 -0.6572  0.6299
12128TIP3    H257876   4.516   5.736  12.763 -0.6321 -2.5302  0.0969
12129TIP3   OH257877   5.548   5.636  10.581 -0.6065  0.3474  0.6918
12129TIP3    H157878   5.453   5.644  10.567 -0.7585 -2.2003 -0.2289
12129TIP3    H257879   5.557   5.564  10.643  0.7360 -2.1497 -2.1243
12130TIP3   OH257880   5.314   5.305  12.271  0.3670 -0.4413 -0.1419
12130TIP3    H157881   5.243   5.339  12.217 -0.2111 -2.1843 -0.5551
12130TIP3    H257882   5.368   5.255  12.210  1.5646  0.2560  0.3073
12131TIP3   OH257883   0.373   5.254   5.395 -0.0301 -0.4105 -0.4653
12131TIP3    H157884   0.395   5.196   5.322 -0.7561 -0.4391 -0.6704
12131TIP3    H257885   0.444   5.318   5.398 -0.7069  0.4847 -2.1539
12132TIP3   OH257886   3.546   1.397   2.100 -0.5083 -0.0305 -0.4234
12132TIP3    H157887   3.463   1.420   2.142 -0.3432 -0.0229 -0.0960
12132TIP3    H257888   3.567   1.310   2.135 -0.0816  0.2186 -0.0422
12133TIP3   OH257889   2.828   1.228   3.905 -0.1234 -0.0169 -0.6072
12133TIP3    H157890   2.734   1.207   3.911 -0.4767  0.8739 -2.4109
12133TIP3    H257891   2.856   1.235   3.996 -1.7601 -0.5244 -0.0169
12134TIP3   OH257892   5.407   3.077   3.275 -0.1864  0.9238  0.2708
12134TIP3    H157893   5.459   3.141   3.225 -1.3786  1.4458 -0.3377
12134TIP3    H257894   5.358   3.130   3.338 -1.0459  0.6073 -0.1185
12135TIP3   OH257895   1.180   1.275  11.930 -0.6091 -0.3959 -0.3874
12135TIP3    H157896   1.161   1.204  11.992  2.7879 -0.8792  0.3093
12135TIP3    H257897   1.177   1.355  11.983  1.2097 -0.7002  0.2566
12136TIP3   OH257898   0.570   4.107   3.927  0.1491 -0.1836 -0.1871
12136TIP3    H157899   0.534   4.157   4.001  2.1743  1.5114 -0.2574
12136TIP3    H257900   0.617   4.034   3.968 -0.8803 -0.7329  0.0398
12137TIP3   OH257901   4.319   1.175   2.040 -0.0983  0.3742  0.7298
12137TIP3    H157902   4.366   1.104   1.996 -0.9195  0.9465 -1.2139
12137TIP3    H257903   4.376   1.202   2.112  1.2296 -0.7850  0.1468
12138TIP3   OH257904   0.120   1.389  15.569 -0.1525  0.5226 -0.0463
12138TIP3    H157905   0.104   1.471  15.616 -1.3524  0.1374  0.2302
12138TIP3    H257906   0.188   1.345  15.619  1.9447  2.1807 -1.2381
12139TIP3   OH257907   0.921   1.042  17.261  0.3541 -0.0370 -0.3355
12139TIP3    H157908   0.871   1.116  17.296  1.5378  1.8011 -2.2739
12139TIP3    H257909   0.998   1.082  17.220  2.7032 -2.6038  1.1739
12140TIP3   OH257910   1.084   4.383  13.178  0.1612 -0.5674  0.5350
12140TIP3    H157911   1.146   4.456  13.172  1.7906 -1.8634  0.8867
12140TIP3    H257912   1.094   4.350  13.267  1.4128 -2.8243 -0.3674
12141TIP3   OH257913   2.806   1.275  10.887  0.3990  0.0331 -0.3337
12141TIP3    H157914   2.897   1.286  10.861  0.4335 -0.9326 -0.6498
12141TIP3    H257915   2.766   1.360  10.870  1.5304  0.8956  1.0767
12142TIP3   OH257916   3.862   5.938  16.533 -0.0205 -0.0470  0.3257
12142TIP3    H157917   3.896   5.922  16.445 -0.1049 -0.6120  0.3921
12142TIP3    H257918   3.891   6.027  16.555 -0.1212  0.1509 -0.3283
12143TIP3   OH257919   6.667   0.417   4.053  0.3769 -0.1975 -0.1959
12143TIP3    H157920   6.656   0.506   4.018  2.7699 -0.7774 -2.7962
12143TIP3    H257921   6.727   0.427   4.126 -0.0089  0.3991  0.0510
12144TIP3   OH257922   3.737   4.766   1.369  0.3998 -0.3084 -0.1152
12144TIP3    H157923   3.740   4.750   1.275  0.5849  4.7351 -1.2910
12144TIP3    H257924   3.828   4.762   1.398  0.4851 -0.6666 -0.4398
12145TIP3   OH257925   4.309   1.867  14.075  0.0138  1.0663  0.4386
12145TIP3    H157926   4.237   1.907  14.028 -1.5889 -1.3794  0.6676
12145TIP3    H257927   4.269   1.830  14.154  1.0775 -2.0772 -0.3738
12146TIP3   OH257928   2.571   0.188   1.291 -0.0130  0.4428  0.2567
12146TIP3    H157929   2.591   0.163   1.382  0.4451  2.9812  0.9294
12146TIP3    H257930   2.510   0.121   1.261  0.3316 -0.8459  2.2023
12147TIP3   OH257931   4.401   3.226  14.210 -0.6755 -0.6462  0.1203
12147TIP3    H157932   4.320   3.275  14.218 -0.0354  0.7804 -1.4186
12147TIP3    H257933   4.400   3.194  14.119  0.7001 -0.1251 -0.1036
12148TIP3   OH257934   5.363   1.181   0.331  0.3601 -0.4295 -0.0948
12148TIP3    H157935   5.307   1.185   0.253 -1.9656 -1.0905  1.4433
12148TIP3    H257936   5.396   1.091   0.332 -0.2162 -0.6458  0.0524
12149TIP3   OH257937   2.492   4.099  14.718 -0.0172  0.4951 -0.3303
12149TIP3    H157938   2.408   4.102  14.763 -0.7780 -0.3370 -1.6222
12149TIP3    H257939   2.528   4.188  14.728 -0.7367  0.6871  0.7644
12150TIP3   OH257940   1.235   5.814  13.745 -0.3585 -0.2506 -0.2701
12150TIP3    H157941   1.228   5.747  13.813  2.3191 -0.3967 -0.0357
12150TIP3    H257942   1.286   5.771  13.675 -4.2070 -0.6395 -3.1608
12151TIP3   OH257943   5.213   2.562  14.114 -0.3367  0.1096  0.2741
12151TIP3    H157944   5.275   2.562  14.187  1.8650  1.9936 -1.4173
12151TIP3    H257945   5.219   2.474  14.077  1.5309  0.2634  0.0862
12152TIP3   OH257946   6.563   4.947   6.235  0.0631 -0.2329  0.0205
12152TIP3    H157947   6.648   4.982   6.261 -0.3620  1.7787 -1.0675
12152TIP3    H257948   6.512   4.944   6.315  0.4861  0.5731  0.3248
12153TIP3   OH257949   5.883   6.105  12.117 -0.8399 -1.0211 -0.0301
12153TIP3    H157950   5.946   6.161  12.161 -2.7187 -0.2445  1.8699
12153TIP3    H257951   5.923   6.018  12.118  0.4432 -0.4481  0.5116
12154TIP3   OH257952   1.162   5.434   5.557  0.1412 -0.2263  0.2896
12154TIP3    H157953   1.132   5.427   5.467  0.4215 -0.7976  0.2370
12154TIP3    H257954   1.134   5.352   5.598 -1.1920  0.5901  1.0942
12155TIP3   OH257955   5.516   5.459   5.668  0.9422  0.0029  0.4690
12155TIP3    H157956   5.589   5.399   5.683 -0.3814 -1.8575 -0.1711
12155TIP3    H257957   5.518   5.475   5.573 -0.5456 -1.6206  0.0991
12156TIP3   OH257958   2.433   3.210   0.208  0.3740 -0.2012 -0.4916
12156TIP3    H157959   2.370   3.234   0.140 -1.1901 -1.3931  0.4706
12156TIP3    H257960   2.402   3.256   0.287  1.5837  0.3650 -0.3227
12157TIP3   OH257961   4.876   0.557  12.748 -0.7492  0.3568  0.0144
12157TIP3    H157962   4.847   0.620  12.682 -0.9947 -0.1808 -0.4003
12157TIP3    H257963   4.971   0.570  12.755 -1.0485  2.2544  1.5049
12158TIP3   OH257964   5.040   4.581  12.499 -0.2219 -0.0920 -0.1875
12158TIP3    H157965   5.031   4.673  12.474  0.4535 -0.4002 -1.6632
12158TIP3    H257966   5.035   4.582  12.595 -2.3789  1.2150 -0.2600
12159TIP3   OH257967   1.287   4.823   5.016 -0.3925  0.3769 -0.3554
12159TIP3    H157968   1.376   4.837   5.049 -0.8867 -0.1345  1.2738
12159TIP3    H257969   1.247   4.765   5.080 -1.5376 -0.3779 -1.7115
12160TIP3   OH257970   3.391   3.715  13.618 -0.0451 -0.2888  0.2928
12160TIP3    H157971   3.375   3.794  13.670 -2.8496 -0.5333 -0.0590
12160TIP3    H257972   3.318   3.711  13.556  1.9563 -1.2165 -2.2343
12161TIP3   OH257973   3.175   4.342   3.807  0.3998  0.7692  0.3048
12161TIP3    H157974   3.263   4.307   3.816 -0.0234 -0.2433  0.6498
12161TIP3    H257975   3.147   4.315   3.720  0.4740  1.1911  0.1499
12162TIP3   OH257976   4.749   3.099   4.236  0.0535  0.5580  0.1636
12162TIP3    H157977   4.798   3.107   4.317  1.2138  3.6108 -0.7249
12162TIP3    H257978   4.815   3.096   4.167 -0.9445  1.2288 -0.8620
12163TIP3   OH257979   6.339   2.586  16.135 -0.0012  0.2692  0.4203
12163TIP3    H157980   6.429   2.617  16.147  0.2141 -0.1915  0.0305
12163TIP3    H257981   6.286   2.648  16.185  0.3262  1.8777 -1.1059
12164TIP3   OH257982   0.543   0.357   3.039  0.4310  0.7273 -0.0399
12164TIP3    H157983   0.531   0.311   2.955  0.4306 -0.2192  0.4692
12164TIP3    H257984   0.624   0.321   3.075 -1.2978 -1.5455  1.9926
12165TIP3   OH257985   3.703   2.412   5.381  0.3420  0.0837  0.1506
12165TIP3    H157986   3.678   2.404   5.289  1.7636  1.1535 -0.3702
12165TIP3    H257987   3.629   2.375   5.429 -0.7368  0.1295 -1.3873
12166TIP3   OH257988   0.317   4.944  16.496 -0.2959 -0.4507 -0.2446
12166TIP3    H157989   0.316   4.849  16.482  0.3829 -0.1805 -2.6152
12166TIP3    H257990   0.396   4.960  16.546 -0.7701 -1.1791  0.7732
12167TIP3   OH257991   4.519   5.476   1.010 -0.2662  0.1779  0.2562
12167TIP3    H157992   4.587   5.541   0.997  0.6070 -1.1430 -2.7994
12167TIP3    H257993   4.437   5.523   0.995 -0.0224  1.4088  2.3525
12168TIP3   OH257994   0.339   0.505   0.868  0.3369 -0.2866  1.0137
12168TIP3    H157995   0.323   0.438   0.801  2.4185 -2.2057  2.3005
12168TIP3    H257996   0.263   0.499   0.926 -1.1217  0.8793 -0.6632
12169TIP3   OH257997   2.011   2.500  14.293  0.1276  1.1070  0.4510
12169TIP3    H157998   2.065   2.579  14.293  0.1891  1.0727  1.2801
12169TIP3    H257999   1.928   2.528  14.331 -0.7446  1.3366 -1.4925
12170TIP3   OH258000   2.669   1.994  13.505  0.6911 -0.3575 -0.1974
12170TIP3    H158001   2.697   2.065  13.563  0.4610 -0.7363  0.3955
12170TIP3    H258002   2.669   1.916  13.562  3.1934 -1.3201 -1.3541
12171TIP3   OH258003   0.299   5.108  16.279 -0.6109 -0.1919  0.3646
12171TIP3    H158004   0.305   5.043  16.209  1.2986 -0.3488  0.6404
12171TIP3    H258005   0.320   5.060  16.359  0.3404  0.6301  0.6289
12172TIP3   OH258006   0.371   4.266   3.413  0.3566 -0.5294  0.2408
12172TIP3    H158007   0.368   4.218   3.495 -0.7982 -0.8798  0.0015
12172TIP3    H258008   0.372   4.358   3.438  1.1436 -0.6407  0.6596
12173TIP3   OH258009   5.832   4.799  15.951 -0.0687 -0.2081 -0.2241
12173TIP3    H158010   5.913   4.848  15.962 -1.2828  1.5410  1.5371
12173TIP3    H258011   5.843   4.721  16.007  0.5994 -0.2523 -0.4179
12174TIP3   OH258012   4.355   0.325   6.001  0.4305 -0.2821  1.0069
12174TIP3    H158013   4.382   0.302   5.912 -0.1873 -0.6849  0.9150
12174TIP3    H258014   4.328   0.417   5.996 -0.8179 -0.6584  0.4772
12175TIP3   OH258015   3.434   4.699  16.886 -0.2525 -0.0068  0.4057
12175TIP3    H158016   3.450   4.664  16.798 -0.1448 -1.9188  1.1223
12175TIP3    H258017   3.430   4.793  16.874  2.5352  0.0387 -1.2445
12176TIP3   OH258018   5.297   5.121   5.617  0.5456 -0.0874  0.6196
12176TIP3    H158019   5.370   5.093   5.672  2.4018  0.3640 -1.4561
12176TIP3    H258020   5.338   5.174   5.548 -1.1303 -2.8046 -2.8139
12177TIP3   OH258021   2.246   1.272  13.525 -0.1202  0.2519 -0.6021
12177TIP3    H158022   2.336   1.282  13.555 -0.2872 -1.2026  0.5203
12177TIP3    H258023   2.250   1.204  13.458 -0.4714 -0.5628  0.1659
12178TIP3   OH258024   3.704   5.617   5.846  0.1127  1.1406  0.0525
12178TIP3    H158025   3.680   5.645   5.758 -0.5226  0.8248  0.1145
12178TIP3    H258026   3.792   5.651   5.859  0.3588  0.8931 -0.8427
12179TIP3   OH258027   5.013   2.439   1.723  0.0217  0.2548  0.7001
12179TIP3    H158028   4.918   2.430   1.728 -0.0239 -0.4269 -0.8883
12179TIP3    H258029   5.047   2.370   1.780 -0.4246 -0.2752  0.3271
12180TIP3   OH258030   0.571   5.480  15.155  0.0022  0.0194 -0.3599
12180TIP3    H158031   0.620   5.512  15.079  0.5394  1.7595  0.6562
12180TIP3    H258032   0.589   5.386  15.157  1.1901  0.1858 -1.5069
12181TIP3   OH258033   6.570   3.971  10.655  0.0946  0.5023 -0.2245
12181TIP3    H158034   6.506   3.910  10.618  0.5163 -0.1847  0.1547
12181TIP3    H258035   6.538   4.057  10.630 -1.1183  0.1920  0.1722
12182TIP3   OH258036   2.275   4.280  11.874  0.3261  0.2921 -0.2281
12182TIP3    H158037   2.259   4.374  11.881 -0.8013  0.0653  0.3470
12182TIP3    H258038   2.272   4.262  11.780 -2.6585  0.3311 -0.2358
12183TIP3   OH258039   5.083   5.505  13.289 -0.0805 -0.0886  0.4825
12183TIP3    H158040   5.002   5.506  13.239  0.4596  1.2218 -0.4368
12183TIP3    H258041   5.061   5.546  13.373 -0.0190  1.9105 -0.4234
12184TIP3   OH258042   6.154   1.926  11.948 -0.2640 -0.1468 -0.0006
12184TIP3    H158043   6.136   2.007  11.901  1.7879  0.9814  1.0106
12184TIP3    H258044   6.213   1.877  11.890  1.1524  0.6194  0.7491
12185TIP3   OH258045   1.264   1.936   2.410  0.0419 -0.1973 -0.6121
12185TIP3    H158046   1.177   1.921   2.447  0.5645  0.2359  0.8804
12185TIP3    H258047   1.323   1.887   2.467  0.8224 -0.1656 -1.3679
12186TIP3   OH258048   4.509   6.743  10.846  0.0280 -0.2036  0.0338
12186TIP3    H158049   4.485   6.826  10.804  1.1474  0.1382  0.0468
12186TIP3    H258050   4.600   6.728  10.821 -0.5734 -2.1961 -1.1614
12187TIP3   OH258051   6.675   3.701  14.528 -0.4428  0.3150 -0.3287
12187TIP3    H158052   6.664   3.651  14.609 -0.6319  0.7545 -0.0790
12187TIP3    H258053   6.716   3.639  14.467  0.5242  0.2320  0.3727
12188TIP3   OH258054   2.987   1.997   0.582  0.0896  0.4858 -0.5548
12188TIP3    H158055   2.915   2.038   0.630  0.7804  0.5326  0.4615
12188TIP3    H258056   2.972   2.022   0.490 -0.9550  0.8287 -0.3037
12189TIP3   OH258057   4.575   6.101  13.672  0.3249 -0.5783 -0.1646
12189TIP3    H158058   4.604   6.022  13.719  1.2796 -0.2262 -0.1411
12189TIP3    H258059   4.565   6.167  13.741  0.6900 -0.3531 -0.3276
12190TIP3   OH258060   2.260   6.679  16.374 -0.2184 -0.1802 -0.1144
12190TIP3    H158061   2.245   6.738  16.300  0.6136 -0.0507 -0.1880
12190TIP3    H258062   2.190   6.700  16.435 -1.7210 -1.1987 -1.4052
12191TIP3   OH258063   3.437   1.649  13.220  0.2707  0.2367 -0.3358
12191TIP3    H158064   3.437   1.743  13.238 -0.2134  0.3650 -0.9576
12191TIP3    H258065   3.357   1.634  13.170  0.4209 -0.4813 -0.3769
12192TIP3   OH258066   3.093   2.495   2.812  0.4440  0.8280  0.1313
12192TIP3    H158067   3.173   2.529   2.852  0.3803 -0.8822  1.8241
12192TIP3    H258068   3.059   2.432   2.875 -1.5195  0.5025 -1.1657
12193TIP3   OH258069   0.938   4.547  14.498 -0.0802 -0.0031  0.0341
12193TIP3    H158070   0.923   4.479  14.564 -0.5549 -0.5740 -0.6591
12193TIP3    H258071   1.032   4.566  14.505 -0.2625  0.5733  1.4606
12194TIP3   OH258072   1.990   4.157   1.460 -0.1073  0.0923  0.3967
12194TIP3    H158073   1.920   4.096   1.439  0.8555 -1.1778  0.7648
12194TIP3    H258074   2.060   4.102   1.496  1.4059  1.2091 -0.7240
12195TIP3   OH258075   1.594   0.957   2.637  0.6685  0.1423  0.3672
12195TIP3    H158076   1.689   0.946   2.647  0.4489 -0.8907  1.5853
12195TIP3    H258077   1.557   0.916   2.715 -0.7229  1.7572  0.6226
12196TIP3   OH258078   0.215   1.959  13.328  0.1952  0.0503 -0.2841
12196TIP3    H158079   0.196   1.899  13.400  0.2562  1.3961  0.8898
12196TIP3    H258080   0.144   1.945  13.265 -0.5193 -0.2886  0.5875
12197TIP3   OH258081   6.508   6.476   1.075  0.1571  0.5593 -0.1334
12197TIP3    H158082   6.465   6.401   1.116  0.4860  0.8926  0.8404
12197TIP3    H258083   6.446   6.548   1.085 -0.6409  0.1865 -2.0583
12198TIP3   OH258084   6.058   2.029   4.710 -0.7629 -0.1051  0.3207
12198TIP3    H158085   6.134   1.977   4.734  0.0305  0.4883 -0.8024
12198TIP3    H258086   6.038   2.002   4.620 -0.9779  0.7705  0.0963
12199TIP3   OH258087   6.633   1.884  15.055  0.3904 -0.3300 -0.0000
12199TIP3    H158088   6.656   1.820  14.987  0.9196 -0.3165  0.1637
12199TIP3    H258089   6.661   1.843  15.136  0.1703 -0.1479  0.1678
12200TIP3   OH258090   1.881   3.034  16.618 -0.6429  0.0943 -0.0806
12200TIP3    H158091   1.921   2.992  16.542  1.2956 -0.5534  1.2483
12200TIP3    H258092   1.945   3.100  16.646 -0.9063 -0.2863  1.5134
12201TIP3   OH258093   1.361   6.017  12.519 -0.1681  0.1939  0.2551
12201TIP3    H158094   1.300   6.081  12.482  0.6210  0.6237 -0.3103
12201TIP3    H258095   1.385   5.961  12.446  2.0323  1.5422 -0.1496
12202TIP3   OH258096   1.651   1.201   1.300 -0.3193  0.0358  0.0487
12202TIP3    H158097   1.618   1.141   1.233 -1.1553  0.2050  0.2942
12202TIP3    H258098   1.586   1.197   1.370  1.1114 -1.0176  1.3839
12203TIP3   OH258099   2.822   1.176   5.091 -0.5911  0.2321  0.2118
12203TIP3    H158100   2.913   1.177   5.064 -0.3995 -2.2777  0.5640
12203TIP3    H258101   2.781   1.247   5.041  1.0115 -0.2494 -1.9008
12204TIP3   OH258102   2.837   1.626   2.764  0.2323  0.5560 -0.4188
12204TIP3    H158103   2.889   1.550   2.737 -0.5413 -0.3406  0.4969
12204TIP3    H258104   2.825   1.613   2.859 -0.0312  1.7575 -0.2765
12205TIP3   OH258105   3.542   1.614  15.687  0.2005 -0.2761  0.6664
12205TIP3    H158106   3.498   1.656  15.761  2.7627 -0.4501  2.3935
12205TIP3    H258107   3.595   1.545  15.727  0.9501 -0.9934 -1.4565
12206TIP3   OH258108   0.282   2.019  10.693 -0.2344  0.3502  0.1812
12206TIP3    H158109   0.256   1.988  10.780 -1.3169  0.5027 -0.0748
12206TIP3    H258110   0.282   2.115  10.701  0.3334  0.3475  0.2017
12207TIP3   OH258111   6.426   1.379  13.107  0.1161  0.2103  0.2744
12207TIP3    H158112   6.493   1.390  13.175  1.4436 -1.9703 -0.5793
12207TIP3    H258113   6.387   1.294  13.125 -0.4512  0.1962 -0.9213
12208TIP3   OH258114   1.370   3.624   0.484 -0.0741 -0.5391  0.7203
12208TIP3    H158115   1.398   3.602   0.395 -0.1473  0.4536  0.4300
12208TIP3    H258116   1.435   3.585   0.541  0.3464 -0.6213  0.1879
12209TIP3   OH258117   5.098   4.387  17.164 -0.1081  0.4139 -0.2543
12209TIP3    H158118   5.004   4.405  17.173 -0.2778  0.0501 -1.1420
12209TIP3    H258119   5.102   4.296  17.133  0.6276 -0.2539  1.6265
12210TIP3   OH258120   1.133   3.553  10.583 -0.7128  0.4976  0.3375
12210TIP3    H158121   1.071   3.618  10.617 -1.5297  1.3700 -2.5700
12210TIP3    H258122   1.082   3.474  10.571 -1.0950  0.9368 -1.1470
12211TIP3   OH258123   4.198   0.597   5.160 -0.4283  0.5043  0.5624
12211TIP3    H158124   4.263   0.652   5.204 -1.7542  2.4590  0.2114
12211TIP3    H258125   4.114   0.637   5.181 -1.3865 -0.7407 -0.6641
12212TIP3   OH258126   0.000   2.432  15.093 -0.2947 -0.0849 -0.2213
12212TIP3    H158127  -0.090   2.447  15.065 -0.5698 -0.7693  0.2791
12212TIP3    H258128   0.050   2.424  15.012 -0.7909 -0.3532 -0.4993
12213TIP3   OH258129   3.558   0.848  12.971  0.2149 -0.0160 -0.1177
12213TIP3    H158130   3.621   0.779  12.991  0.0819 -0.1254 -0.0708
12213TIP3    H258131   3.580   0.876  12.883 -1.0230 -1.5533 -0.9752
12214TIP3   OH258132   0.204   0.158  10.691  0.4521 -0.3458 -0.0631
12214TIP3    H158133   0.129   0.216  10.678  0.9054  0.2308 -0.0822
12214TIP3    H258134   0.281   0.213  10.680  0.8836 -0.8308  0.4322
12215TIP3   OH258135   1.047   2.586  11.645 -0.1201 -0.5074  0.0670
12215TIP3    H158136   0.973   2.646  11.635 -1.9345 -2.8993 -2.3453
12215TIP3    H258137   1.015   2.519  11.704  0.5111 -1.0271 -0.1728
12216TIP3   OH258138   3.980   1.113  13.831  0.0389  0.0284 -0.0198
12216TIP3    H158139   3.916   1.181  13.808  1.7881  1.9334  0.4201
12216TIP3    H258140   3.969   1.047  13.763 -1.4439  0.9383 -0.7424
12217TIP3   OH258141   4.908   3.211  12.641  0.1166 -0.7097 -0.1287
12217TIP3    H158142   4.901   3.141  12.706 -1.6237 -0.5476 -0.0957
12217TIP3    H258143   4.941   3.286  12.691  2.1491 -1.4934 -0.1965
12218TIP3   OH258144   2.141   0.819  11.332 -0.1302 -0.4151 -0.4166
12218TIP3    H158145   2.174   0.799  11.244  0.2168  2.3558 -1.0259
12218TIP3    H258146   2.054   0.856  11.317 -0.7767 -1.4818  0.5897
12219TIP3   OH258147   0.254   2.936   2.864 -0.2697  0.2979 -0.0728
12219TIP3    H158148   0.268   3.016   2.915 -0.9365 -0.6745  1.7204
12219TIP3    H258149   0.158   2.930   2.856 -0.3024 -1.0616  1.0873
12220TIP3   OH258150   3.105   1.898   5.417  0.3734 -0.2984 -0.5439
12220TIP3    H158151   3.123   1.865   5.505  1.3945  2.7900  0.5411
12220TIP3    H258152   3.015   1.932   5.423  1.0370  1.5050 -0.0586
12221TIP3   OH258153   6.275   2.495   1.466 -0.4381  0.1987 -0.0266
12221TIP3    H158154   6.307   2.585   1.473  0.5313 -0.1169 -0.2347
12221TIP3    H258155   6.297   2.456   1.551 -0.8507  0.1444  0.0602
12222TIP3   OH258156   4.755   0.751   1.863 -0.0393  0.9221 -0.0200
12222TIP3    H158157   4.687   0.696   1.824  0.2040  2.3605 -2.7624
12222TIP3    H258158   4.836   0.723   1.820  0.5400  1.5796  0.6161
12223TIP3   OH258159   5.734   1.966   5.309 -0.4397 -0.3873 -0.6538
12223TIP3    H158160   5.730   1.875   5.337 -1.3770 -0.2886 -0.4139
12223TIP3    H258161   5.651   2.004   5.339  0.1622  0.6841 -0.2864
12224TIP3   OH258162   3.397   6.531   3.063 -0.3460  0.3757 -0.0855
12224TIP3    H158163   3.333   6.520   2.992  0.6207  0.3144 -0.9648
12224TIP3    H258164   3.345   6.562   3.138 -1.5862 -0.7511 -0.4439
12225TIP3   OH258165   4.696   2.733   5.339  0.0604  0.6028 -0.4462
12225TIP3    H158166   4.750   2.656   5.351  2.3905  2.2880  0.5458
12225TIP3    H258167   4.685   2.741   5.244 -0.7323 -1.2022 -0.5452
12226TIP3   OH258168   1.071   3.247   3.846  0.3755 -0.1689  0.0136
12226TIP3    H158169   1.163   3.223   3.839  0.8208  0.7205  2.0466
12226TIP3    H258170   1.030   3.173   3.892  0.3544 -0.0068  0.2592
12227TIP3   OH258171   3.569   1.640  13.944  0.0828  0.1043  0.1921
12227TIP3    H158172   3.555   1.550  13.912 -0.2113  0.7765 -1.7203
12227TIP3    H258173   3.507   1.692  13.893  0.7375  1.4867  0.7816
12228TIP3   OH258174   0.248   5.217   4.915  0.3149  0.3381 -0.3450
12228TIP3    H158175   0.171   5.229   4.970  0.3068 -1.5761  0.1483
12228TIP3    H258176   0.244   5.287   4.851 -0.4529  1.7923  1.2063
12229TIP3   OH258177   4.979   2.916  11.083 -0.0653 -0.0963 -0.0258
12229TIP3    H158178   5.065   2.954  11.098  0.8429 -1.9009 -0.3907
12229TIP3    H258179   4.941   2.907  11.170  0.1171  0.6681  0.1410
12230TIP3   OH258180   5.003   1.570  12.003  0.4621 -0.6674  0.0962
12230TIP3    H158181   4.940   1.617  12.057 -0.4989 -2.0736  0.2520
12230TIP3    H258182   5.069   1.539  12.065  0.0723 -1.1438  0.2781
12231TIP3   OH258183   1.676   0.258   5.711  0.8834 -0.0890  0.2991
12231TIP3    H158184   1.686   0.230   5.802 -1.0326 -1.5283  0.1336
12231TIP3    H258185   1.688   0.178   5.659 -1.5690 -0.0915 -0.4101
12232TIP3   OH258186   2.025   2.203  15.286 -0.4000  0.2071  0.0372
12232TIP3    H158187   2.087   2.272  15.308  0.4273 -0.5361  0.0916
12232TIP3    H258188   2.029   2.142  15.359  1.1439 -1.4315 -1.3082
12233TIP3   OH258189   6.087   2.308   4.661  0.5908 -0.5433  1.0896
12233TIP3    H158190   6.039   2.322   4.579  1.8514  0.0756  0.4303
12233TIP3    H258191   6.073   2.215   4.681  1.0407 -0.9632 -0.3584
12234TIP3   OH258192   0.836   1.489   3.501 -0.0621 -0.2048 -0.0383
12234TIP3    H158193   0.863   1.466   3.412 -0.2341 -1.2537  0.1654
12234TIP3    H258194   0.761   1.547   3.489  1.6695  2.1073 -0.6027
12235TIP3   OH258195   4.459   6.538   3.351  0.1431 -0.3827 -0.0279
12235TIP3    H158196   4.373   6.497   3.342 -0.5823  0.7514  1.3319
12235TIP3    H258197   4.476   6.578   3.266 -0.0560 -1.7070 -0.7208
12236TIP3   OH258198   6.274   6.435   3.458  0.2873 -0.0292  0.2707
12236TIP3    H158199   6.285   6.476   3.544  0.8214  0.7329 -0.1586
12236TIP3    H258200   6.235   6.349   3.478  0.8764 -0.0713  1.3069
12237TIP3   OH258201   5.447   6.226   2.148 -0.5934 -0.3776  0.1232
12237TIP3    H158202   5.388   6.155   2.123  1.3249 -2.9417  2.2855
12237TIP3    H258203   5.503   6.238   2.071 -0.6829 -1.5155 -0.1361
12238TIP3   OH258204   2.162   1.970  13.015 -0.3900 -0.3343 -0.2538
12238TIP3    H158205   2.149   2.064  13.032 -0.3357 -0.2955 -0.4226
12238TIP3    H258206   2.217   1.941  13.088  0.3221 -0.0419 -0.6523
12239TIP3   OH258207   0.496   2.177   2.753  0.0693 -0.2565  0.1545
12239TIP3    H158208   0.422   2.126   2.720  0.3249 -0.6656  0.2067
12239TIP3    H258209   0.456   2.253   2.795 -0.3112 -0.3717  0.0031
12240TIP3   OH258210   3.965   3.756   4.244  0.1687 -0.0806  0.2519
12240TIP3    H158211   3.977   3.781   4.336 -0.1319  0.8957  0.0412
12240TIP3    H258212   3.878   3.716   4.241 -0.2422  0.7962  0.2232
12241TIP3   OH258213   0.120   4.673  12.565 -0.6050  0.0477 -0.3204
12241TIP3    H158214   0.153   4.762  12.574 -1.5792  0.3239  0.8178
12241TIP3    H258215   0.198   4.618  12.561  0.0474  0.7263  1.6894
12242TIP3   OH258216   1.625   4.343  11.051 -0.0468 -0.3512  0.4572
12242TIP3    H158217   1.563   4.388  11.108  1.7698  2.7292  0.2112
12242TIP3    H258218   1.709   4.384  11.071  1.1110 -1.1029 -2.4652
12243TIP3   OH258219   0.504   5.754   4.653 -0.1117  0.0077 -0.6363
12243TIP3    H158220   0.589   5.778   4.689 -0.9358  1.4545  0.4725
12243TIP3    H258221   0.511   5.774   4.559  0.2645  1.7356 -0.2840
12244TIP3   OH258222   0.348   4.103   3.125  0.5902  0.0373  0.1303
12244TIP3    H158223   0.313   4.189   3.147  0.2297 -0.0039 -0.2574
12244TIP3    H258224   0.403   4.079   3.200 -1.0141 -0.3450  1.2191
12245TIP3   OH258225   2.022   0.743   5.576 -0.2427 -0.3179  0.5560
12245TIP3    H158226   2.104   0.754   5.623 -0.0118 -0.8650  0.2825
12245TIP3    H258227   1.992   0.833   5.559  0.8592 -0.0924 -0.3363
12246TIP3   OH258228   3.803   3.552  13.044  0.3671 -0.6628  0.0106
12246TIP3    H158229   3.833   3.604  12.969  0.5844  0.3615  0.7894
12246TIP3    H258230   3.708   3.561  13.042  0.4388  0.3800  0.5503
12247TIP3   OH258231   5.571   2.789  13.440 -0.2990  0.0730 -0.0615
12247TIP3    H158232   5.525   2.870  13.459 -1.1826  0.1063 -2.0793
12247TIP3    H258233   5.517   2.721  13.481 -0.3032  0.3792  0.4492
12248TIP3   OH258234   1.360   2.805  16.367  0.5150  0.5858 -0.3332
12248TIP3    H158235   1.346   2.725  16.317  0.9341 -0.2979  0.9085
12248TIP3    H258236   1.440   2.842  16.331  0.1241  0.6489 -1.1586
12249TIP3   OH258237   2.625   5.240  11.693 -0.0949 -0.0532 -0.0881
12249TIP3    H158238   2.589   5.327  11.707  2.9855  1.3108  0.2059
12249TIP3    H258239   2.555   5.191  11.650 -2.4968  2.0269  1.1925
12250TIP3   OH258240   2.322   0.126  13.664 -0.1299  0.0159  0.2964
12250TIP3    H158241   2.228   0.107  13.676 -0.4802  1.7053  0.3942
12250TIP3    H258242   2.333   0.133  13.569  0.2859 -1.8553  0.1567
12251TIP3   OH258243   0.925   6.821  11.253 -0.2271  0.0680  0.2064
12251TIP3    H158244   1.005   6.814  11.304  0.7992 -4.2625 -1.4640
12251TIP3    H258245   0.856   6.791  11.311  0.6863 -3.2953 -0.2295
12252TIP3   OH258246   3.105   0.315   0.474 -0.8414  0.5356 -0.5867
12252TIP3    H158247   3.075   0.366   0.549 -0.9183  2.4502 -1.8341
12252TIP3    H258248   3.027   0.267   0.445 -0.9079  0.0894  0.3047
12253TIP3   OH258249   3.498   3.242   2.552 -0.3799 -0.4782  0.2702
12253TIP3    H158250   3.582   3.282   2.529 -0.8449  0.1098 -0.4735
12253TIP3    H258251   3.519   3.150   2.568  0.4289 -0.3070  0.2669
12254TIP3   OH258252   6.597   2.015   1.967  0.0506  0.4349  0.0923
12254TIP3    H158253   6.632   2.006   2.056 -1.8442  2.9724  1.2234
12254TIP3    H258254   6.533   1.944   1.960  2.2073 -1.5648 -0.4051
12255TIP3   OH258255   5.283   3.995   3.082  0.1706 -0.0686 -0.2726
12255TIP3    H158256   5.326   4.003   3.167 -0.2115  0.3983 -0.1192
12255TIP3    H258257   5.288   4.083   3.045 -0.0784 -0.1650 -0.5318
12256TIP3   OH258258   2.002   4.140   5.038  0.1397  0.1485 -0.0410
12256TIP3    H158259   1.952   4.064   5.008 -0.3956  0.8030 -0.8368
12256TIP3    H258260   2.089   4.104   5.058 -0.8154 -1.1587  2.1504
12257TIP3   OH258261   4.397   4.963   5.990 -0.1236  0.1645 -1.1361
12257TIP3    H158262   4.377   5.055   5.974  1.6092  1.2279  1.9770
12257TIP3    H258263   4.471   4.945   5.932 -0.1640  0.8705 -1.4222
12258TIP3   OH258264   5.785   5.442   4.346 -0.0325 -0.2078  0.0019
12258TIP3    H158265   5.803   5.435   4.252  0.5876  2.2136 -0.1187
12258TIP3    H258266   5.786   5.351   4.377  2.2253 -0.9337 -1.8800
12259TIP3   OH258267   1.601   3.214  15.837 -0.0521 -0.0079 -0.0877
12259TIP3    H158268   1.521   3.236  15.884 -0.3952  0.7281 -0.9826
12259TIP3    H258269   1.635   3.137  15.882 -0.2373  0.7995  1.5026
12260TIP3   OH258270   2.772   4.609  13.004 -0.3781 -0.1357 -0.2409
12260TIP3    H158271   2.741   4.565  13.083  1.0076 -1.0379 -0.1725
12260TIP3    H258272   2.776   4.540  12.938  0.0592  0.2652 -0.6414
12261TIP3   OH258273   4.459   4.480  16.296 -0.2890 -0.3942 -0.2383
12261TIP3    H158274   4.532   4.534  16.325 -0.2968  0.9105 -2.4547
12261TIP3    H258275   4.444   4.506  16.205 -2.9778 -1.2173 -0.1112
12262TIP3   OH258276   1.064   6.084  10.250 -0.5869 -0.3014 -0.3846
12262TIP3    H158277   1.085   6.003  10.204 -1.2804 -0.0205 -1.2378
12262TIP3    H258278   1.012   6.055  10.325 -0.0952 -0.7102 -0.1945
12263TIP3   OH258279   3.895   2.880   3.753  0.2638  0.3310  0.3567
12263TIP3    H158280   3.817   2.936   3.762  0.9639  1.3232  0.4761
12263TIP3    H258281   3.943   2.893   3.835 -0.1224 -1.3712  0.8807
12264TIP3   OH258282   1.752   0.119  14.700  0.1646  0.1942  0.2108
12264TIP3    H158283   1.768   0.061  14.774  1.9408  0.4582  0.0746
12264TIP3    H258284   1.822   0.184  14.704 -0.7866  1.3211 -0.6371
12265TIP3   OH258285   1.981   6.157  14.546  0.3134  0.3838 -0.6968
12265TIP3    H158286   1.998   6.250  14.532 -1.9355  0.7273 -1.6275
12265TIP3    H258287   1.984   6.119  14.458 -1.0050  0.0326 -0.6129
12266TIP3   OH258288   5.659   0.051   1.945 -0.2407 -0.3052 -0.1877
12266TIP3    H158289   5.662   0.146   1.945  0.5131 -0.2810 -1.9964
12266TIP3    H258290   5.751   0.024   1.950 -0.3618 -0.8925 -0.9458
12267TIP3   OH258291   2.903   2.369  14.072  0.6855 -0.0178  0.2246
12267TIP3    H158292   2.890   2.430  13.999  3.1426 -0.0072 -0.3097
12267TIP3    H258293   2.986   2.326  14.052 -0.0018 -2.1156  1.6049
12268TIP3   OH258294   2.249   6.141  16.459 -0.7109  0.1127  0.0696
12268TIP3    H158295   2.295   6.103  16.534  0.1019  0.7196 -0.1091
12268TIP3    H258296   2.311   6.204  16.422 -0.7217 -0.8449 -1.6960
12269TIP3   OH258297   3.510   6.316   3.493 -0.0261  0.3961 -0.2905
12269TIP3    H158298   3.504   6.243   3.555  0.5998  0.0112 -0.6699
12269TIP3    H258299   3.459   6.386   3.534  0.2062  0.0843  0.5690
12270TIP3   OH258300   0.969   3.316   2.104  0.6659  0.2701  0.3186
12270TIP3    H158301   0.944   3.392   2.052 -2.3273 -0.3542  0.6408
12270TIP3    H258302   0.969   3.243   2.042 -0.1307 -0.0198  0.6401
12271TIP3   OH258303   2.689   6.360   2.696  0.2404  0.0152  0.0753
12271TIP3    H158304   2.607   6.321   2.726  0.7815 -2.5789 -1.4536
12271TIP3    H258305   2.750   6.346   2.768  0.0478 -0.7743  0.0979
12272TIP3   OH258306   4.185   0.605  13.113  0.2152  0.1510 -0.2440
12272TIP3    H158307   4.264   0.634  13.160  0.7404  0.1159 -1.0797
12272TIP3    H258308   4.196   0.510  13.104 -0.0511  0.1098 -0.1366
12273TIP3   OH258309   1.854   1.991   1.997  0.0282 -0.4684  0.2886
12273TIP3    H158310   1.911   1.922   1.965 -0.4055 -0.9678  0.5664
12273TIP3    H258311   1.766   1.966   1.968 -0.1227  0.0303  0.2886
12274TIP3   OH258312   5.945   6.066   4.893  0.5285 -0.8435 -0.2857
12274TIP3    H158313   5.939   6.157   4.866  0.9020 -0.1425  1.8260
12274TIP3    H258314   5.923   6.016   4.814 -0.3758  1.0567 -1.2944
12275TIP3   OH258315   6.575   5.555   0.738  0.4978 -0.1579  0.2378
12275TIP3    H158316   6.481   5.538   0.737  0.6011 -0.7462  0.1299
12275TIP3    H258317   6.591   5.599   0.821  0.1577 -0.2425  0.3494
12276TIP3   OH258318   6.510   0.534   4.299  0.2825 -0.2140 -0.4285
12276TIP3    H158319   6.457   0.515   4.222 -0.1679  2.3560 -0.8284
12276TIP3    H258320   6.446   0.546   4.370  0.6460 -1.6699  0.1832
12277TIP3   OH258321   4.612   6.319   5.886 -0.3422  0.7416 -0.0970
12277TIP3    H158322   4.616   6.298   5.793 -2.6242  2.1033 -0.5641
12277TIP3    H258323   4.658   6.246   5.929 -1.2462 -1.1256 -2.1157
12278TIP3   OH258324   0.761   1.276   5.563 -0.0700 -0.0798 -0.1649
12278TIP3    H158325   0.857   1.279   5.569 -0.1689 -0.0914  2.5130
12278TIP3    H258326   0.744   1.251   5.472  2.4240  1.1202 -1.0611
12279TIP3   OH258327   1.547   1.386  11.379  0.6706  0.2823 -0.0245
12279TIP3    H158328   1.587   1.334  11.449 -1.4691  1.6620  2.4142
12279TIP3    H258329   1.539   1.325  11.306  3.2233 -1.1830  0.7917
12280TIP3   OH258330   0.391   2.059  10.435 -0.0219 -0.4986 -0.3537
12280TIP3    H158331   0.354   2.076  10.522 -2.3852  1.7175 -1.6651
12280TIP3    H258332   0.321   2.012  10.389  0.6267 -0.3765 -1.4827
12281TIP3   OH258333   0.694   5.212   4.032 -0.7406  0.5299  0.1993
12281TIP3    H158334   0.638   5.187   4.105 -1.3071 -0.8373 -0.6590
12281TIP3    H258335   0.640   5.198   3.954  0.1077  1.1701 -0.5330
12282TIP3   OH258336   1.240   2.926   5.658 -0.0835 -0.5356  0.0044
12282TIP3    H158337   1.285   2.909   5.740 -1.8351  0.7820  1.3163
12282TIP3    H258338   1.294   2.993   5.615 -0.6521  0.9525  1.5021
12283TIP3   OH258339   2.682   4.688  17.246 -0.0670  0.2034 -0.2450
12283TIP3    H158340   2.677   4.651  17.334  2.2337 -1.2706 -0.6699
12283TIP3    H258341   2.718   4.776  17.260 -0.7503  0.4066  0.3408
12284TIP3   OH258342   1.870   4.298   0.004  0.5611  0.1040 -0.6339
12284TIP3    H158343   1.950   4.320   0.052 -0.3437 -1.4481  1.7666
12284TIP3    H258344   1.893   4.220  -0.047  1.0412  0.7230 -1.3866
12285TIP3   OH258345   4.993   0.463  16.874  0.4655  0.1518 -0.2604
12285TIP3    H158346   4.980   0.558  16.871 -0.9236 -0.0320 -0.5241
12285TIP3    H258347   5.019   0.446  16.965  1.3892  0.8436 -0.3738
12286TIP3   OH258348   4.253   6.367  12.977  0.3693 -0.3347  0.0078
12286TIP3    H158349   4.327   6.406  12.930  0.4170  0.1804  0.5033
12286TIP3    H258350   4.175   6.397  12.930  0.0989  3.8107  2.6771
12287TIP3   OH258351   5.508   5.473   4.488 -0.5781 -0.1082 -0.5327
12287TIP3    H158352   5.569   5.429   4.429  0.2796 -0.2831  0.4381
12287TIP3    H258353   5.424   5.433   4.471 -0.1158 -0.9786 -0.8162
12288TIP3   OH258354   1.572   0.862  10.443 -0.0611 -0.0977  0.0832
12288TIP3    H158355   1.635   0.870  10.516  0.0176 -2.6387  0.3881
12288TIP3    H258356   1.624   0.827  10.371 -1.1507 -3.0209  0.5746
12289TIP3   OH258357   4.495   6.608  11.539  0.0929 -0.1466 -0.5092
12289TIP3    H158358   4.527   6.565  11.460 -0.5404 -0.7817 -0.4349
12289TIP3    H258359   4.573   6.622  11.593  0.5983  0.7290 -1.4422
12290TIP3   OH258360   0.956   4.384   5.049  0.1230  0.4414 -0.0500
12290TIP3    H158361   0.979   4.365   4.959  0.9970  0.7303  0.1053
12290TIP3    H258362   0.916   4.303   5.081  0.2765  0.1678 -0.5442
12291TIP3   OH258363   5.384   2.474  12.903 -0.4199 -0.4748  0.3490
12291TIP3    H158364   5.373   2.560  12.862  1.3060 -1.1095 -1.6422
12291TIP3    H258365   5.370   2.490  12.996  0.4909  2.1039  0.1286
12292TIP3   OH258366   3.932   6.155  12.831 -0.2163  0.3210 -0.2730
12292TIP3    H158367   3.850   6.200  12.810 -0.2924 -0.2710 -1.2807
12292TIP3    H258368   3.991   6.177  12.760  0.0729 -0.3363 -0.2441
12293TIP3   OH258369   2.295   4.408   0.429  0.0804  0.0558  0.6955
12293TIP3    H158370   2.211   4.365   0.446  0.0660 -0.2240 -0.0416
12293TIP3    H258371   2.325   4.437   0.515  0.5255 -2.2160  1.3650
12294TIP3   OH258372   4.428   1.275  15.549  0.8143  0.2601 -0.4359
12294TIP3    H158373   4.415   1.195  15.599 -1.3384 -0.3975 -1.9211
12294TIP3    H258374   4.455   1.340  15.614 -0.7260 -0.8329  1.4054
12295TIP3   OH258375   2.690   6.514  11.789 -0.0190  0.1241  0.1972
12295TIP3    H158376   2.661   6.430  11.753 -1.7133  0.2485  1.1917
12295TIP3    H258377   2.657   6.515  11.878  1.0730  1.3247  0.6148
12296TIP3   OH258378   6.778   4.955   0.670 -0.4472  0.0095 -0.4563
12296TIP3    H158379   6.748   4.876   0.626  0.0246 -0.4678  0.0669
12296TIP3    H258380   6.873   4.956   0.656 -0.4218  0.3575 -0.2685
12297TIP3   OH258381   6.588   6.771   5.955  0.0615  0.7654  0.3078
12297TIP3    H158382   6.554   6.788   5.867  1.5671 -2.1100 -0.9922
12297TIP3    H258383   6.546   6.689   5.981  1.1181  0.5296  1.3731
12298TIP3   OH258384   5.165   6.183   0.714  0.0417  0.3815  0.2838
12298TIP3    H158385   5.088   6.223   0.673 -0.9512 -1.8265 -0.1774
12298TIP3    H258386   5.136   6.095   0.738  2.7923 -1.0503 -1.1733
12299TIP3   OH258387   2.460   6.149  14.421 -0.4906 -0.1896 -1.1463
12299TIP3    H158388   2.406   6.072  14.407  0.0890 -0.6154 -1.0815
12299TIP3    H258389   2.453   6.165  14.516 -0.4871 -0.2560 -1.1346
12300TIP3   OH258390   0.852   4.832   0.769 -0.3028  0.0656 -0.1183
12300TIP3    H158391   0.945   4.841   0.751 -0.6082  1.3794 -1.2039
12300TIP3    H258392   0.812   4.909   0.729 -1.7512  0.0670  1.2172
12301TIP3   OH258393   5.263   6.759   2.144  0.0873 -0.3659  0.0841
12301TIP3    H158394   5.199   6.752   2.214  0.8802 -0.2490  0.8401
12301TIP3    H258395   5.303   6.845   2.156  0.8824 -0.7248  0.0698
12302TIP3   OH258396   1.311   3.640  11.523  0.3695  0.7614 -0.5764
12302TIP3    H158397   1.369   3.705  11.483  1.2133  0.5951  0.3512
12302TIP3    H258398   1.262   3.688  11.589  1.3680  0.3724  0.4736
12303TIP3   OH258399   0.429   6.374   3.946 -0.1811 -0.5434 -0.1717
12303TIP3    H158400   0.437   6.461   3.907 -1.1614 -0.9238 -1.2788
12303TIP3    H258401   0.519   6.344   3.957  0.1800  0.7020  0.4673
12304TIP3   OH258402   4.689   0.035  13.146 -0.2997  0.5562  0.0763
12304TIP3    H158403   4.722   0.102  13.206  0.3579  1.8741 -1.6942
12304TIP3    H258404   4.641   0.084  13.080 -3.6115 -1.0737  1.0503
12305TIP3   OH258405   3.371   5.070  13.947  0.1973 -0.2041 -0.4205
12305TIP3    H158406   3.335   5.158  13.957  1.6310  0.4449 -0.6211
12305TIP3    H258407   3.295   5.013  13.946 -0.6629  0.5378  3.9842
12306TIP3   OH258408   5.973   6.500   2.920  0.3752  0.3735  0.3646
12306TIP3    H158409   5.996   6.431   2.858 -0.9549  0.9348 -0.8062
12306TIP3    H258410   5.905   6.550   2.875  0.1574  1.4583  1.8565
12307TIP3   OH258411   3.874   2.220   3.571 -0.4425 -0.2242  0.0498
12307TIP3    H158412   3.901   2.194   3.660  0.0873  0.2276  0.0253
12307TIP3    H258413   3.820   2.147   3.541  0.5709 -1.0652  0.1914
12308TIP3   OH258414   1.249   3.360  16.538 -0.4830  0.4119 -0.5109
12308TIP3    H158415   1.282   3.292  16.597  0.5829  0.8375 -0.6008
12308TIP3    H258416   1.303   3.353  16.460 -1.6014  0.1451 -1.2947
12309TIP3   OH258417   3.899   1.156  13.086  0.2118 -0.1136  0.2641
12309TIP3    H158418   3.877   1.237  13.040  1.4550 -1.1755 -2.4230
12309TIP3    H258419   3.955   1.185  13.158  2.3356  1.3852 -1.8009
12310TIP3   OH258420   1.539   2.615  12.534  0.0157  0.0369  0.4089
12310TIP3    H158421   1.608   2.555  12.561  1.1976  1.7312  1.3059
12310TIP3    H258422   1.528   2.597  12.440  2.5998  0.5377 -0.0852
12311TIP3   OH258423   0.477   0.600  14.079  0.0730 -0.1173 -0.3906
12311TIP3    H158424   0.468   0.521  14.026 -1.8090 -0.3394  0.1613
12311TIP3    H258425   0.450   0.573  14.167 -1.7115  1.3232 -0.4203
12312TIP3   OH258426   6.422   3.018  16.918 -0.0271 -0.1400  0.2867
12312TIP3    H158427   6.422   3.040  16.825 -1.3033 -1.6028 -0.1012
12312TIP3    H258428   6.515   3.015  16.942  0.3991 -1.1835 -1.3193
12313TIP3   OH258429   0.774   2.495   1.963  0.1993 -0.0324 -0.2695
12313TIP3    H158430   0.721   2.499   2.043  0.9766 -0.7872  0.2984
12313TIP3    H258431   0.737   2.421   1.915  0.7667 -0.5929  0.1520
12314TIP3   OH258432   0.440   2.317  16.343  0.0680  0.2553 -0.0158
12314TIP3    H158433   0.483   2.295  16.425  0.5022 -0.3850 -0.4054
12314TIP3    H258434   0.501   2.377  16.300  2.0027 -2.7479 -1.8113
12315TIP3   OH258435   3.873   1.690   3.692  0.4187  0.0635  1.5178
12315TIP3    H158436   3.925   1.614   3.666  0.4259  0.5121  0.1380
12315TIP3    H258437   3.784   1.656   3.701  0.7460 -0.4943  2.8583
12316TIP3   OH258438   3.406   3.743  15.015  0.2874  0.3741 -0.2908
12316TIP3    H158439   3.315   3.735  15.043 -0.0307 -0.2084 -1.4307
12316TIP3    H258440   3.427   3.658  14.976  0.5896  1.2136 -2.0621
12317TIP3   OH258441   1.478   0.214   0.090 -0.4206 -0.1850 -0.7965
12317TIP3    H158442   1.397   0.254   0.123 -0.7500 -1.0290 -0.5615
12317TIP3    H258443   1.518   0.176   0.168  0.0066 -0.1073 -0.9795
12318TIP3   OH258444   2.331   4.682   2.991 -0.3595  0.0887  0.6136
12318TIP3    H158445   2.339   4.753   2.927  1.4934 -0.8966 -0.3248
12318TIP3    H258446   2.342   4.725   3.076  0.4158  0.9651  0.0788
12319TIP3   OH258447   0.679   6.595   0.451 -0.2071 -0.2266  0.1877
12319TIP3    H158448   0.656   6.662   0.515 -0.6541 -1.1858  1.0423
12319TIP3    H258449   0.641   6.627   0.369  0.4064  1.0261  0.3666
12320TIP3   OH258450   0.844   3.365   1.243 -0.0168 -0.5742 -0.1519
12320TIP3    H158451   0.874   3.443   1.196 -0.9532  0.0730  0.2975
12320TIP3    H258452   0.889   3.369   1.327 -0.2774 -0.3720 -0.0227
12321TIP3   OH258453   3.867   2.475   1.840  0.0754 -0.5430 -0.3044
12321TIP3    H158454   3.939   2.492   1.902 -0.6945 -0.5348  0.6108
12321TIP3    H258455   3.911   2.447   1.760  1.1318  0.1588  0.0070
12322TIP3   OH258456   5.409   3.443   1.417 -0.1432 -0.1664  0.2081
12322TIP3    H158457   5.454   3.368   1.457 -1.4547 -0.7516  0.6606
12322TIP3    H258458   5.333   3.458   1.473  0.2126  1.6851  0.2582
12323TIP3   OH258459   0.339   1.847  11.331  0.4551 -0.0295  0.4427
12323TIP3    H158460   0.304   1.925  11.286 -1.4507 -1.9870 -1.7460
12323TIP3    H258461   0.412   1.819  11.277 -0.4571 -1.1379 -0.2698
12324TIP3   OH258462   3.649   0.627   3.238 -0.6714  0.0030  0.2408
12324TIP3    H158463   3.621   0.583   3.318 -1.6810  1.7177  0.8903
12324TIP3    H258464   3.712   0.692   3.267  0.3257 -0.5559 -0.6126
12325TIP3   OH258465   3.369   0.128   5.901 -0.2262  0.1490  0.0913
12325TIP3    H158466   3.407   0.180   5.972 -0.8892 -0.1707  0.6939
12325TIP3    H258467   3.275   0.136   5.915 -0.4216  1.3157 -1.6432
12326TIP3   OH258468   3.951   0.418  14.410 -0.2506 -0.2726 -0.1379
12326TIP3    H158469   3.873   0.379  14.450  0.4997  0.8454  2.6635
12326TIP3    H258470   3.919   0.456  14.328 -2.3061 -1.2293  0.1542
12327TIP3   OH258471   5.491   0.607   5.544 -0.1169  0.1425  0.1434
12327TIP3    H158472   5.554   0.537   5.565  1.7113  1.3240 -1.1408
12327TIP3    H258473   5.408   0.575   5.580  0.5366 -2.8737 -0.7149
12328TIP3   OH258474   6.617   2.789  13.586 -0.2270 -0.6146 -0.3560
12328TIP3    H158475   6.563   2.861  13.554 -0.5571  0.4660  2.3672
12328TIP3    H258476   6.702   2.802  13.543 -0.4548  1.0731 -0.3747
12329TIP3   OH258477   0.168   3.765   4.647 -0.2995 -0.5083 -0.4472
12329TIP3    H158478   0.188   3.723   4.563  0.1766  0.5087 -0.8591
12329TIP3    H258479   0.222   3.718   4.711  1.1989  0.2682 -1.0944
12330TIP3   OH258480   3.904   1.913   2.672 -0.1257  0.7595 -0.6108
12330TIP3    H158481   3.885   1.885   2.761 -0.3820  1.4079 -0.4599
12330TIP3    H258482   3.881   1.837   2.618  0.2353  0.2881 -0.1163
12331TIP3   OH258483   0.715   4.290  14.445 -0.2971  0.1389  0.5235
12331TIP3    H158484   0.713   4.381  14.415  0.7176  0.0333  0.1032
12331TIP3    H258485   0.681   4.293  14.534  2.7034  1.4503  1.7463
12332TIP3   OH258486   3.890   3.630   4.706 -0.3754  0.3320  0.2598
12332TIP3    H158487   3.897   3.580   4.625  0.1643  0.8541 -0.0264
12332TIP3    H258488   3.964   3.691   4.703 -0.7306  0.8071  0.8301
12333TIP3   OH258489   0.144   5.397   4.711 -0.1041 -0.6153 -0.3634
12333TIP3    H158490   0.141   5.478   4.661 -0.7841  1.2957  2.5366
12333TIP3    H258491   0.052   5.378   4.731  0.1563 -1.0484  0.5052
12334TIP3   OH258492   6.275   4.699  17.119  0.4827 -0.2622 -0.3055
12334TIP3    H158493   6.195   4.661  17.154  1.3011 -1.4438  0.3583
12334TIP3    H258494   6.336   4.625  17.115  1.2230  0.3919 -1.7852
12335TIP3   OH258495   1.477   5.489  14.178  0.2333  0.1398 -0.6059
12335TIP3    H158496   1.543   5.550  14.212  0.5849  0.4549 -1.8073
12335TIP3    H258497   1.463   5.427  14.249  1.4982  0.3368 -0.1552
12336TIP3   OH258498   0.223   5.460  11.990 -0.1874  0.4459 -0.2422
12336TIP3    H158499   0.179   5.530  12.040  0.3866  0.1244  0.7431
12336TIP3    H258500   0.236   5.390  12.054  1.1994  0.2856 -0.6734
12337TIP3   OH258501   1.270   4.608   1.686  0.0744 -0.2883 -0.0558
12337TIP3    H158502   1.306   4.641   1.604 -1.8675  1.3142 -0.3544
12337TIP3    H258503   1.343   4.609   1.747  0.6814  2.4207 -0.7022
12338TIP3   OH258504   2.323   1.343   5.090 -0.1762 -0.1439  0.3342
12338TIP3    H158505   2.280   1.324   5.006  0.3201  0.4388 -0.0624
12338TIP3    H258506   2.344   1.437   5.085  1.9270 -0.5722  0.1339
12339TIP3   OH258507   0.834   1.953  15.594 -0.1284 -0.1206  0.1589
12339TIP3    H158508   0.876   2.038  15.577 -0.9559  0.5079  1.1308
12339TIP3    H258509   0.742   1.974  15.605 -0.3505 -1.1712  0.3846
12340TIP3   OH258510   4.939   4.354  16.171  0.7492 -0.4395 -0.6100
12340TIP3    H158511   4.910   4.356  16.262 -0.1904  1.5778 -0.8928
12340TIP3    H258512   5.034   4.344  16.176  0.5097 -2.7897  0.4806
12341TIP3   OH258513   6.657   4.747   0.918 -0.2951  0.2158  0.0549
12341TIP3    H158514   6.616   4.765   0.834 -0.8201 -0.1857  0.2214
12341TIP3    H258515   6.621   4.663   0.945 -0.7769  0.7225  1.0598
12342TIP3   OH258516   6.635   3.671   1.049 -0.6406 -0.0730 -0.1821
12342TIP3    H158517   6.688   3.619   1.109 -1.4959  0.8162  1.4090
12342TIP3    H258518   6.685   3.751   1.034 -0.1647 -0.5348 -1.1564
12343TIP3   OH258519   0.407   5.945   3.168 -0.6917 -0.1146 -0.1031
12343TIP3    H158520   0.473   6.014   3.169  0.7599 -1.4524  0.1673
12343TIP3    H258521   0.355   5.963   3.089  3.3123 -1.9347 -3.5636
12344TIP3   OH258522   5.759   3.320  16.583  0.5362  0.4447  0.5211
12344TIP3    H158523   5.721   3.391  16.532  0.3023  0.0338  0.1185
12344TIP3    H258524   5.757   3.352  16.673 -0.4906  0.5440  0.4722
12345TIP3   OH258525   0.995   4.078  12.659  0.1969  0.4901 -0.6684
12345TIP3    H158526   1.068   4.022  12.687 -0.3472  0.5043  0.8946
12345TIP3    H258527   1.029   4.125  12.583  1.1102 -0.9967 -1.2270
12346TIP3   OH258528   2.381   1.698  11.377 -0.5940 -0.1398  0.4275
12346TIP3    H158529   2.422   1.713  11.291 -0.9032 -0.5690  0.1991
12346TIP3    H258530   2.437   1.745  11.439 -1.4571  1.8607 -0.2168
12347TIP3   OH258531   1.196   5.628   4.921  0.1272 -0.2124 -0.2881
12347TIP3    H158532   1.148   5.553   4.886 -1.5736 -0.2552  1.9186
12347TIP3    H258533   1.249   5.593   4.992  1.7664  0.2211 -1.2470
12348TIP3   OH258534   1.428   3.855  15.414 -0.3135 -0.2146 -0.3471
12348TIP3    H158535   1.442   3.949  15.425 -2.5838  0.1581 -0.2990
12348TIP3    H258536   1.363   3.831  15.480 -0.5276 -1.6154 -1.0085
12349TIP3   OH258537   3.553   2.094   3.313  0.3244 -0.1618  0.8568
12349TIP3    H158538   3.525   2.068   3.401 -0.0782  0.4297  0.9101
12349TIP3    H258539   3.476   2.137   3.275  0.8166  0.5184  0.6022
12350TIP3   OH258540   6.561   5.272   5.237 -0.0488  0.0487 -0.0224
12350TIP3    H158541   6.617   5.264   5.160  0.0145 -0.0961  0.0395
12350TIP3    H258542   6.481   5.225   5.213  0.5307 -1.2736  0.5436
12351TIP3   OH258543   0.229   3.954  12.957  0.3716  0.1967  0.0568
12351TIP3    H158544   0.292   3.954  12.885 -0.7280 -0.4963 -0.9453
12351TIP3    H258545   0.157   4.009  12.925  1.0699  2.2514  1.7783
12352TIP3   OH258546   2.564   0.020   4.577  0.2369 -0.1386  0.0877
12352TIP3    H158547   2.654   0.005   4.605  1.2358  1.6317 -1.9244
12352TIP3    H258548   2.556   0.115   4.572 -1.3017 -0.2970 -1.1325
12353TIP3   OH258549   5.774   3.238  16.942  0.1476 -0.3335  0.4567
12353TIP3    H158550   5.784   3.143  16.935  1.0159 -0.2489  0.3956
12353TIP3    H258551   5.857   3.267  16.982  0.1853  0.4673 -0.1980
12354TIP3   OH258552   4.234   0.153   2.256  0.2304 -0.5211 -0.4241
12354TIP3    H158553   4.154   0.203   2.238  1.0544  0.1171 -2.4997
12354TIP3    H258554   4.296   0.218   2.288  0.5016 -0.6790 -0.6257
12355TIP3   OH258555   2.379   6.781  13.883 -0.3546  0.3136  0.1745
12355TIP3    H158556   2.301   6.795  13.937 -1.2205 -0.8273 -0.6936
12355TIP3    H258557   2.365   6.837  13.807  0.2008  0.9075  0.5078
12356TIP3   OH258558   4.477   3.831   1.764 -0.2919 -0.2132 -0.4123
12356TIP3    H158559   4.468   3.859   1.855  1.3479 -0.1150 -0.2356
12356TIP3    H258560   4.568   3.852   1.742 -0.1518 -1.7823 -1.5374
12357TIP3   OH258561   4.289   1.952   5.836  0.2310 -0.2469 -0.6006
12357TIP3    H158562   4.308   1.858   5.846 -0.2455 -0.3153 -0.3070
12357TIP3    H258563   4.347   1.995   5.900  2.1390 -0.1394 -2.3095
12358TIP3   OH258564   3.712   0.423   5.580  0.0477 -0.4136 -0.0154
12358TIP3    H158565   3.701   0.353   5.644 -0.6960  1.3721  1.9309
12358TIP3    H258566   3.758   0.492   5.627 -0.6432  1.0325 -1.3545
12359TIP3   OH258567   3.016   5.459  16.763  0.0622 -0.0032  0.2279
12359TIP3    H158568   2.944   5.456  16.699 -1.1189  0.7028  1.4819
12359TIP3    H258569   3.048   5.549  16.760  0.2219 -0.0532  0.3993
12360TIP3   OH258570   2.863   3.214   5.977 -0.0798 -0.2002 -0.0758
12360TIP3    H158571   2.885   3.284   6.039 -1.1563 -0.0634  0.1814
12360TIP3    H258572   2.885   3.134   6.024  1.2782 -0.0485 -0.4198
12361TIP3   OH258573   6.380   5.624  15.398 -0.2188 -0.0354  0.6269
12361TIP3    H158574   6.318   5.679  15.350 -0.7344 -1.1966 -0.0655
12361TIP3    H258575   6.362   5.645  15.490 -0.9608  0.3700  0.4040
12362TIP3   OH258576   1.510   3.724  14.385  0.0406  0.2507 -0.3644
12362TIP3    H158577   1.475   3.775  14.313  1.0949  1.4428 -0.0782
12362TIP3    H258578   1.475   3.766  14.464  1.1705  0.7771 -0.1150
12363TIP3   OH258579   2.769   3.449  14.750  0.2434 -0.5242 -0.2285
12363TIP3    H158580   2.723   3.483  14.827  1.0560 -0.4215  0.2307
12363TIP3    H258581   2.700   3.424  14.689 -0.4055 -0.0562  0.3009
12364TIP3   OH258582   0.878   4.493   4.744 -0.3106  0.8094  0.3572
12364TIP3    H158583   0.892   4.586   4.757  3.1924  0.4558 -0.0130
12364TIP3    H258584   0.956   4.451   4.780 -0.8627 -1.8382 -1.2272
12365TIP3   OH258585   6.759   5.183  15.584 -0.1755 -0.0581  0.2998
12365TIP3    H158586   6.702   5.122  15.632  0.1972 -0.2522  0.4969
12365TIP3    H258587   6.764   5.147  15.496 -0.4398  0.0150  0.2519
12366TIP3   OH258588   5.744   0.125  15.859 -0.4717  0.4335  0.1152
12366TIP3    H158589   5.671   0.074  15.893 -0.4912  0.2471 -0.1930
12366TIP3    H258590   5.750   0.099  15.767  0.5513 -0.2224  0.3572
12367TIP3   OH258591   3.098   3.092  15.323  0.0377 -0.1587 -0.1362
12367TIP3    H158592   3.033   3.095  15.253  0.5720 -1.4695 -0.7228
12367TIP3    H258593   3.180   3.117  15.281  0.4443 -1.3792 -0.1123
12368TIP3   OH258594   5.622   2.839   0.548  0.2545  0.3341 -0.0413
12368TIP3    H158595   5.586   2.760   0.508  1.3762 -0.9167  1.2935
12368TIP3    H258596   5.553   2.905   0.539 -0.4588 -0.5947 -1.7536
12369TIP3   OH258597   2.569   6.184  15.246 -0.1139 -0.4955  0.1187
12369TIP3    H158598   2.604   6.207  15.332 -0.4459 -0.2303  0.1844
12369TIP3    H258599   2.501   6.249  15.229  0.4029 -0.1443 -0.6412
12370TIP3   OH258600   6.539   1.169   4.912  0.3714 -0.0351 -0.3235
12370TIP3    H158601   6.492   1.139   4.834  2.3096  1.3210 -2.1107
12370TIP3    H258602   6.549   1.091   4.966 -1.9018 -0.7960 -0.9217
12371TIP3   OH258603   5.298   4.514   2.382 -0.4506 -0.3612 -0.7495
12371TIP3    H158604   5.242   4.456   2.434 -3.1341  2.9307  0.4069
12371TIP3    H258605   5.367   4.541   2.443 -1.6262  0.8191  0.1213
12372TIP3   OH258606   4.272   4.182   1.475  0.4241  0.0412 -0.1544
12372TIP3    H158607   4.278   4.126   1.552  1.3521 -0.2451 -0.4244
12372TIP3    H258608   4.197   4.148   1.426  0.3043 -0.2628  0.2383
12373TIP3   OH258609   5.558   4.703  11.706 -0.4050 -0.2514 -0.2389
12373TIP3    H158610   5.634   4.761  11.707 -1.0519  0.6214 -0.2152
12373TIP3    H258611   5.537   4.691  11.614  2.1154 -3.7458 -0.5479
12374TIP3   OH258612   3.326   0.489   3.647 -0.6278  0.1729  0.7244
12374TIP3    H158613   3.272   0.479   3.726  1.2062  1.1250  2.1848
12374TIP3    H258614   3.326   0.583   3.630 -0.3494  0.0579  0.0696
12375TIP3   OH258615   2.807   4.415  12.792 -0.7171  0.1779 -0.1817
12375TIP3    H158616   2.825   4.323  12.813  0.4920  0.3388 -0.4247
12375TIP3    H258617   2.713   4.418  12.775 -0.6593 -1.1525 -0.8634
12376TIP3   OH258618   5.958   6.372   3.355  0.7376  0.3141 -0.2665
12376TIP3    H158619   5.979   6.302   3.416 -0.1593  2.0750  2.2011
12376TIP3    H258620   5.869   6.353   3.327  1.1051 -0.4260 -0.9851
12377TIP3   OH258621   5.341   0.099  12.873 -0.1349  0.6541  0.0648
12377TIP3    H158622   5.375   0.012  12.892 -2.7616 -1.2647 -2.9725
12377TIP3    H258623   5.292   0.123  12.951  0.3985 -0.7103  0.8580
12378TIP3   OH258624   0.905   0.180  16.158 -0.0914  0.6891 -0.4393
12378TIP3    H158625   0.910   0.088  16.133 -2.5125 -0.0442  1.2945
12378TIP3    H258626   0.851   0.220  16.090 -0.6222  0.3435 -0.2374
12379TIP3   OH258627   1.280   5.305   4.160  0.1099  0.1550 -0.0807
12379TIP3    H158628   1.217   5.312   4.232  1.0630  0.6245  0.7234
12379TIP3    H258629   1.345   5.242   4.191 -0.5494 -1.2468 -1.3816
12380TIP3   OH258630   6.034   0.058  14.017  0.1931  0.1910  0.1064
12380TIP3    H158631   5.988   0.108  13.950  2.5112 -0.6242 -2.2878
12380TIP3    H258632   6.039  -0.031  13.981  1.6857 -0.2279  1.2632
12381TIP3   OH258633   6.152   4.678   5.796 -0.2155 -0.3234 -0.1121
12381TIP3    H158634   6.101   4.713   5.869  0.2303 -1.0074  0.5354
12381TIP3    H258635   6.159   4.585   5.814 -2.4110 -1.0671 -2.4061
12382TIP3   OH258636   0.583   3.989  12.201  0.2712 -0.4340  0.2038
12382TIP3    H158637   0.626   4.001  12.117  1.0692 -0.9359  0.5244
12382TIP3    H258638   0.643   3.932  12.250  0.2959  0.6163  1.4518
12383TIP3   OH258639   4.371   4.736  12.742 -0.3360 -0.1237 -0.1609
12383TIP3    H158640   4.428   4.797  12.788  1.2932 -1.4530 -0.3313
12383TIP3    H258641   4.294   4.728  12.798  1.0304 -0.7284  1.7010
12384TIP3   OH258642   2.846   3.872   6.035 -0.0640  0.2089  0.1235
12384TIP3    H158643   2.937   3.882   6.062  0.3047 -0.4224 -0.8080
12384TIP3    H258644   2.809   3.960   6.044  0.9390  0.7267 -0.5084
12385TIP3   OH258645   0.789   2.249   3.700 -0.5901 -0.0142 -0.3031
12385TIP3    H158646   0.796   2.240   3.605 -0.8986 -2.4707 -0.1454
12385TIP3    H258647   0.865   2.301   3.725  1.1483 -1.7995 -1.6069
12386TIP3   OH258648   3.652   3.365  16.913 -0.0773  0.6489 -0.6882
12386TIP3    H158649   3.602   3.285  16.896  1.1570 -0.5426  1.0090
12386TIP3    H258650   3.606   3.407  16.986 -0.4209  1.2339 -1.2353
12387TIP3   OH258651   1.304   3.724  13.997 -0.4434  0.2168  0.5005
12387TIP3    H158652   1.349   3.768  14.069 -2.5510  1.4265  1.1667
12387TIP3    H258653   1.211   3.740  14.013 -1.0093  1.1269 -2.8367
12388TIP3   OH258654   3.809   6.386  11.666 -0.0427 -0.1542 -0.3144
12388TIP3    H158655   3.884   6.328  11.657 -0.2723 -0.5719  0.3555
12388TIP3    H258656   3.770   6.390  11.578  2.4886  2.5067 -1.4541
12389TIP3   OH258657   0.409   5.629  17.048  0.7188  0.1804  0.1606
12389TIP3    H158658   0.495   5.672  17.051  1.1821 -0.7472  0.5240
12389TIP3    H258659   0.428   5.538  17.027 -0.2742  0.1884 -0.8550
12390TIP3   OH258660   5.578   0.327   1.893  0.1621  0.4278  0.2683
12390TIP3    H158661   5.542   0.283   1.816 -0.7533  1.5959  0.0107
12390TIP3    H258662   5.651   0.379   1.859  1.3969 -0.9857  0.6082
12391TIP3   OH258663   2.441   0.763  12.490  0.2050 -0.1573 -0.3765
12391TIP3    H158664   2.489   0.683  12.515  0.7274  0.3696  0.3726
12391TIP3    H258665   2.400   0.792  12.571  0.8058  0.8509 -0.4117
12392TIP3   OH258666   3.688   1.740  14.481 -0.0049 -0.9928 -0.1366
12392TIP3    H158667   3.661   1.828  14.509  1.1974  0.3056 -2.7120
12392TIP3    H258668   3.609   1.686  14.491 -1.1960  0.7247  0.1609
12393TIP3   OH258669   0.656   5.129  15.478  0.2167  0.4165  0.4397
12393TIP3    H158670   0.695   5.117  15.565  0.0596 -0.4207  0.4014
12393TIP3    H258671   0.595   5.056  15.469 -1.8422  1.9938  0.7487
12394TIP3   OH258672   3.804   4.205  14.658 -0.1255 -0.0434  0.4880
12394TIP3    H158673   3.748   4.131  14.680  0.3829 -0.7339 -0.4452
12394TIP3    H258674   3.834   4.187  14.568 -1.6084  2.3051 -0.5739
12395TIP3   OH258675   4.940   6.530   4.085  0.4070  0.2556  0.1087
12395TIP3    H158676   4.999   6.569   4.151  2.5773  0.6266 -1.9015
12395TIP3    H258677   4.965   6.573   4.003  0.5768 -2.9330 -1.6678
12396TIP3   OH258678   5.423   4.487  14.852 -0.5040 -0.9118  0.1703
12396TIP3    H158679   5.412   4.514  14.944  0.6774 -0.9991  0.3458
12396TIP3    H258680   5.388   4.398  14.849  0.1020 -1.1710  0.6982
12397TIP3   OH258681   4.198   4.575  13.121  0.5296 -0.3425  0.5924
12397TIP3    H158682   4.143   4.496  13.129 -0.0925  0.0737  0.5245
12397TIP3    H258683   4.154   4.627  13.054  1.0429 -0.0174  0.5061
12398TIP3   OH258684   5.178   6.357   0.033 -0.4317 -0.5174  0.0927
12398TIP3    H158685   5.269   6.385   0.029 -0.9085  1.1938  0.0201
12398TIP3    H258686   5.133   6.412  -0.032 -1.4298 -1.6868 -0.2383
12399TIP3   OH258687   6.412   1.793   6.126  0.1343  0.3491  0.1670
12399TIP3    H158688   6.434   1.743   6.205  0.9032 -0.4168 -0.5207
12399TIP3    H258689   6.327   1.833   6.147 -1.1273 -2.2063  0.3085
12400TIP3   OH258690   3.886   0.178  11.134 -0.1165 -0.2960  0.4827
12400TIP3    H158691   3.846   0.166  11.220 -0.6564 -2.3523  0.0207
12400TIP3    H258692   3.979   0.158  11.148 -0.1277 -0.2213  0.6693
12401TIP3   OH258693   1.345   1.625  13.090 -0.8076  0.3377 -0.1443
12401TIP3    H158694   1.375   1.698  13.143 -0.6956 -0.0846  0.3780
12401TIP3    H258695   1.423   1.572  13.076  0.0717  2.2490 -3.7988
12402TIP3   OH258696   1.500   0.634  15.402 -0.1526 -0.0893 -0.4191
12402TIP3    H158697   1.497   0.627  15.307  2.0503  0.9183 -0.6269
12402TIP3    H258698   1.484   0.727  15.420  1.0074  0.0250  0.0720
12403TIP3   OH258699   5.957   3.336  14.424 -0.4286  0.2131 -0.1533
12403TIP3    H158700   5.907   3.400  14.475  0.8477 -0.0300  1.5207
12403TIP3    H258701   5.985   3.383  14.346 -0.9569  1.1802  0.2247
12404TIP3   OH258702   4.331   3.126  15.687 -0.0095 -0.4647  0.5042
12404TIP3    H158703   4.363   3.210  15.718  0.4316 -1.1753  2.0962
12404TIP3    H258704   4.272   3.096  15.756 -0.4557 -1.2814 -0.2154
12405TIP3   OH258705   4.068   6.535  14.617 -0.2252  0.1076 -0.5367
12405TIP3    H158706   4.012   6.549  14.694 -0.8908 -1.3155 -0.7388
12405TIP3    H258707   4.100   6.623  14.595 -0.4646  0.6116  1.0212
12406TIP3   OH258708   5.913   2.272   0.372  0.2233 -0.0272 -0.2314
12406TIP3    H158709   5.924   2.367   0.376 -2.7897  0.3862  3.0256
12406TIP3    H258710   5.958   2.239   0.450  1.4091 -1.4063 -1.4257
12407TIP3   OH258711   6.101   6.289  16.785 -0.1858 -0.1998  0.4474
12407TIP3    H158712   6.111   6.229  16.711  1.4222 -0.8068  1.1253
12407TIP3    H258713   6.131   6.374  16.752 -3.6465  0.7024 -0.9196
12408TIP3   OH258714   5.537   0.926   3.914  0.2144 -0.0292 -0.5076
12408TIP3    H158715   5.453   0.881   3.911 -0.6670  0.9665  3.5835
12408TIP3    H258716   5.525   1.003   3.858 -1.6941  0.1619  0.1006
12409TIP3   OH258717   5.964   1.420   3.419 -0.2759  0.5315 -0.0944
12409TIP3    H158718   5.998   1.461   3.498 -0.8358  1.0210 -0.1021
12409TIP3    H258719   6.038   1.370   3.385 -0.2268 -0.2247  1.0913
12410TIP3   OH258720   0.247   1.000  15.607 -0.4001 -0.0930  0.4304
12410TIP3    H158721   0.199   1.026  15.528 -1.4966  0.5636  1.2779
12410TIP3    H258722   0.301   0.926  15.579 -0.2891  0.5161 -1.0744
12411TIP3   OH258723   6.708   3.228  14.217  0.0288 -0.3315  0.4629
12411TIP3    H158724   6.734   3.262  14.131 -0.0155 -2.0087 -0.2676
12411TIP3    H258725   6.620   3.263  14.231  0.2341  0.3612  0.0446
12412TIP3   OH258726   3.465   5.524   3.112  0.1179 -0.0115 -0.3871
12412TIP3    H158727   3.374   5.534   3.084 -0.3471 -1.5480  0.5010
12412TIP3    H258728   3.509   5.488   3.035  0.0835  1.0515 -0.9323
12413TIP3   OH258729   1.391   1.489   0.561  0.0037 -0.1026  0.1566
12413TIP3    H158730   1.437   1.503   0.478  0.3136 -1.4082  0.0844
12413TIP3    H258731   1.370   1.577   0.592  2.0223  0.5226 -0.1062
12414TIP3   OH258732   3.746   6.547  16.640  0.3527 -0.2902 -0.0800
12414TIP3    H158733   3.721   6.475  16.582 -0.9050 -0.0441  0.1186
12414TIP3    H258734   3.813   6.595  16.591  1.2699 -1.6134 -0.1867
12415TIP3   OH258735   2.525   6.822   5.650  0.4387  0.0794 -1.0812
12415TIP3    H158736   2.446   6.770   5.636  0.4336  0.1471 -1.3095
12415TIP3    H258737   2.520   6.892   5.585  0.3419  0.4944 -0.6274
12416TIP3   OH258738   5.251   2.577   4.703 -0.3518  0.4492  0.2175
12416TIP3    H158739   5.247   2.527   4.621  1.9936  0.9828 -0.2916
12416TIP3    H258740   5.261   2.511   4.771  2.5864  0.0902 -0.4338
12417TIP3   OH258741   3.672   4.297  16.247  1.1652 -0.2016 -0.4884
12417TIP3    H158742   3.694   4.218  16.295 -0.4831 -0.6357 -0.3673
12417TIP3    H258743   3.655   4.268  16.157  4.5921  0.6552 -1.5632
12418TIP3   OH258744   4.059   3.755  15.171  0.5568  0.0563  0.4962
12418TIP3    H158745   4.005   3.676  15.175  1.2910 -0.4139  1.5554
12418TIP3    H258746   4.026   3.803  15.095 -2.2526  0.4631  1.8563
12419TIP3   OH258747   3.024   1.335  13.236 -0.3781 -0.3019  0.1515
12419TIP3    H158748   3.050   1.296  13.153 -0.7012 -0.9592  0.3580
12419TIP3    H258749   3.104   1.338  13.287  0.6463  3.2335 -1.3573
12420TIP3   OH258750   3.292   0.119   2.636  0.0795 -0.3805 -0.2458
12420TIP3    H158751   3.213   0.127   2.689 -1.2003 -2.0313 -1.7903
12420TIP3    H258752   3.334   0.205   2.641 -1.5386  0.3761  1.0028
12421TIP3   OH258753   1.815   6.630   4.324 -0.0193  0.4394 -0.0202
12421TIP3    H158754   1.878   6.702   4.323  1.8173 -1.0952 -0.1177
12421TIP3    H258755   1.775   6.634   4.411  1.4480  0.4616  0.6827
12422TIP3   OH258756   0.454   5.559   2.353  0.7819 -0.3492 -0.5192
12422TIP3    H158757   0.505   5.487   2.391 -1.3288 -1.3531  0.6117
12422TIP3    H258758   0.374   5.561   2.405 -0.4205  1.0246 -2.3159
12423TIP3   OH258759   0.444   1.735  13.774  0.3899 -0.0271  0.1341
12423TIP3    H158760   0.455   1.641  13.788 -2.1057 -0.5147 -0.7013
12423TIP3    H258761   0.350   1.751  13.786  0.5616  2.1618 -0.8274
12424TIP3   OH258762   2.986   0.414   4.829  0.1849 -0.4069  0.7363
12424TIP3    H158763   2.904   0.374   4.798 -0.4319  0.5139  1.1557
12424TIP3    H258764   3.002   0.485   4.767  0.7717 -0.6848  0.5601
12425TIP3   OH258765   5.332   4.090  12.295  0.0505  0.2611  0.4751
12425TIP3    H158766   5.349   4.175  12.336  1.9686  0.6658 -1.0234
12425TIP3    H258767   5.317   4.110  12.203 -1.9982 -0.8378  0.5139
12426TIP3   OH258768   4.529   3.913   5.393 -0.0160  0.2873  0.3268
12426TIP3    H158769   4.463   3.846   5.377  0.3565  0.2080 -0.9638
12426TIP3    H258770   4.607   3.864   5.421  0.0781  0.2285 -0.0388
12427TIP3   OH258771   1.505   3.312   2.807 -0.1220 -0.5899  0.0012
12427TIP3    H158772   1.449   3.386   2.828 -1.1950 -1.4340  0.1674
12427TIP3    H258773   1.592   3.351   2.797 -0.7313  0.7508 -0.3459
12428TIP3   OH258774   0.974   0.780  16.260 -0.0313  0.0486  0.2057
12428TIP3    H158775   0.975   0.782  16.165 -2.3619  1.7552  0.1332
12428TIP3    H258776   0.973   0.687  16.282 -0.5711 -0.3684 -1.4810
12429TIP3   OH258777   5.424   3.147   1.145  0.4796 -0.2132 -0.0226
12429TIP3    H158778   5.400   3.092   1.219 -0.2742 -0.9295 -0.7888
12429TIP3    H258779   5.517   3.165   1.158  0.5804 -1.1186  0.5914
12430TIP3   OH258780   4.917   3.491  11.963 -0.2612  0.0372  0.2986
12430TIP3    H158781   4.899   3.557  12.030 -0.7672 -0.1483  0.3459
12430TIP3    H258782   4.920   3.408  12.011 -2.7441 -0.3941 -0.1666
12431TIP3   OH258783   0.315   4.410  13.976 -0.4567  0.2735 -0.7256
12431TIP3    H158784   0.377   4.401  13.904  0.6417  1.7992 -0.0310
12431TIP3    H258785   0.252   4.476  13.946 -0.6463  0.0961 -0.7170
12432TIP3   OH258786   5.738   6.336  16.701 -0.5834 -0.0471 -0.1372
12432TIP3    H158787   5.748   6.323  16.607 -1.3557 -0.7739 -0.1307
12432TIP3    H258788   5.746   6.430  16.714 -0.6068  0.0695 -0.9418
12433TIP3   OH258789   5.433   0.740  14.104  0.1542 -1.2106  0.3507
12433TIP3    H158790   5.466   0.662  14.060 -0.6535 -1.5311  0.3027
12433TIP3    H258791   5.509   0.773  14.153  0.7633 -1.4660 -0.3955
12434TIP3   OH258792   0.855   3.802   3.537  0.7298  0.4427  0.1897
12434TIP3    H158793   0.770   3.830   3.570  1.2833  1.0451  1.1439
12434TIP3    H258794   0.836   3.761   3.453 -0.6632 -0.6263  0.9896
12435TIP3   OH258795   0.516   6.307  12.475  0.4479  0.0344 -0.3573
12435TIP3    H158796   0.461   6.369  12.523  2.8789  2.5438 -0.5052
12435TIP3    H258797   0.520   6.343  12.386 -0.1396 -1.8621 -1.1889
12436TIP3   OH258798   2.066   3.638  12.590 -0.1338  0.1440 -0.4558
12436TIP3    H158799   2.062   3.632  12.495  0.0436 -1.3895 -0.3977
12436TIP3    H258800   2.151   3.601  12.613  0.7069  2.3548  0.2120
12437TIP3   OH258801   0.266   2.066  11.838 -0.2702  0.2321 -0.6167
12437TIP3    H158802   0.234   1.988  11.792 -1.1168  1.5241 -2.3480
12437TIP3    H258803   0.195   2.090  11.897 -0.3059  0.1070 -0.6069
12438TIP3   OH258804   2.982   5.277  16.178  0.3269  0.0671 -0.0849
12438TIP3    H158805   3.057   5.336  16.182  1.4856 -1.4006  1.3955
12438TIP3    H258806   2.921   5.311  16.243  0.3589  0.4047 -0.2280
12439TIP3   OH258807   0.499   1.902  10.867  0.2461 -0.1800 -0.6545
12439TIP3    H158808   0.525   1.835  10.803 -0.5806  0.8978 -2.1918
12439TIP3    H258809   0.407   1.881  10.887  0.8594 -1.2838  1.2543
12440TIP3   OH258810   2.552   0.355   1.902 -0.2134 -0.0085 -0.7233
12440TIP3    H158811   2.520   0.360   1.812 -0.1676 -1.5896 -0.8462
12440TIP3    H258812   2.473   0.344   1.955 -0.2349  0.8590 -0.5669
12441TIP3   OH258813   0.922   1.510  14.584 -0.5537 -0.2069  0.2215
12441TIP3    H158814   0.994   1.545  14.637 -0.8892  0.0487  0.5169
12441TIP3    H258815   0.963   1.481  14.503 -0.4559  2.3422 -0.7396
12442TIP3   OH258816   1.989   1.726  16.306 -0.4378  0.0926  0.1673
12442TIP3    H158817   2.082   1.722  16.284  0.0852  0.9968  1.9905
12442TIP3    H258818   1.945   1.674  16.239  1.5162 -1.4889  0.0562
12443TIP3   OH258819   5.965   5.205  10.408  0.0432  0.1956  0.1504
12443TIP3    H158820   5.908   5.129  10.396 -0.5620  0.4997  0.9923
12443TIP3    H258821   6.054   5.169  10.410 -0.1675 -0.3677 -0.4568
12444TIP3   OH258822   5.666   2.326  14.359 -0.0623  0.0050  0.7010
12444TIP3    H158823   5.639   2.251  14.305 -0.1762  0.5182  0.0391
12444TIP3    H258824   5.725   2.376  14.303  2.5114 -1.1848  2.1816
12445TIP3   OH258825   3.230   4.857  12.370  0.1548 -0.0052 -0.4219
12445TIP3    H158826   3.162   4.832  12.307 -0.0318  1.8589 -1.0158
12445TIP3    H258827   3.183   4.907  12.437  0.1949 -2.6454  1.7490
12446TIP3   OH258828   3.357   0.076  11.442  0.3023 -0.1665 -0.5875
12446TIP3    H158829   3.318   0.108  11.361 -0.1399  0.0422 -0.2937
12446TIP3    H258830   3.360  -0.019  11.431 -0.1149 -0.1699 -0.6927
12447TIP3   OH258831   1.488   0.113   3.340 -0.0543 -0.2613 -0.7889
12447TIP3    H158832   1.561   0.167   3.372  0.5528 -1.9998  0.9827
12447TIP3    H258833   1.504   0.106   3.246  1.9833 -0.4054 -0.4966
12448TIP3   OH258834   4.450   0.131   0.766 -0.2366 -0.1142 -0.0884
12448TIP3    H158835   4.377   0.173   0.719  0.4600  0.8906 -0.3138
12448TIP3    H258836   4.409   0.062   0.818 -1.2242 -0.2222 -0.9782
12449TIP3   OH258837   1.526   0.679   0.593 -0.4233 -0.7866 -0.2921
12449TIP3    H158838   1.587   0.622   0.545  0.6611  0.5248 -0.5255
12449TIP3    H258839   1.488   0.622   0.660 -0.4537 -2.1503 -1.4061
12450TIP3   OH258840   5.943   1.002   1.684 -0.2452  0.2557  0.1226
12450TIP3    H158841   6.023   0.955   1.660 -0.6577  0.4345 -1.8065
12450TIP3    H258842   5.953   1.089   1.645 -0.6017  0.9136  1.4511
12451TIP3   OH258843   0.241   5.285  13.282  0.1666 -0.2650 -0.1140
12451TIP3    H158844   0.172   5.265  13.219  0.4753 -0.6977 -0.3192
12451TIP3    H258845   0.223   5.228  13.356 -0.3670  0.4507  0.3280
12452TIP3   OH258846   2.686   0.600   1.022  0.1681  0.0513  0.2359
12452TIP3    H158847   2.728   0.642   1.097 -2.1921  1.9909  0.6083
12452TIP3    H258848   2.718   0.647   0.946 -0.7841  1.1151  0.4664
12453TIP3   OH258849   4.414   1.918   6.278 -0.2285  0.2266 -0.0854
12453TIP3    H158850   4.337   1.868   6.304 -0.1849  0.3102  0.2113
12453TIP3    H258851   4.447   1.955   6.360 -0.4420  0.9966 -0.3417
12454TIP3   OH258852   2.709   0.853   2.253  0.1395  0.0008  0.3820
12454TIP3    H158853   2.615   0.861   2.232  0.3468  0.3492 -0.4778
12454TIP3    H258854   2.745   0.803   2.180  0.2107 -2.3832  1.9639
12455TIP3   OH258855   5.130   1.191   2.928 -0.4898 -0.4988  0.3881
12455TIP3    H158856   5.067   1.260   2.909 -0.2681 -0.9742 -2.5375
12455TIP3    H258857   5.077   1.114   2.949 -0.9992 -0.9262 -2.1468
12456TIP3   OH258858   0.719   3.608   0.047  0.7281 -0.4131  0.2257
12456TIP3    H158859   0.726   3.667   0.122 -1.3697  0.8209 -0.4600
12456TIP3    H258860   0.803   3.562   0.044  1.8728  1.4416  1.7108
12457TIP3   OH258861   5.063   6.523   0.856 -0.4775 -0.2107 -0.6511
12457TIP3    H158862   5.030   6.579   0.926 -1.4650 -1.3478 -0.1633
12457TIP3    H258863   5.033   6.435   0.880  0.5898 -0.8835 -1.6472
12458TIP3   OH258864   0.559   5.488   1.733  0.1181 -0.5049  0.1185
12458TIP3    H158865   0.530   5.411   1.683 -0.1575 -0.0588 -0.4195
12458TIP3    H258866   0.497   5.557   1.709  0.5968 -0.0049  0.2888
12459TIP3   OH258867   1.659   1.655   1.321  0.6383  0.7054 -0.3529
12459TIP3    H158868   1.693   1.730   1.272  0.5636  1.6058  0.9024
12459TIP3    H258869   1.566   1.676   1.334  0.7745  0.7590  0.6092
12460TIP3   OH258870   0.270   4.820  11.347 -0.3328 -0.0303 -0.3785
12460TIP3    H158871   0.227   4.851  11.427  0.2585 -1.1958  0.4188
12460TIP3    H258872   0.204   4.830  11.278 -1.1620  0.1525  0.4219
12461TIP3   OH258873   6.176   3.471  12.437 -0.8400  0.7416 -0.4481
12461TIP3    H158874   6.265   3.493  12.412 -0.5322 -0.2181 -0.2231
12461TIP3    H258875   6.149   3.544  12.494 -0.1478  0.9635 -0.3944
12462TIP3   OH258876   1.459   3.539  17.253  0.3823 -0.0379  0.6702
12462TIP3    H158877   1.397   3.585  17.309  1.1147  0.8948  0.7533
12462TIP3    H258878   1.538   3.531  17.306  1.0930  0.8614 -0.1984
12463TIP3   OH258879   5.294   1.525   3.282 -0.3003 -0.1977 -0.1241
12463TIP3    H158880   5.297   1.473   3.202 -0.3298 -1.0272  0.3954
12463TIP3    H258881   5.382   1.560   3.292 -0.5644  0.7871 -1.0695
12464TIP3   OH258882   6.135   6.816   1.408  0.5072 -0.1575 -0.2180
12464TIP3    H158883   6.198   6.886   1.422 -0.0323  0.5726 -1.3064
12464TIP3    H258884   6.083   6.844   1.332 -1.0588 -0.7834  0.5705
12465TIP3   OH258885   6.366   4.178  16.590 -0.5553  0.4261 -0.4145
12465TIP3    H158886   6.397   4.261  16.556 -0.0948  0.2410 -0.4451
12465TIP3    H258887   6.307   4.202  16.662 -0.5296  0.7772 -0.5088
12466TIP3   OH258888   2.070   5.257   4.701  0.3456  0.1150 -0.1270
12466TIP3    H158889   2.014   5.183   4.727 -0.0415  0.1716 -0.7979
12466TIP3    H258890   2.093   5.299   4.784  0.2196 -0.5039  0.2292
12467TIP3   OH258891   4.686   3.348  12.931 -0.0417 -0.4104  0.3837
12467TIP3    H158892   4.752   3.286  12.961 -1.2357 -0.3907  3.4437
12467TIP3    H258893   4.708   3.430  12.976 -1.1418  0.0634  0.0960
12468TIP3   OH258894   1.723   2.754   3.662 -0.1666  0.1703  0.3634
12468TIP3    H158895   1.630   2.746   3.642 -0.2355  1.2206  0.2348
12468TIP3    H258896   1.729   2.831   3.719  0.7465  0.8346 -0.5902
12469TIP3   OH258897   2.159   3.490   4.580  0.3853 -0.4738  0.3238
12469TIP3    H158898   2.122   3.520   4.497 -0.0659  1.2218  1.0835
12469TIP3    H258899   2.217   3.418   4.556 -1.2260 -1.3326 -1.2176
12470TIP3   OH258900   1.541   5.717   4.145 -0.4290  0.5025  0.0289
12470TIP3    H158901   1.555   5.810   4.132  0.7988  0.3602  0.2578
12470TIP3    H258902   1.502   5.710   4.232  1.2469  0.6777  0.8188
12471TIP3   OH258903   0.552   3.158  16.465  0.0472 -0.2702  0.5817
12471TIP3    H158904   0.592   3.146  16.552 -0.3224 -2.8607  0.4978
12471TIP3    H258905   0.575   3.078  16.418 -0.7738  0.5557 -1.3191
12472TIP3   OH258906   0.265   4.903  16.031 -0.0796 -0.0140 -0.3922
12472TIP3    H158907   0.347   4.879  15.988  0.6157 -1.4160  1.5376
12472TIP3    H258908   0.196   4.871  15.973  0.8110 -1.9150 -0.4787
12473TIP3   OH258909   0.651   4.279   3.736 -0.7254  0.2518 -0.2328
12473TIP3    H158910   0.598   4.208   3.772 -2.7498  1.8936  0.1924
12473TIP3    H258911   0.705   4.309   3.809 -0.0502 -0.6478 -0.3477
12474TIP3   OH258912   4.353   2.384   2.044  0.1119 -0.1820 -0.5395
12474TIP3    H158913   4.390   2.470   2.024 -2.3288  0.9349 -0.6865
12474TIP3    H258914   4.404   2.322   1.991  1.4897  1.2472 -0.9437
12475TIP3   OH258915   3.568   5.711   1.560 -0.0796 -0.5756 -0.0822
12475TIP3    H158916   3.640   5.712   1.623 -1.5728  0.0279  1.6963
12475TIP3    H258917   3.611   5.711   1.475  2.0139 -0.2765  0.9072
12476TIP3   OH258918   0.238   1.834  16.659  0.7228  0.3475  0.0317
12476TIP3    H158919   0.318   1.875  16.625  0.3674  1.3381  0.3433
12476TIP3    H258920   0.218   1.884  16.738  0.4179 -0.6337  0.5846
12477TIP3   OH258921   2.329   4.417  16.771  0.1973 -0.0205  0.2568
12477TIP3    H158922   2.418   4.386  16.788  0.8708  0.6665 -1.7056
12477TIP3    H258923   2.289   4.348  16.719  0.4317  0.7107 -0.9250
12478TIP3   OH258924   6.219   1.216   3.753  0.1892 -0.7836  0.7734
12478TIP3    H158925   6.300   1.257   3.724  0.6939 -2.2619 -0.0158
12478TIP3    H258926   6.227   1.125   3.725 -2.0278 -0.8262  0.0739
12479TIP3   OH258927   6.035   0.482   0.984 -0.9968 -0.8420  0.7072
12479TIP3    H158928   6.072   0.455   1.068 -2.3694  0.0766  1.6543
12479TIP3    H258929   5.992   0.403   0.951  1.0842 -1.7338 -0.0829
12480TIP3   OH258930   2.160   3.599  12.018 -0.2583  0.0695  0.1722
12480TIP3    H158931   2.094   3.606  11.948 -0.8422  1.0641  0.7902
12480TIP3    H258932   2.241   3.628  11.977 -0.1384 -1.3377 -0.6488
12481TIP3   OH258933   0.957   5.058   2.843  0.7330  0.2912 -0.4856
12481TIP3    H158934   0.863   5.064   2.859  0.7318 -0.7238 -0.0818
12481TIP3    H258935   0.989   5.148   2.854 -0.5135  1.1303 -2.9042
12482TIP3   OH258936   3.603   6.599   1.836  0.2295  0.0372  0.4327
12482TIP3    H158937   3.608   6.656   1.760  2.3173  1.1835  1.3393
12482TIP3    H258938   3.655   6.522   1.812 -1.8424 -1.1676 -0.4537
12483TIP3   OH258939   1.196   3.685  16.883  0.0741 -0.2574  0.4311
12483TIP3    H158940   1.214   3.766  16.835 -1.0055 -0.0987  0.2589
12483TIP3    H258941   1.245   3.617  16.835  0.8427  0.2528  0.4739
12484TIP3   OH258942   2.242   2.170   0.622 -0.2236 -0.2083 -0.5577
12484TIP3    H158943   2.318   2.220   0.592 -0.2344  0.4305  0.4378
12484TIP3    H258944   2.204   2.134   0.542  1.1344 -0.5547 -1.0647
12485TIP3   OH258945   4.405   2.703  11.652 -0.3100 -0.0008 -0.1896
12485TIP3    H158946   4.437   2.709  11.562  0.7904  0.7979  0.2340
12485TIP3    H258947   4.340   2.773  11.658  1.6384  1.8729  0.3979
12486TIP3   OH258948   1.757   1.131   4.739  0.7765 -0.0403  0.0353
12486TIP3    H158949   1.765   1.043   4.776 -0.8102 -0.3279 -0.2451
12486TIP3    H258950   1.836   1.177   4.769  3.0222 -2.2746 -1.9523
12487TIP3   OH258951   6.317   0.906   6.168 -0.6005  0.1105 -0.2649
12487TIP3    H158952   6.394   0.949   6.206  0.2226 -1.9667  0.5125
12487TIP3    H258953   6.293   0.963   6.095  0.3900  1.9095  0.7318
12488TIP3   OH258954   5.403   6.461  14.963 -0.7320 -0.5843 -0.2064
12488TIP3    H158955   5.491   6.432  14.988 -0.9516 -0.5601  0.6117
12488TIP3    H258956   5.371   6.510  15.039 -1.3549 -0.3657 -0.6000
12489TIP3   OH258957   5.724   1.287   3.477  0.0481 -0.8875  0.0743
12489TIP3    H158958   5.675   1.296   3.395  0.6128  2.3370 -0.0328
12489TIP3    H258959   5.802   1.342   3.465  0.9908 -1.6662  2.1774
12490TIP3   OH258960   1.349   5.779  14.959 -0.2725 -0.1619  0.0348
12490TIP3    H158961   1.268   5.801  15.005 -0.0611 -0.0936  0.3717
12490TIP3    H258962   1.394   5.717  15.017  0.1176  0.1268  0.0416
12491TIP3   OH258963   3.863   5.883   2.660 -0.1803 -0.5869  0.2135
12491TIP3    H158964   3.819   5.968   2.660  2.8012  1.0997 -0.3604
12491TIP3    H258965   3.902   5.876   2.748  0.7061 -0.6942 -0.1766
12492TIP3   OH258966   2.723   0.696   0.767  0.2791 -0.0772 -0.2647
12492TIP3    H158967   2.683   0.780   0.788 -2.7507 -1.0598 -1.5852
12492TIP3    H258968   2.796   0.717   0.708  0.2686  1.6449  0.2932
12493TIP3   OH258969   0.854   0.944  13.904  0.4579 -0.6536 -0.3356
12493TIP3    H158970   0.846   1.037  13.925 -2.2438 -0.9674  0.4889
12493TIP3    H258971   0.846   0.940  13.809 -0.3998 -0.0961 -0.2987
12494TIP3   OH258972   6.504   5.548   5.271  0.7984 -0.0797 -0.2520
12494TIP3    H158973   6.528   5.459   5.243 -0.6782 -0.3322 -0.8277
12494TIP3    H258974   6.493   5.596   5.189  0.3435  0.2807  0.0190
12495TIP3   OH258975   2.654   5.736  13.617  0.0381  0.1213  0.0591
12495TIP3    H158976   2.586   5.769  13.558  0.4788  0.6989 -0.1415
12495TIP3    H258977   2.712   5.685  13.560  0.4948  0.7255 -0.0266
12496TIP3   OH258978   5.707   3.838  16.088  0.5493 -0.4221  0.1227
12496TIP3    H158979   5.707   3.894  16.011 -0.4434  1.5646  1.4621
12496TIP3    H258980   5.644   3.769  16.068 -1.3708  1.2909 -0.0893
12497TIP3   OH258981   2.499   0.707  12.162 -0.2913 -0.0529  0.2697
12497TIP3    H158982   2.504   0.617  12.130  0.4538  0.1603 -0.2373
12497TIP3    H258983   2.579   0.718  12.215 -0.6287  0.1568  0.7437
12498TIP3   OH258984   6.787   2.941   1.050  0.5689  0.0697  0.1382
12498TIP3    H158985   6.842   2.864   1.035  0.4303  0.3725 -2.2959
12498TIP3    H258986   6.739   2.921   1.131  1.3580 -1.8923  0.1780
12499TIP3   OH258987   2.787   5.239  11.073  0.6743  0.4099  0.1798
12499TIP3    H158988   2.861   5.274  11.023 -0.2414  0.7415 -1.0081
12499TIP3    H258989   2.717   5.304  11.060  0.6730  1.0601  2.7797
12500TIP3   OH258990   3.974   5.955   1.149  0.1715 -0.1211 -0.1876
12500TIP3    H158991   3.890   5.913   1.163  0.3183 -0.2753  0.2258
12500TIP3    H258992   3.957   6.018   1.079 -0.3714  0.1063  0.1429
12501TIP3   OH258993   0.540   1.746  17.091  0.6195  0.1254 -0.2474
12501TIP3    H158994   0.631   1.720  17.110  1.0272  1.3377 -0.4539
12501TIP3    H258995   0.487   1.685  17.143  1.6117  0.9436  1.8801
12502TIP3   OH258996   5.231   5.558   6.006 -0.1020 -0.7943  0.5380
12502TIP3    H158997   5.287   5.483   6.027  0.1120 -1.1000 -1.0328
12502TIP3    H258998   5.259   5.626   6.067  1.4887 -1.1701  0.2727
12503TIP3   OH258999   4.491   0.628  12.844  0.1604 -0.4742  0.5542
12503TIP3    H159000   4.525   0.579  12.770  0.2899  0.4157  0.0149
12503TIP3    H259001   4.396   0.625  12.834  0.1689 -0.5641  0.5013
12504TIP3   OH259002   6.294   5.402  15.069 -0.1441  0.2997 -0.2996
12504TIP3    H159003   6.210   5.374  15.032 -0.3973  0.2501  0.3002
12504TIP3    H259004   6.301   5.354  15.152  1.4398 -1.2707 -1.2865
12505TIP3   OH259005   3.601   3.423   4.943 -0.0699 -0.4659  0.7981
12505TIP3    H159006   3.594   3.433   4.848  0.1675 -0.5959  0.7676
12505TIP3    H259007   3.544   3.492   4.978 -1.7022 -1.6286  0.5441
12506TIP3   OH259008   6.355   5.759   2.682 -0.4450  0.2945 -0.2385
12506TIP3    H159009   6.388   5.691   2.741 -0.8765 -1.0204 -1.4553
12506TIP3    H259010   6.263   5.768   2.706 -0.0809  1.4594  0.8244
12507TIP3   OH259011   4.295   4.497   2.550  0.0824  0.0305 -0.3478
12507TIP3    H159012   4.274   4.527   2.462  0.9562  1.4365 -0.0956
12507TIP3    H259013   4.231   4.427   2.567 -0.4712  0.1338 -1.8524
12508TIP3   OH259014   0.283   3.092  14.016  0.2942  0.7953 -0.1066
12508TIP3    H159015   0.236   3.098  14.099  1.1894  1.6877  0.3474
12508TIP3    H259016   0.347   3.162  14.019 -1.5192  2.7532 -2.7751
12509TIP3   OH259017   6.066   0.068   6.706  0.5327 -0.2296 -0.3436
12509TIP3    H159018   6.043   0.144   6.652  0.0471 -0.4074 -0.3881
12509TIP3    H259019   6.068  -0.006   6.645 -0.8040 -0.5758 -0.0082
12510TIP3   OH259020   6.687   6.823   4.316 -0.1312  0.2470 -0.0671
12510TIP3    H159021   6.704   6.898   4.260 -0.1634  0.5990  0.3898
12510TIP3    H259022   6.680   6.860   4.404  2.2608 -0.5377  0.5306
12511TIP3   OH259023   2.412   5.660   5.157  0.3021  0.4057 -0.4138
12511TIP3    H159024   2.485   5.668   5.096  1.6901 -0.8926  0.9923
12511TIP3    H259025   2.345   5.611   5.110  1.5921 -1.1165 -0.7233
12512TIP3   OH259026   3.387   1.667   4.100 -0.1180  0.0248 -0.0509
12512TIP3    H159027   3.414   1.691   4.012  1.0535  0.2347  0.3544
12512TIP3    H259028   3.429   1.583   4.117 -0.9637 -0.3989  0.0342
12513TIP3   OH259029   0.528   1.363  13.671  0.0036 -0.1158  0.5695
12513TIP3    H159030   0.508   1.401  13.756  0.7186 -1.9158  1.5911
12513TIP3    H259031   0.617   1.393  13.652 -1.1284  2.6366 -0.9738
12514TIP3   OH259032   4.057   2.109  16.568 -0.1963 -0.1055 -0.0223
12514TIP3    H159033   4.132   2.165  16.584  0.7766 -0.9126 -1.5494
12514TIP3    H259034   4.094   2.023  16.550 -1.3733 -0.2397 -2.0796
12515TIP3   OH259035   1.756   4.093  13.303 -0.4148  0.1215 -0.0439
12515TIP3    H159036   1.672   4.049  13.289 -0.4672  0.5598 -1.2758
12515TIP3    H259037   1.744   4.180  13.265  0.7925 -0.0375 -0.8524
12516TIP3   OH259038   0.585   4.504   5.152  0.1722  0.1727  0.2616
12516TIP3    H159039   0.502   4.549   5.168  0.6365  1.3888 -0.5746
12516TIP3    H259040   0.562   4.411   5.149 -1.4288  0.5676 -1.4241
12517TIP3   OH259041   3.925   4.150  13.297 -0.2196  0.0200  0.2462
12517TIP3    H159042   3.889   4.222  13.349 -0.4070 -0.2009  0.4293
12517TIP3    H259043   3.891   4.071  13.340  1.3179 -0.2420  1.0639
12518TIP3   OH259044   5.283   4.567  11.514  0.2445  0.2418  0.3084
12518TIP3    H159045   5.297   4.581  11.420 -1.9822 -0.1714 -0.1513
12518TIP3    H259046   5.324   4.482  11.532 -0.1390 -0.1303 -0.5157
12519TIP3   OH259047   5.988   5.843  15.428  1.1256  0.0545 -0.6709
12519TIP3    H159048   6.033   5.805  15.351  3.4675  1.5616 -0.1594
12519TIP3    H259049   5.913   5.889  15.391  0.0164 -2.3169 -1.6122
12520TIP3   OH259050   3.460   1.133  11.422  0.3282 -0.3816  0.4292
12520TIP3    H159051   3.421   1.116  11.507 -0.9308  0.7559  0.1234
12520TIP3    H259052   3.494   1.222  11.428  0.0744 -0.2235 -0.3011
12521TIP3   OH259053   0.769   1.056  12.130 -0.8663 -0.5666 -0.3203
12521TIP3    H159054   0.674   1.060  12.140 -0.6706  0.5631  1.5903
12521TIP3    H259055   0.797   1.148  12.131  0.2166 -0.8395 -1.6220
12522TIP3   OH259056   6.407   2.496   5.183  0.3472 -0.9445 -0.2449
12522TIP3    H159057   6.483   2.464   5.231 -0.9617 -1.7567  1.4276
12522TIP3    H259058   6.386   2.580   5.224 -0.2843 -1.2480  0.0746
12523TIP3   OH259059   4.080   3.853  15.422  0.3663  0.2710 -0.2115
12523TIP3    H159060   4.102   3.946  15.424  1.3782  0.0732 -1.1565
12523TIP3    H259061   4.066   3.834  15.329 -0.3501 -0.4190  0.0221
12524TIP3   OH259062   3.718   1.586  15.232 -0.3611 -0.3452  0.5890
12524TIP3    H159063   3.677   1.617  15.313  1.9308  0.1754  1.6378
12524TIP3    H259064   3.732   1.666  15.181 -1.0787 -0.5845 -0.0104
12525TIP3   OH259065   2.808   1.501  16.166  0.4779 -0.4252  0.3234
12525TIP3    H159066   2.714   1.501  16.148  0.7018  0.1609 -0.9128
12525TIP3    H259067   2.817   1.556  16.244  0.0077  1.4437 -0.8851
12526TIP3   OH259068   2.026   6.739   4.878 -0.4237 -0.4548 -0.3834
12526TIP3    H159069   2.047   6.831   4.862 -0.1487  0.2597  3.2512
12526TIP3    H259070   2.095   6.709   4.937 -1.9589 -2.1892  0.6112
12527TIP3   OH259071   3.848   3.188   4.499  0.5981 -0.0959  0.0546
12527TIP3    H159072   3.795   3.118   4.462  1.1622 -0.8021  0.5529
12527TIP3    H259073   3.901   3.220   4.425  0.6866 -0.5254 -0.0702
12528TIP3   OH259074   3.806   2.566  14.465  0.6349  0.1032  0.1492
12528TIP3    H159075   3.809   2.617  14.546 -0.1577 -1.0229  0.9260
12528TIP3    H259076   3.895   2.530  14.457  0.4125 -0.7526  1.2073
12529TIP3   OH259077   0.240   1.272   5.892 -0.0657  0.0544  0.4323
12529TIP3    H159078   0.199   1.338   5.948  0.6664  0.4951  0.4645
12529TIP3    H259079   0.331   1.269   5.921 -0.1634 -1.2588  0.6903
12530TIP3   OH259080   5.822   5.980   4.648 -0.1979  0.2441 -0.3047
12530TIP3    H159081   5.807   6.021   4.563  1.0735  2.1093  0.3076
12530TIP3    H259082   5.897   5.923   4.634  0.4329  1.0584 -0.3014
12531TIP3   OH259083   0.387   6.041  15.123 -1.0172 -0.2136 -0.9648
12531TIP3    H159084   0.326   6.016  15.192 -0.8185 -0.3048 -0.8214
12531TIP3    H259085   0.459   6.085  15.169 -1.5702  1.0388 -1.2424
12532TIP3   OH259086   2.384   3.027  15.610  0.4463  0.3859 -0.7259
12532TIP3    H159087   2.380   3.029  15.515  1.3838 -0.6758 -0.8014
12532TIP3    H259088   2.463   3.077  15.632  0.1175  0.8093 -0.4839
12533TIP3   OH259089   3.917   3.539  11.233 -0.4074  0.4387  0.5963
12533TIP3    H159090   3.932   3.617  11.180 -0.5047  1.1690  1.6269
12533TIP3    H259091   3.899   3.470  11.169 -0.3337  1.2556 -0.3234
12534TIP3   OH259092   2.758   1.386  15.935 -0.6570 -0.1101 -0.6927
12534TIP3    H159093   2.827   1.393  16.000 -0.4497  0.5135 -0.9671
12534TIP3    H259094   2.802   1.400  15.851 -0.7794 -1.6895 -1.0572
12535TIP3   OH259095   3.300   5.778   2.590 -0.2663  0.2330 -0.4331
12535TIP3    H159096   3.303   5.816   2.678  0.8276 -1.0586  0.1129
12535TIP3    H259097   3.226   5.717   2.594  0.6800 -0.9233  0.0888
12536TIP3   OH259098   0.452   3.001   3.276  0.5550 -0.0385  0.7182
12536TIP3    H159099   0.535   2.956   3.261  0.3587  0.5211 -2.6038
12536TIP3    H259100   0.471   3.093   3.260 -1.0072 -0.0886 -1.8610
12537TIP3   OH259101   4.944   2.991   2.326 -0.0000  0.0351 -0.6785
12537TIP3    H159102   5.012   3.058   2.336  0.1049 -0.1176 -0.3509
12537TIP3    H259103   4.864   3.040   2.305 -0.3265  0.4164  1.3161
12538TIP3   OH259104   4.231   1.477  16.607 -0.4148  0.9451 -0.2916
12538TIP3    H159105   4.195   1.484  16.695  0.4436  2.6431 -0.0349
12538TIP3    H259106   4.309   1.531  16.609  1.1932 -1.1821 -1.3346
12539TIP3   OH259107   2.921   5.540   1.023  0.2330 -0.1073 -0.0178
12539TIP3    H159108   2.967   5.479   0.965 -0.6374 -0.1532 -0.6939
12539TIP3    H259109   2.926   5.500   1.110 -1.8212 -2.1089 -0.7133
12540TIP3   OH259110   4.292   1.222   3.326 -0.5805 -0.6174  0.2497
12540TIP3    H159111   4.318   1.144   3.375 -0.0476 -1.0404 -0.6746
12540TIP3    H259112   4.325   1.207   3.237 -0.5788  0.6044  0.0213
12541TIP3   OH259113   4.399   3.091  11.202 -1.0752  0.2177 -0.1634
12541TIP3    H159114   4.471   3.054  11.254  1.7230  3.8037 -1.0853
12541TIP3    H259115   4.396   3.038  11.123  1.5547  0.7432 -0.6861
12542TIP3   OH259116   4.591   6.156   0.223 -0.1829  0.5088  0.1323
12542TIP3    H159117   4.500   6.129   0.207  0.2439 -0.0858 -1.5073
12542TIP3    H259118   4.598   6.242   0.180  0.3833 -0.0946 -1.0454
12543TIP3   OH259119   3.122   0.569   2.591 -0.1451 -0.2998 -0.0608
12543TIP3    H159120   3.076   0.653   2.592 -0.2185 -0.3439  0.3793
12543TIP3    H259121   3.178   0.571   2.669 -0.0487 -0.6058 -0.1202
12544TIP3   OH259122   6.647   3.735  14.904  0.4678  0.4543  0.5572
12544TIP3    H159123   6.703   3.693  14.839  0.5203  0.4998  0.5742
12544TIP3    H259124   6.565   3.685  14.900  1.5102 -1.6232  2.6457
12545TIP3   OH259125   0.872   1.122   5.297  0.0306  0.1753 -0.1036
12545TIP3    H159126   0.830   1.208   5.289 -1.2359 -0.4298 -0.2207
12545TIP3    H259127   0.939   1.135   5.365 -0.8175  1.0129  0.6088
12546TIP3   OH259128   2.252   6.298   0.631  0.0319 -0.7514  0.4563
12546TIP3    H159129   2.297   6.296   0.547  0.3654  1.8233  0.4850
12546TIP3    H259130   2.160   6.308   0.609  0.0161 -1.0303  0.3963
12547TIP3   OH259131   6.435   1.529   6.643  0.6409  0.1552 -0.3024
12547TIP3    H159132   6.507   1.586   6.669  0.2749  0.8717 -0.8510
12547TIP3    H259133   6.444   1.452   6.700  2.0612  0.0619 -0.6069
12548TIP3   OH259134   2.429   5.743  16.359  0.5216 -0.4900 -0.6529
12548TIP3    H159135   2.499   5.715  16.299 -0.3320 -0.2554 -1.8059
12548TIP3    H259136   2.374   5.800  16.306  0.8952  1.4825  0.9834
12549TIP3   OH259137   1.637   2.560   3.203  0.1282  0.1349 -0.1209
12549TIP3    H159138   1.664   2.477   3.242  0.3823  0.5233  0.5472
12549TIP3    H259139   1.577   2.535   3.132  1.6279 -0.7221 -1.1689
12550TIP3   OH259140   3.890   0.365   4.226 -0.1278 -0.2716 -0.1030
12550TIP3    H159141   3.901   0.395   4.136 -0.7298  0.8164  0.1666
12550TIP3    H259142   3.929   0.433   4.279  1.2377 -1.4341  0.4529
12551TIP3   OH259143   4.465   6.615   3.089  0.3611  0.1716 -0.2667
12551TIP3    H159144   4.529   6.636   3.020  0.5250  1.5090  0.2729
12551TIP3    H259145   4.384   6.596   3.042  0.6208  0.5136 -0.8622
12552TIP3   OH259146   0.624   2.191  15.942 -0.1401  0.7253 -0.1969
12552TIP3    H159147   0.589   2.273  15.976 -1.0610  0.2893 -0.0562
12552TIP3    H259148   0.629   2.134  16.018 -2.1126 -0.2236 -0.7069
12553TIP3   OH259149   1.500   3.890  11.488 -0.1656  0.4459  0.2490
12553TIP3    H159150   1.510   3.984  11.476 -1.8038  1.0915  3.0979
12553TIP3    H259151   1.512   3.876  11.582 -0.6927 -2.0925  0.0123
12554TIP3   OH259152   6.090   3.994   6.386 -0.2340 -0.4489 -0.3928
12554TIP3    H159153   6.186   4.002   6.381 -0.1011  1.6360  2.8314
12554TIP3    H259154   6.073   3.903   6.364  2.4329 -0.7848 -1.5269
12555TIP3   OH259155   3.960   5.589  12.181  0.7171  0.3343  0.1579
12555TIP3    H159156   4.054   5.590  12.160  0.6536  2.3911 -0.2911
12555TIP3    H259157   3.956   5.619  12.272  0.6104 -2.4464  1.1428
12556TIP3   OH259158   5.067   4.184   5.655  0.7787  0.2032  0.7421
12556TIP3    H159159   5.145   4.128   5.656  0.8581  0.3221  1.3515
12556TIP3    H259160   4.999   4.131   5.696  0.7461  0.3990  0.9426
12557TIP3   OH259161   4.165   2.365   5.160 -0.2098 -0.0436  0.5958
12557TIP3    H159162   4.192   2.433   5.098 -0.1222 -0.7954 -0.2069
12557TIP3    H259163   4.195   2.283   5.121  0.5732 -0.4821  2.0305
12558TIP3   OH259164   4.900   1.330  15.351  0.0153  0.2932 -0.1401
12558TIP3    H159165   4.807   1.351  15.364 -0.4231 -0.0337 -2.4082
12558TIP3    H259166   4.902   1.235  15.338  0.6313  0.3363 -0.4091
12559TIP3   OH259167   5.776   6.083   5.845  0.1389  0.0778  0.1400
12559TIP3    H159168   5.871   6.081   5.836  0.0744 -0.2633 -0.4965
12559TIP3    H259169   5.755   6.003   5.894  0.0746 -0.5073 -0.8186
12560TIP3   OH259170   3.281   5.684   4.921  0.2728  0.0062  0.6051
12560TIP3    H159171   3.207   5.623   4.912 -1.6246  2.2975 -0.2138
12560TIP3    H259172   3.294   5.691   5.016 -1.5135  0.5854  0.8435
12561TIP3   OH259173   0.836   2.563   2.356  0.3259  0.0232 -0.2519
12561TIP3    H159174   0.851   2.654   2.333  0.2333  0.0485 -0.2114
12561TIP3    H259175   0.909   2.516   2.316  0.3905  0.1187 -0.2460
12562TIP3   OH259176   3.404   3.572   3.943 -0.4448 -0.0481 -0.2465
12562TIP3    H159177   3.357   3.583   4.025  1.9913 -0.7678  1.3382
12562TIP3    H259178   3.477   3.633   3.949  0.8796 -1.4972 -0.9875
12563TIP3   OH259179   0.340   1.252   3.549 -0.3699  0.9720  0.0383
12563TIP3    H159180   0.324   1.191   3.477  0.5145  1.4904 -0.6094
12563TIP3    H259181   0.434   1.270   3.545 -0.5128  1.8906  0.6155
12564TIP3   OH259182   4.065   5.122  11.731  0.5409  0.3667  0.0009
12564TIP3    H159183   4.155   5.129  11.762  0.3020  1.2165  0.5502
12564TIP3    H259184   4.012   5.126  11.811 -0.0083  0.5357 -0.3632
12565TIP3   OH259185   0.678   0.200  13.850  0.1951 -0.2189  0.6574
12565TIP3    H159186   0.607   0.229  13.793 -0.5424 -1.3344  0.9822
12565TIP3    H259187   0.757   0.235  13.809 -0.6074  2.1887  1.0023
12566TIP3   OH259188   0.206   1.914   5.262  0.8693  0.3948  0.1795
12566TIP3    H159189   0.291   1.933   5.301 -0.2131  0.1447  2.8649
12566TIP3    H259190   0.144   1.968   5.312 -0.9839 -2.1523  0.8198
12567TIP3   OH259191   5.754   4.947   3.196  0.5473 -0.2186 -0.5470
12567TIP3    H159192   5.799   5.031   3.187  0.2730 -0.0632 -0.5141
12567TIP3    H259193   5.812   4.883   3.157  0.8629 -0.0430 -0.3694
12568TIP3   OH259194   2.127   3.782  11.587  0.5091  0.1978  0.0196
12568TIP3    H159195   2.134   3.866  11.543 -0.5765  0.8971  1.1255
12568TIP3    H259196   2.056   3.736  11.542  1.6799 -0.5196 -1.1548
12569TIP3   OH259197   4.041   6.182  13.325  0.6378 -0.0998  0.2214
12569TIP3    H159198   4.127   6.210  13.296 -0.0472  1.7728 -0.1027
12569TIP3    H259199   4.051   6.088  13.345  2.1457 -0.4649 -2.0113
12570TIP3   OH259200   0.678   4.465   2.648  0.5214 -0.1787  0.1489
12570TIP3    H159201   0.592   4.506   2.632  0.7729 -0.0898 -1.0948
12570TIP3    H259202   0.741   4.536   2.633  1.0091 -1.0961 -2.7695
12571TIP3   OH259203   1.878   2.655  14.772 -0.1832  0.4194  0.6466
12571TIP3    H159204   1.965   2.666  14.733  0.4284  2.9879  2.4662
12571TIP3    H259205   1.875   2.719  14.844 -3.6926  0.6651  0.4855
12572TIP3   OH259206   2.372   1.501  11.654  0.3675 -0.6584 -0.5462
12572TIP3    H159207   2.330   1.502  11.568  1.2078  0.5952 -0.9696
12572TIP3    H259208   2.466   1.504  11.635  0.5900 -1.1691  0.4108
12573TIP3   OH259209   2.719   3.943  14.733 -0.6269 -0.2466 -0.0113
12573TIP3    H159210   2.653   4.009  14.711 -0.4316  0.5692  1.6803
12573TIP3    H259211   2.799   3.974  14.690 -1.0878 -0.7585 -1.3113
12574TIP3   OH259212   6.691   4.865  13.236 -0.0680 -0.2674  0.5436
12574TIP3    H159213   6.647   4.853  13.152 -0.5934 -2.1392  1.0192
12574TIP3    H259214   6.782   4.838  13.220 -0.0119 -0.0224  0.4421
12575TIP3   OH259215   0.234   0.357  15.800  0.0234  0.2795 -0.7570
12575TIP3    H159216   0.147   0.342  15.762  0.6422 -0.8179 -1.7842
12575TIP3    H259217   0.285   0.395  15.729 -0.2295  3.3070  0.5184
12576TIP3   OH259218   0.170   1.355  13.846  0.4386 -0.2171  0.1998
12576TIP3    H159219   0.197   1.269  13.880 -0.0061 -0.1930  0.6337
12576TIP3    H259220   0.106   1.334  13.778 -1.3240 -0.2132  1.7745
12577TIP3   OH259221   3.172   2.902   3.458 -0.5346 -0.1318 -0.4728
12577TIP3    H159222   3.084   2.875   3.430 -0.2168 -0.8812 -0.7789
12577TIP3    H259223   3.161   2.929   3.549 -1.1282 -0.0001 -0.5783
12578TIP3   OH259224   5.135   6.584   4.293  0.0091  0.0697 -0.7534
12578TIP3    H159225   5.152   6.589   4.387 -2.7350  0.6039 -0.1916
12578TIP3    H259226   5.176   6.502   4.265  2.1202  0.5997  0.5578
12579TIP3   OH259227   0.734   5.543  16.442 -0.5157  0.2426 -0.0732
12579TIP3    H159228   0.682   5.462  16.441  1.6091 -1.2016  0.0916
12579TIP3    H259229   0.688   5.600  16.503 -2.1525 -0.7734 -0.2839
12580TIP3   OH259230   5.625   5.827  11.992  0.0488  0.5730  0.1581
12580TIP3    H159231   5.619   5.896  12.059 -1.9157 -0.4589  1.1373
12580TIP3    H259232   5.626   5.745  12.042  3.8913 -0.2157 -0.8937
12581TIP3   OH259233   1.384   3.550   2.901  0.3277  0.5362  0.2292
12581TIP3    H159234   1.427   3.582   2.980 -2.6733  2.3657  1.2561
12581TIP3    H259235   1.316   3.491   2.932 -1.6857  2.1957 -0.7919
12582TIP3   OH259236   2.924   3.377  14.433 -0.1807 -0.0310 -0.1198
12582TIP3    H159237   2.963   3.334  14.510  1.2479  0.3040 -0.6250
12582TIP3    H259238   2.902   3.305  14.374  1.0264 -0.1683 -0.4259
12583TIP3   OH259239   0.453   1.562   3.212 -0.1753 -0.0727  0.6898
12583TIP3    H159240   0.478   1.562   3.304 -1.8625  0.1088  1.1869
12583TIP3    H259241   0.498   1.486   3.174  0.7702  0.0304  1.5752
12584TIP3   OH259242   6.611   2.774  16.837 -0.0229  0.7073  0.0086
12584TIP3    H159243   6.647   2.750  16.752  0.4911 -0.6503  0.5956
12584TIP3    H259244   6.529   2.725  16.843 -0.3187  1.2016  0.0913
12585TIP3   OH259245   2.095   2.791   2.801 -0.4557  0.0073 -0.4151
12585TIP3    H159246   2.021   2.789   2.741 -1.2766 -1.5810  0.5727
12585TIP3    H259247   2.136   2.705   2.792 -0.2616 -0.0579  0.8611
12586TIP3   OH259248   1.934   0.599   5.885 -0.3604  0.2704  0.8534
12586TIP3    H159249   2.021   0.620   5.920  0.6624 -1.8715 -0.1677
12586TIP3    H259250   1.930   0.503   5.890 -1.6271  0.1517 -1.4421
12587TIP3   OH259251   0.680   2.773  13.488 -0.4258  0.7401  0.0265
12587TIP3    H159252   0.647   2.830  13.557 -0.6775  0.4867  0.1154
12587TIP3    H259253   0.740   2.713  13.533 -0.6939  0.4879  0.0461
12588TIP3   OH259254   1.570   5.238  12.241  0.0270 -0.4024 -0.4818
12588TIP3    H159255   1.546   5.256  12.332 -1.1455 -1.9098 -0.4465
12588TIP3    H259256   1.584   5.324  12.202  0.2117  0.2792  1.0360
12589TIP3   OH259257   6.397   0.841  16.038  0.1263  0.5386 -0.0183
12589TIP3    H159258   6.370   0.823  16.128  0.2505 -0.4811 -0.1743
12589TIP3    H259259   6.321   0.817  15.985  0.7038 -0.7018 -0.3217
12590TIP3   OH259260   1.639   3.724   4.368  0.5270  0.1680  0.6049
12590TIP3    H159261   1.681   3.766   4.293 -0.1417  1.4609  0.9136
12590TIP3    H259262   1.649   3.630   4.353 -1.1664  0.3207 -2.0582
12591TIP3   OH259263   5.046   1.148   5.350 -0.1690  0.0670 -0.0297
12591TIP3    H159264   4.965   1.184   5.388 -0.4936 -0.7171  0.0443
12591TIP3    H259265   5.038   1.165   5.257 -1.3456 -1.6928 -0.3002
12592TIP3   OH259266   6.701   0.700   3.948 -0.2469 -0.3236 -0.0861
12592TIP3    H159267   6.777   0.708   3.891  1.1199 -1.9444  1.3708
12592TIP3    H259268   6.732   0.729   4.034 -0.9403 -1.8911  0.7429
12593TIP3   OH259269   3.687   4.316   0.169  0.0378 -0.1460 -0.4195
12593TIP3    H159270   3.702   4.222   0.180  0.1108 -0.2468 -1.3016
12593TIP3    H259271   3.655   4.325   0.079  0.2096  0.6907 -0.4055
12594TIP3   OH259272   1.462   0.059  13.662  0.2274 -0.4423 -0.6468
12594TIP3    H159273   1.434   0.064  13.753  0.3961  0.1834 -0.6188
12594TIP3    H259274   1.434  -0.027  13.632 -2.1613  0.3060 -0.7644
12595TIP3   OH259275   2.763   1.852  15.181  0.3993  0.1976  0.0548
12595TIP3    H159276   2.758   1.915  15.253  0.0007  0.5775 -0.2967
12595TIP3    H259277   2.693   1.878  15.122  0.4789 -0.3450 -0.2878
12596TIP3   OH259278   5.751   5.709  11.542  0.1919  0.0633  0.3523
12596TIP3    H159279   5.732   5.677  11.629  2.6573 -1.7195  0.3246
12596TIP3    H259280   5.733   5.635  11.484 -3.8289  1.9132 -1.1438
12597TIP3   OH259281   2.809   5.284   2.017 -0.3879 -0.3279 -0.4710
12597TIP3    H159282   2.884   5.227   2.032  0.1468  0.4079 -0.3053
12597TIP3    H259283   2.833   5.336   1.940 -0.0932  0.9283  0.4282
12598TIP3   OH259284   6.663   4.602  15.071 -0.1907 -0.0128 -0.3515
12598TIP3    H159285   6.574   4.616  15.105  0.2789 -0.0435  0.9313
12598TIP3    H259286   6.660   4.516  15.030 -1.4101  1.0106 -2.6014
12599TIP3   OH259287   5.530   0.185   4.575 -0.1666 -0.4915  0.5138
12599TIP3    H159288   5.593   0.114   4.589  0.7390  0.5225  1.9293
12599TIP3    H259289   5.582   0.254   4.533 -0.9376 -0.4844 -0.4690
12600TIP3   OH259290   3.465   6.503   4.562 -0.1890  0.3481 -0.1557
12600TIP3    H159291   3.470   6.593   4.532  0.8577  0.7863  1.2499
12600TIP3    H259292   3.390   6.466   4.514 -0.4768  1.8663 -0.9330
12601TIP3   OH259293   4.427   6.050  16.494  0.2088  0.1620  0.3871
12601TIP3    H159294   4.418   6.043  16.399 -1.0258  1.1274  0.4007
12601TIP3    H259295   4.487   5.979  16.519 -0.4565 -0.8951 -0.9497
12602TIP3   OH259296   4.786   4.562   3.538 -0.6474 -0.0284 -0.3644
12602TIP3    H159297   4.790   4.474   3.502  1.3159 -0.2640  0.2879
12602TIP3    H259298   4.701   4.567   3.582 -0.3906 -1.9507  0.4336
12603TIP3   OH259299   3.147   5.714  13.170  0.2048  0.3018  0.9571
12603TIP3    H159300   3.080   5.733  13.104  0.6966  1.1390  0.6923
12603TIP3    H259301   3.217   5.776  13.152  0.8177 -0.1911  1.5902
12604TIP3   OH259302   3.712   5.404   4.048 -0.2918 -0.0032  0.1499
12604TIP3    H159303   3.783   5.466   4.064 -0.3364 -0.2195  1.2165
12604TIP3    H259304   3.710   5.395   3.953 -0.0260  1.3323 -0.0098
12605TIP3   OH259305   2.471   2.468  15.074  0.4215  0.2506 -0.2512
12605TIP3    H159306   2.491   2.379  15.045  0.4586  0.3361 -0.4888
12605TIP3    H259307   2.495   2.468  15.167 -0.8642 -0.3911  0.1082
12606TIP3   OH259308   6.682   2.846   1.830 -0.3959  0.4345  0.2028
12606TIP3    H159309   6.626   2.841   1.753 -1.2712  0.3675  0.8297
12606TIP3    H259310   6.769   2.824   1.797 -1.0078 -1.1505 -0.5015
12607TIP3   OH259311   5.138   6.646   4.554  0.2486  0.6130 -0.3660
12607TIP3    H159312   5.143   6.599   4.637 -0.2635 -0.7640 -1.0755
12607TIP3    H259313   5.226   6.680   4.540  0.8548 -0.8157 -0.1863
12608TIP3   OH259314   3.311   2.864  12.148  0.1487 -0.5798  0.4096
12608TIP3    H159315   3.302   2.837  12.240 -0.6998 -1.9510 -0.0522
12608TIP3    H259316   3.363   2.794  12.108 -0.0137 -0.3051 -0.2901
12609TIP3   OH259317   6.449   5.963   5.305 -0.1675 -1.2328  0.1959
12609TIP3    H159318   6.496   6.046   5.312 -0.6843 -0.5634 -2.6072
12609TIP3    H259319   6.366   5.978   5.351  1.2481 -1.5865  3.0213
12610TIP3   OH259320   0.211   3.305  12.020 -0.2842 -0.3754  0.1779
12610TIP3    H159321   0.143   3.242  11.998 -0.4453 -0.3378  0.5540
12610TIP3    H259322   0.233   3.347  11.937 -0.8361 -0.2785  0.0760
12611TIP3   OH259323   1.023   2.208   5.325 -0.4867  0.4360 -0.5045
12611TIP3    H159324   1.088   2.217   5.255  1.6173  4.3849  1.5814
12611TIP3    H259325   1.066   2.154   5.391 -0.5612  0.5571 -0.3560
12612TIP3   OH259326   1.146   0.228   5.204  0.0792  0.1384 -0.3373
12612TIP3    H159327   1.222   0.208   5.149 -0.0817 -0.9153 -0.1939
12612TIP3    H259328   1.157   0.320   5.227  0.8326  0.2424 -1.0654
12613TIP3   OH259329   3.260   5.434  14.734 -0.5976  0.1492  0.2585
12613TIP3    H159330   3.220   5.487  14.666  0.7471  0.0577 -0.6259
12613TIP3    H259331   3.298   5.497  14.795 -0.2378  0.2191 -0.0370
12614TIP3   OH259332   1.520   4.635  10.560  0.3445 -0.4632  1.0243
12614TIP3    H159333   1.589   4.586  10.514 -0.0149  0.3978 -0.4967
12614TIP3    H259334   1.465   4.671  10.490 -0.2824  0.8329  2.1307
12615TIP3   OH259335   4.931   0.508   4.680 -0.1276  0.0465  0.1287
12615TIP3    H159336   4.928   0.490   4.774  0.9970  0.4379  0.2578
12615TIP3    H259337   4.915   0.602   4.674  1.2177  0.2890  0.0603
12616TIP3   OH259338   5.585   6.230   4.003  0.0922 -0.3346  0.0656
12616TIP3    H159339   5.604   6.173   4.077 -1.9996 -0.0643  0.8691
12616TIP3    H259340   5.658   6.292   4.001  0.9884 -1.3394  0.8823
12617TIP3   OH259341   1.054   3.853  13.370 -0.1716  0.4610 -0.3087
12617TIP3    H159342   1.010   3.936  13.351 -0.5145  0.4210  0.2756
12617TIP3    H259343   1.106   3.835  13.292 -0.8983  0.7050 -0.8550
12618TIP3   OH259344   1.735   3.379  16.727  0.0207  0.6959 -0.3041
12618TIP3    H159345   1.828   3.379  16.702  0.6110 -3.1696  1.2497
12618TIP3    H259346   1.689   3.349  16.649  0.7294 -1.7934  0.1315
12619TIP3   OH259347   1.640   1.384  15.908  0.3085 -0.0858 -0.3735
12619TIP3    H159348   1.656   1.477  15.898  3.7764 -0.5221  0.0383
12619TIP3    H259349   1.629   1.371  16.002 -0.1806 -0.1248 -0.4296
12620TIP3   OH259350   6.517   5.100   2.741 -0.6135 -0.1665  0.5333
12620TIP3    H159351   6.574   5.139   2.675  0.4140 -1.7037  0.4809
12620TIP3    H259352   6.455   5.046   2.691 -0.9284  0.0112  0.7247
12621TIP3   OH259353   0.563   4.685  14.059  0.0466  0.3894 -0.1568
12621TIP3    H159354   0.505   4.727  13.996  0.4582  1.9349  0.4602
12621TIP3    H259355   0.607   4.616  14.008 -1.7908 -0.3676 -0.7905
12622TIP3   OH259356   6.367   1.903   3.737 -0.3918  0.4335 -0.5566
12622TIP3    H159357   6.282   1.948   3.737 -0.9060 -0.3381  1.9673
12622TIP3    H259358   6.345   1.811   3.754  0.9190  0.2113  0.0879
12623TIP3   OH259359   5.152   1.417  16.493  0.0850 -0.1089  0.2246
12623TIP3    H159360   5.141   1.498  16.542  0.4278 -1.3747  2.5471
12623TIP3    H259361   5.069   1.404  16.447 -0.2859  1.0868  0.5454
12624TIP3   OH259362   5.932   2.679  11.531 -0.2380  0.9129 -0.2291
12624TIP3    H159363   5.868   2.642  11.470  0.5758  0.6666 -0.9717
12624TIP3    H259364   5.937   2.615  11.602 -0.6595  0.8272 -0.2724
12625TIP3   OH259365   3.679   2.317  11.438  0.5386  0.7177 -0.0967
12625TIP3    H159366   3.722   2.275  11.364 -0.1878 -0.5394  0.1611
12625TIP3    H259367   3.666   2.407  11.410  1.0832  0.4840 -1.1475
12626TIP3   OH259368   2.644   6.732  17.311 -0.3921 -0.3206  1.2612
12626TIP3    H159369   2.684   6.819  17.317 -1.0802  0.2421 -1.1422
12626TIP3    H259370   2.689   6.690  17.238 -1.2744 -1.2965  1.2525
12627TIP3   OH259371   2.502   1.142  11.293  0.2543  0.0305  0.1857
12627TIP3    H159372   2.452   1.112  11.369 -0.1329 -0.1795 -0.1502
12627TIP3    H259373   2.531   1.062  11.250 -2.3796 -0.0040 -1.7851
12628TIP3   OH259374   0.356   6.443   1.927  0.0291 -0.2513 -0.3766
12628TIP3    H159375   0.351   6.431   1.832 -1.5331  0.9764 -0.4915
12628TIP3    H259376   0.441   6.485   1.941  1.4537 -2.7389 -0.9013
12629TIP3   OH259377   2.276   1.117   1.302 -0.5023 -0.1227  0.0140
12629TIP3    H159378   2.302   1.184   1.364 -0.8122 -0.0221  0.0384
12629TIP3    H259379   2.201   1.074   1.343 -0.8281  0.0681 -0.3687
12630TIP3   OH259380   5.000   2.706   5.569  0.1497 -0.2325 -0.2610
12630TIP3    H159381   4.982   2.720   5.476 -0.5788 -2.0578 -0.4377
12630TIP3    H259382   4.958   2.779   5.613  0.3308  0.5451 -1.3515
12631TIP3   OH259383   3.928   1.586  13.143  0.0648  0.4869  0.1099
12631TIP3    H159384   3.875   1.529  13.199  0.4608  0.7717  0.7930
12631TIP3    H259385   3.932   1.669  13.191  0.4596  0.7166 -0.3165
12632TIP3   OH259386   5.340   6.008   5.761  0.2136  0.4439  0.5372
12632TIP3    H159387   5.358   6.078   5.697  0.5277 -0.2337 -0.1299
12632TIP3    H259388   5.417   5.952   5.757 -1.3018 -1.6889 -1.2640
12633TIP3   OH259389   3.068   3.833  12.142 -0.2839  0.3053  0.0412
12633TIP3    H159390   3.141   3.784  12.179 -0.3931 -1.3078 -1.7645
12633TIP3    H259391   3.104   3.921  12.127  1.0082 -0.2008  0.0536
12634TIP3   OH259392   4.375   2.833   2.694  0.5231  1.0902 -0.3656
12634TIP3    H159393   4.322   2.846   2.772 -1.5667 -1.0461 -1.2822
12634TIP3    H259394   4.418   2.749   2.708  2.0570  1.8234 -0.5294
12635TIP3   OH259395   3.779   1.161  15.373 -0.1478  0.3816 -0.3516
12635TIP3    H159396   3.769   1.256  15.379  0.2374  0.4474 -0.7084
12635TIP3    H259397   3.809   1.134  15.460  1.7949  0.8606 -0.8221
12636TIP3   OH259398   6.661   2.253  11.219 -0.3925  0.5585 -0.6384
12636TIP3    H159399   6.680   2.191  11.149 -0.5762  0.3461 -0.5029
12636TIP3    H259400   6.738   2.250  11.276 -0.8452 -0.3589 -0.0483
12637TIP3   OH259401   3.053   2.524   2.033 -0.2414 -0.3281 -0.1746
12637TIP3    H159402   2.978   2.488   1.985 -1.8191  0.2956  1.6639
12637TIP3    H259403   3.035   2.618   2.038  0.8195 -0.1239  0.0723
12638TIP3   OH259404   5.325   5.910  13.983  0.5033  0.2597  0.2516
12638TIP3    H159405   5.315   5.897  14.078  0.8158 -0.6433  0.1674
12638TIP3    H259406   5.253   5.861  13.944  0.1937  0.8851  0.0290
12639TIP3   OH259407   6.737   3.283  14.655  0.8940 -0.0919 -0.3572
12639TIP3    H159408   6.674   3.295  14.584 -0.9343  0.6833  1.2979
12639TIP3    H259409   6.686   3.299  14.735  2.9714 -0.4667  1.1189
12640TIP3   OH259410   5.085   3.040  13.297 -0.0627  0.4108  0.8696
12640TIP3    H159411   5.151   2.972  13.305  0.2965  0.4210 -1.3600
12640TIP3    H259412   5.023   3.023  13.369  1.0130 -1.0958  1.4783
12641TIP3   OH259413   3.760   1.431   3.081 -0.1418 -0.5563 -0.3846
12641TIP3    H159414   3.718   1.494   3.023  0.0165  0.1344  0.2318
12641TIP3    H259415   3.805   1.485   3.146 -1.2731 -1.2808  1.0822
12642TIP3   OH259416   5.831   3.403   0.123  0.1275  0.5209 -0.0788
12642TIP3    H159417   5.749   3.368   0.158  0.2911 -0.5082 -0.6805
12642TIP3    H259418   5.897   3.377   0.186 -0.0383  1.7168  0.6270
12643TIP3   OH259419   1.012   4.608   2.229  0.4824 -0.3577 -0.2201
12643TIP3    H159420   0.929   4.598   2.275 -0.1106  0.6838 -1.0094
12643TIP3    H259421   0.999   4.565   2.145  1.2126 -1.3638  0.1648
12644TIP3   OH259422   2.856   0.847   0.268  0.0254  0.1739  0.0683
12644TIP3    H159423   2.800   0.771   0.257 -0.3610  0.5969 -0.9274
12644TIP3    H259424   2.942   0.819   0.235 -0.6771  0.8605 -2.5801
12645TIP3   OH259425   1.512   4.700  15.035  0.1434  0.4669  0.2160
12645TIP3    H159426   1.479   4.778  14.991  1.6478  0.8190 -0.3793
12645TIP3    H259427   1.448   4.632  15.015 -0.7024  1.3207 -0.0577
12646TIP3   OH259428   2.999   3.591  11.944 -0.9450  0.2777  0.4920
12646TIP3    H159429   2.924   3.561  11.995 -0.3434  1.4637  2.1640
12646TIP3    H259430   3.038   3.661  11.997  1.1488 -0.0748 -0.4805
12647TIP3   OH259431   1.116   3.831   0.146 -0.0176  0.2517  0.3418
12647TIP3    H159432   1.188   3.857   0.203 -0.1796  1.0171  0.1976
12647TIP3    H259433   1.038   3.836   0.202  0.0708 -1.0059  0.6282
12648TIP3   OH259434   0.836   6.511  16.393 -0.7119 -0.1593  0.0979
12648TIP3    H159435   0.860   6.474  16.478 -0.2902 -0.4860 -0.1555
12648TIP3    H259436   0.758   6.462  16.367 -0.4503 -0.5222 -0.0067
12649TIP3   OH259437   2.585   5.300  16.423  0.3531 -0.4420 -0.2615
12649TIP3    H159438   2.492   5.289  16.402  0.4324  2.8748 -3.3695
12649TIP3    H259439   2.627   5.222  16.386 -0.9335 -0.4988 -1.7071
12650TIP3   OH259440   1.998   5.106   0.754  0.5508 -0.1769 -0.5847
12650TIP3    H159441   2.076   5.122   0.702  0.3930 -0.8647 -1.0400
12650TIP3    H259442   1.927   5.148   0.705  0.5598  0.0568 -0.4009
12651TIP3   OH259443   0.616   5.060  13.123 -0.5657 -0.2713  0.1287
12651TIP3    H159444   0.636   4.973  13.088  0.6601 -0.1985  0.6103
12651TIP3    H259445   0.568   5.104  13.053  0.6379 -0.6064 -0.9285
12652TIP3   OH259446   4.741   3.870   1.677 -0.0034 -0.3067  0.0991
12652TIP3    H159447   4.752   3.954   1.722 -1.4957  0.1323 -0.2968
12652TIP3    H259448   4.829   3.848   1.646  0.1028  2.3128 -1.8794
12653TIP3   OH259449   2.560   0.990   2.706 -0.1713  0.2122 -0.0396
12653TIP3    H159450   2.565   0.932   2.629  1.0875  1.0740 -0.6246
12653TIP3    H259451   2.546   1.077   2.669  1.2257  0.7514  0.6442
12654TIP3   OH259452   5.911   2.012   2.474 -0.0751  0.0963 -0.6271
12654TIP3    H159453   5.905   1.923   2.509  1.0744 -0.5116 -1.8987
12654TIP3    H259454   6.000   2.040   2.497 -0.3501  0.8325 -0.4436
12655TIP3   OH259455   0.067   0.618   3.105  1.1092  0.6048  0.3847
12655TIP3    H159456   0.054   0.656   3.018  0.9336 -0.2228  0.0402
12655TIP3    H259457   0.027   0.531   3.099  0.3426  0.8628  1.5522
12656TIP3   OH259458   3.314   5.716  16.517 -0.0366 -0.2497  0.4521
12656TIP3    H159459   3.287   5.642  16.462  0.6561 -0.3576  0.2432
12656TIP3    H259460   3.376   5.764  16.463 -1.0929  0.9680  0.2723
12657TIP3   OH259461   0.536   3.431  15.082  0.3683  0.1167  0.3777
12657TIP3    H159462   0.581   3.350  15.057 -0.0401 -0.7467  2.2437
12657TIP3    H259463   0.447   3.420  15.047  0.7224  0.4278 -0.6318
12658TIP3   OH259464   0.555   5.440   5.477  0.4940  0.3600  0.7717
12658TIP3    H159465   0.488   5.508   5.476  0.1138  0.0522 -1.6003
12658TIP3    H259466   0.539   5.392   5.558 -1.2942  1.1274  0.9222
12659TIP3   OH259467   1.645   3.735  10.452  0.2989 -0.3493 -0.3157
12659TIP3    H159468   1.728   3.768  10.486 -0.2056  1.5104 -0.7544
12659TIP3    H259469   1.589   3.813  10.446 -1.8866 -1.6844  1.0860
12660TIP3   OH259470   4.866   0.292  11.571 -0.3392  0.1181  0.4730
12660TIP3    H159471   4.840   0.222  11.632 -0.9063  0.2813  0.4277
12660TIP3    H259472   4.960   0.279  11.558 -0.3003 -0.2017  1.0231
12661TIP3   OH259473   6.140   6.723   4.757  0.1935 -0.3593 -0.4500
12661TIP3    H159474   6.083   6.676   4.817  0.9628  0.1035  0.6832
12661TIP3    H259475   6.214   6.664   4.743 -0.6013 -1.0368 -2.0597
12662TIP3   OH259476   3.665   3.053  13.212  0.2751 -0.3086  0.5360
12662TIP3    H159477   3.576   3.072  13.184  0.1642  1.5190  1.8929
12662TIP3    H259478   3.676   3.104  13.293  1.6674 -2.5726  1.8885
12663TIP3   OH259479   3.734   3.579   3.876 -0.3114 -0.1738 -0.2083
12663TIP3    H159480   3.794   3.528   3.821  0.5293 -0.8621  1.2714
12663TIP3    H259481   3.653   3.529   3.876 -0.5136  0.1288 -1.2508
12664TIP3   OH259482   1.010   0.450   2.143  0.4009  0.7526  0.6222
12664TIP3    H159483   1.048   0.411   2.222  0.1785 -0.7573  0.0040
12664TIP3    H259484   1.086   0.472   2.089  0.5011  0.1274  0.4974
12665TIP3   OH259485   2.468   1.898  12.904  0.0540 -0.1478 -0.4617
12665TIP3    H159486   2.396   1.961  12.904 -1.4262 -1.7596 -0.8579
12665TIP3    H259487   2.542   1.945  12.942 -1.6613  1.0604  1.5687
12666TIP3   OH259488   6.478   5.520  16.606  0.0611 -0.1362  0.0521
12666TIP3    H159489   6.495   5.579  16.533  0.6834  0.7198  0.8610
12666TIP3    H259490   6.511   5.435  16.577  2.1984  0.6285  0.0645
12667TIP3   OH259491   3.738   1.367  17.123 -0.1059 -0.2194 -0.0737
12667TIP3    H159492   3.812   1.426  17.110  0.8609 -1.5727 -1.0168
12667TIP3    H259493   3.760   1.315  17.200 -0.9228  0.5636  0.7148
12668TIP3   OH259494   0.416   0.293  14.579  0.5053  0.0526 -0.4048
12668TIP3    H159495   0.452   0.338  14.655 -0.5946 -1.3394  1.0070
12668TIP3    H259496   0.327   0.328  14.570  0.6086  0.1656 -1.0224
12669TIP3   OH259497   6.530   2.057   1.713 -0.3320  0.5514  1.0183
12669TIP3    H159498   6.562   1.984   1.660  0.8897  2.6283 -1.3324
12669TIP3    H259499   6.572   2.045   1.798  2.6551  0.3162 -0.3618
12670TIP3   OH259500   6.189   3.302  15.460 -0.3596 -0.8165  0.6825
12670TIP3    H159501   6.261   3.362  15.479 -1.7217  1.5529 -1.0971
12670TIP3    H259502   6.211   3.266  15.374 -0.0075 -2.2032  1.3361
12671TIP3   OH259503   6.657   6.119  16.269  0.4476 -0.8380  0.1688
12671TIP3    H159504   6.714   6.150  16.340 -0.1180 -0.0111  0.2678
12671TIP3    H259505   6.660   6.023  16.278  0.1095 -0.7467  1.5375
12672TIP3   OH259506   3.288   3.109   3.211 -0.2250 -0.7674  0.7047
12672TIP3    H159507   3.349   3.039   3.189 -0.4656 -0.8132  0.1653
12672TIP3    H259508   3.219   3.103   3.144 -0.3789 -0.1767  0.8022
12673TIP3   OH259509   1.819   3.267   2.576 -0.0359 -0.2809 -0.0522
12673TIP3    H159510   1.779   3.304   2.655 -0.5346  0.2854 -0.5558
12673TIP3    H259511   1.764   3.300   2.505  0.3198 -0.9074 -0.6224
12674TIP3   OH259512   1.930   6.059   0.907 -0.3882 -0.1070  0.5258
12674TIP3    H159513   1.929   5.963   0.917 -0.5013 -0.0979  0.6066
12674TIP3    H259514   1.918   6.092   0.995 -0.9318 -0.0224  0.4209
12675TIP3   OH259515   0.155   2.425   2.973  0.2775  0.4850 -0.1489
12675TIP3    H159516   0.161   2.341   3.019  2.5415  0.6329 -0.0385
12675TIP3    H259517   0.236   2.430   2.922 -0.3998  2.0521 -1.1370
12676TIP3   OH259518   6.181   3.908   3.392 -0.1441  0.1531 -0.4637
12676TIP3    H159519   6.219   3.823   3.413  0.1770  0.8396  1.9755
12676TIP3    H259520   6.251   3.971   3.411 -0.5613  1.0381 -1.7084
12677TIP3   OH259521   2.910   2.785  12.186 -0.1010 -0.0335 -0.3360
12677TIP3    H159522   2.941   2.831  12.264 -1.1333 -1.0444  0.7236
12677TIP3    H259523   2.954   2.828  12.113  0.7373  1.0827  0.7863
12678TIP3   OH259524   5.731   1.465  12.884 -0.2143 -0.5134  0.3191
12678TIP3    H159525   5.734   1.556  12.914  2.4065 -0.8814  1.4252
12678TIP3    H259526   5.708   1.414  12.962 -0.2854 -0.9029  0.0466
12679TIP3   OH259527   0.834   3.485  12.576  0.1468  0.2830 -1.2471
12679TIP3    H159528   0.809   3.571  12.607  1.2102  0.1257  0.1257
12679TIP3    H259529   0.832   3.429  12.653  2.8424 -0.1311 -1.3530
12680TIP3   OH259530   4.789   0.585   0.096  0.2945 -0.2034  0.2438
12680TIP3    H159531   4.829   0.626   0.019 -0.8761  4.8901  2.0192
12680TIP3    H259532   4.719   0.530   0.059  1.4403 -0.0818 -2.3651
12681TIP3   OH259533   5.514   3.316  12.316  0.2224  0.2337 -0.4616
12681TIP3    H159534   5.578   3.260  12.273 -0.0346  0.4704 -1.1608
12681TIP3    H259535   5.526   3.298  12.410  0.9653 -0.0852 -0.6106
12682TIP3   OH259536   3.218   3.117   2.575 -0.0467  0.2587 -0.3430
12682TIP3    H159537   3.274   3.186   2.539  1.4212 -1.1055 -0.8289
12682TIP3    H259538   3.279   3.058   2.619 -1.1934 -0.9513 -0.3256
12683TIP3   OH259539   1.493   5.248  11.093  0.4330  0.0799 -0.3042
12683TIP3    H159540   1.526   5.285  11.012 -3.0392  2.0554 -1.0174
12683TIP3    H259541   1.481   5.322  11.151 -1.8138 -0.5581  0.1469
12684TIP3   OH259542   0.862   2.969  11.746  0.3554 -0.0652 -0.2536
12684TIP3    H159543   0.877   2.875  11.742 -1.4594 -0.3578 -2.0459
12684TIP3    H259544   0.779   2.979  11.792 -1.1722  0.3204 -2.8615
12685TIP3   OH259545   2.239   6.030  17.124  0.0124 -0.1253 -0.3198
12685TIP3    H159546   2.214   6.068  17.208 -0.9914  0.4953 -0.8772
12685TIP3    H259547   2.291   5.952  17.147 -0.0549  0.1603  0.8565
12686TIP3   OH259548   2.908   2.149   3.574 -0.7857 -0.0891  0.2956
12686TIP3    H159549   2.948   2.138   3.660 -1.8004 -2.0048  0.5742
12686TIP3    H259550   2.885   2.060   3.546  1.0011  0.2485 -2.7208
12687TIP3   OH259551   2.732   4.947  16.688  0.0820  0.4882  0.5680
12687TIP3    H159552   2.672   4.913  16.622  1.8184 -0.7471 -0.4770
12687TIP3    H259553   2.718   4.891  16.764  0.8087 -0.6861 -0.1299
12688TIP3   OH259554   2.022   4.339   2.885  0.1269 -0.5983  0.1106
12688TIP3    H159555   2.097   4.371   2.935 -1.0040  0.4149  1.2109
12688TIP3    H259556   1.969   4.417   2.867 -1.3380 -1.4544  0.5294
12689TIP3   OH259557   1.857   0.940  13.574 -0.3799  0.0660  0.2891
12689TIP3    H159558   1.835   1.000  13.646 -1.2116  1.3083 -0.9428
12689TIP3    H259559   1.835   0.989  13.495  0.4560 -1.2873 -0.8244
12690TIP3   OH259560   5.495   6.447  12.941  0.0518  0.1139 -0.0866
12690TIP3    H159561   5.558   6.518  12.930 -1.5355  1.2642 -2.7961
12690TIP3    H259562   5.529   6.376  12.885 -0.1290  0.0555 -0.1223
12691TIP3   OH259563   5.801   6.586  16.729 -0.2479 -0.1149  0.1891
12691TIP3    H159564   5.891   6.586  16.698 -1.3837 -0.3453 -3.6218
12691TIP3    H259565   5.761   6.662  16.687 -1.8708 -0.0310  1.7549
12692TIP3   OH259566   4.222   0.108  12.553  0.2447 -0.6371  0.6465
12692TIP3    H159567   4.288   0.038  12.549  1.7651  0.6324  2.0927
12692TIP3    H259568   4.166   0.092  12.477  1.8531 -2.1172 -0.3096
12693TIP3   OH259569   4.779   5.127   3.213  0.4279 -0.5285 -0.0836
12693TIP3    H159570   4.774   5.060   3.145 -3.5167 -1.2572  0.6735
12693TIP3    H259571   4.794   5.079   3.294  0.8978 -0.1021  0.0911
12694TIP3   OH259572   6.540   2.911  12.911  0.7522  0.1247 -0.3438
12694TIP3    H159573   6.609   2.865  12.864 -0.4053 -1.0284 -0.9828
12694TIP3    H259574   6.467   2.849  12.914  0.3538  0.6244  1.9224
12695TIP3   OH259575   2.512   3.652   1.661  0.1081 -0.4043 -0.0324
12695TIP3    H159576   2.494   3.560   1.642 -1.0190 -0.0002 -1.0183
12695TIP3    H259577   2.429   3.687   1.692  0.7964  0.0462  1.4224
12696TIP3   OH259578   4.421   4.209  15.970 -0.3064 -0.4235  0.4825
12696TIP3    H159579   4.493   4.272  15.963 -0.7318  0.1132  0.8624
12696TIP3    H259580   4.343   4.263  15.984 -0.4219 -1.0841  2.8182
12697TIP3   OH259581   1.424   3.431   3.202  0.0196 -0.2793  0.0158
12697TIP3    H159582   1.413   3.338   3.218  2.0454 -0.2084  2.4854
12697TIP3    H259583   1.398   3.473   3.284  2.5610  0.9695  0.2901
12698TIP3   OH259584   1.002   0.380  13.787 -0.2525  0.2091 -0.4243
12698TIP3    H159585   1.055   0.448  13.829 -1.3058 -1.1624  3.6092
12698TIP3    H259586   1.055   0.301  13.794 -2.2973 -1.0519  3.0911
12699TIP3   OH259587   0.197   0.380   5.409 -0.1150 -0.3725  0.5231
12699TIP3    H159588   0.227   0.294   5.379 -2.0942 -0.5363 -1.1651
12699TIP3    H259589   0.206   0.377   5.504  0.6973 -2.0878  0.4275
12700TIP3   OH259590   0.386   5.638   0.702  0.2332 -0.4980 -0.0655
12700TIP3    H159591   0.415   5.680   0.620 -0.1853  1.6789  0.8279
12700TIP3    H259592   0.467   5.605   0.742  0.8639  1.1191  0.0587
12701TIP3   OH259593   4.799   3.577  12.221  0.2320 -0.1254  0.0779
12701TIP3    H159594   4.760   3.493  12.243 -2.0704  0.9200  0.2488
12701TIP3    H259595   4.730   3.623  12.172  0.3831  2.6724  2.2859
12702TIP3   OH259596   3.055   1.881   2.322 -0.2744  0.2541  0.3224
12702TIP3    H159597   3.013   1.943   2.381  1.7118  1.5385  0.4597
12702TIP3    H259598   3.114   1.934   2.268  2.9657 -1.6285  1.7366
12703TIP3   OH259599   3.670   0.151  12.136  0.5516  0.3729 -0.1637
12703TIP3    H159600   3.659   0.061  12.106  1.4119  0.0740  0.3743
12703TIP3    H259601   3.698   0.142  12.227  0.2356  1.1992  0.0222
12704TIP3   OH259602   6.755   1.320   4.787  0.4355 -0.2361 -0.3042
12704TIP3    H159603   6.761   1.235   4.743 -0.9136 -0.1486 -0.6911
12704TIP3    H259604   6.830   1.322   4.846  1.3298 -1.0669 -1.3804
12705TIP3   OH259605   5.845   4.865   4.451 -0.2678 -0.6559  0.5031
12705TIP3    H159606   5.876   4.837   4.365 -1.1362 -1.3710  0.4096
12705TIP3    H259607   5.822   4.784   4.496 -1.3964 -0.1992  0.7831
12706TIP3   OH259608   1.228   3.913  12.665 -0.4124 -0.0355  0.1883
12706TIP3    H159609   1.307   3.938  12.616 -0.6317 -1.2374 -0.8280
12706TIP3    H259610   1.222   3.818  12.654 -2.5612  0.1462 -0.6311
12707TIP3   OH259611   5.504   4.212   5.332  0.4359 -0.5447  0.5525
12707TIP3    H159612   5.419   4.247   5.361 -2.5643 -2.7396 -4.3579
12707TIP3    H259613   5.526   4.263   5.254  2.2467 -1.7919  0.1858
12708TIP3   OH259614   1.846   2.155  14.348 -0.3242  0.3257  0.0028
12708TIP3    H159615   1.787   2.130  14.419  0.2985 -0.2358  0.3375
12708TIP3    H259616   1.788   2.178  14.275 -1.0442 -3.0611 -0.6916
12709TIP3   OH259617   3.182   6.443  17.005 -0.5097  0.0596 -0.1617
12709TIP3    H159618   3.151   6.458  16.916 -0.5231  0.5251 -0.0804
12709TIP3    H259619   3.164   6.525  17.051 -1.1420 -0.4094  0.4527
12710TIP3   OH259620   2.199   0.285   5.640  0.4620  0.4956  0.2182
12710TIP3    H159621   2.287   0.311   5.615  0.3609  0.7725  0.1492
12710TIP3    H259622   2.212   0.226   5.715  0.6290  1.9774  1.4106
12711TIP3   OH259623   0.628   6.583   2.839  0.6637 -0.0303 -0.5740
12711TIP3    H159624   0.570   6.532   2.782 -0.7526 -0.3868  1.0787
12711TIP3    H259625   0.571   6.648   2.880  1.7394  0.5788  0.0125
12712TIP3   OH259626   4.455   3.130  11.612 -0.4323  0.8191 -0.4198
12712TIP3    H159627   4.401   3.058  11.646  0.1867  0.1868 -0.7725
12712TIP3    H259628   4.544   3.108  11.637 -0.1255  1.0178 -1.3023
12713TIP3   OH259629   6.032   0.304   3.492 -0.2450 -0.2036  0.0888
12713TIP3    H159630   6.047   0.224   3.543  2.7510 -0.8648 -1.6191
12713TIP3    H259631   6.118   0.343   3.482 -1.4943  2.8622  0.0897
12714TIP3   OH259632   1.490   0.066  13.939 -0.1948 -0.7112  0.0443
12714TIP3    H159633   1.473   0.133  14.005  1.6832 -1.7351  1.6688
12714TIP3    H259634   1.466  -0.016  13.981  1.3763 -1.4192 -0.3562
12715TIP3   OH259635   5.018   4.108  14.112  0.5204 -0.1092 -0.2577
12715TIP3    H159636   4.939   4.064  14.078  0.4693  1.1130 -1.8320
12715TIP3    H259637   5.091   4.056  14.078  0.4301  0.1063 -0.7886
12716TIP3   OH259638   3.664   0.389  11.714 -0.5115 -0.1168  0.3517
12716TIP3    H159639   3.644   0.301  11.685 -0.5351 -0.0346  0.1198
12716TIP3    H259640   3.738   0.417  11.659  1.1615 -0.9039  2.0533
12717TIP3   OH259641   6.404   3.464   5.323  0.1807  0.2696 -0.4091
12717TIP3    H159642   6.406   3.483   5.417  1.3035  0.0379 -0.3659
12717TIP3    H259643   6.490   3.492   5.292 -0.4559  1.0193 -1.5123
12718TIP3   OH259644   5.520   0.560  16.348 -0.1528  0.3217  0.8610
12718TIP3    H159645   5.523   0.642  16.298  1.3811  0.3119  0.8917
12718TIP3    H259646   5.511   0.491  16.282 -1.8249  0.4976  0.8526
12719TIP3   OH259647   3.976   2.694   4.790  0.2220 -0.4704 -0.9066
12719TIP3    H159648   3.888   2.679   4.756  0.3680 -0.9202 -1.0942
12719TIP3    H259649   3.980   2.789   4.804 -0.8437 -0.6085  0.6581
12720TIP3   OH259650   6.345   0.674   6.029  0.4531  0.0375  0.3578
12720TIP3    H159651   6.303   0.745   6.077 -0.3031  0.3252 -0.6755
12720TIP3    H259652   6.439   0.684   6.046  0.3646  1.3645  0.1338
12721TIP3   OH259653   0.168   6.296   5.397 -0.2593 -0.2520 -0.5140
12721TIP3    H159654   0.102   6.306   5.466 -1.4184 -1.3600 -1.4135
12721TIP3    H259655   0.195   6.205   5.402  0.4021 -0.0870 -0.8902
12722TIP3   OH259656   4.868   2.602  13.826 -0.6546  0.2345  0.1088
12722TIP3    H159657   4.957   2.600  13.792 -0.3107  0.9221  0.9374
12722TIP3    H259658   4.875   2.567  13.915 -1.3125 -0.2653 -0.0270
12723TIP3   OH259659   1.611   1.737  15.371 -0.0049 -0.6739  0.2182
12723TIP3    H159660   1.683   1.703  15.425  2.1019  0.9022 -1.3894
12723TIP3    H259661   1.605   1.830  15.395 -0.8455 -0.5658 -0.3691
12724TIP3   OH259662   3.474   6.553  15.041 -0.1857  0.2191 -0.4415
12724TIP3    H159663   3.467   6.632  15.093 -0.5325  1.6088 -2.4980
12724TIP3    H259664   3.442   6.578  14.954 -0.1750 -2.1361 -1.1948
12725TIP3   OH259665   2.439   2.412  12.522 -0.2596  0.1406  0.3444
12725TIP3    H159666   2.410   2.502  12.534 -0.6497 -0.0958  1.3214
12725TIP3    H259667   2.528   2.410  12.556 -0.7620 -0.1444  1.7248
12726TIP3   OH259668   6.236   3.447   4.358  0.3012 -0.5113  0.1377
12726TIP3    H159669   6.254   3.513   4.291  1.0013 -0.2919  0.5406
12726TIP3    H259670   6.196   3.374   4.309 -1.9431  0.7820 -0.1140
12727TIP3   OH259671   1.945   5.767  14.382  0.6113 -1.0995  0.4100
12727TIP3    H159672   1.854   5.789  14.364  1.2366  0.1758 -1.5390
12727TIP3    H259673   1.993   5.796  14.304  2.7865 -1.1134  1.6527
12728TIP3   OH259674   6.624   4.893   3.533  0.3987  0.0948  0.5613
12728TIP3    H159675   6.631   4.815   3.478  3.4754  0.9134 -0.4125
12728TIP3    H259676   6.590   4.860   3.617 -0.6222 -1.8392 -0.5460
12729TIP3   OH259677   1.845   1.465  13.866  0.0600 -0.5497 -0.3952
12729TIP3    H159678   1.868   1.505  13.949  0.7670 -0.9216 -0.4094
12729TIP3    H259679   1.836   1.539  13.805  1.0107 -0.3855 -0.3400
12730TIP3   OH259680   5.057   0.912  12.858 -0.7210 -0.0312  0.5630
12730TIP3    H159681   4.989   0.932  12.794 -0.0896 -0.1733 -0.1651
12730TIP3    H259682   5.020   0.841  12.911 -1.0966 -0.1797  0.1057
12731TIP3   OH259683   2.564   3.624  10.100 -0.0285 -0.2094 -0.5312
12731TIP3    H159684   2.508   3.687  10.055  1.1276  1.2108 -0.0575
12731TIP3    H259685   2.611   3.676  10.165 -0.2145 -1.8641  0.9983
12732TIP3   OH259686   1.229   1.421   1.361 -0.2309  0.0118  0.1806
12732TIP3    H159687   1.161   1.489   1.353 -0.3001 -0.0881 -0.0602
12732TIP3    H259688   1.245   1.416   1.456 -1.5390 -0.9278  0.3748
12733TIP3   OH259689   0.826   3.418  16.132  0.2278  0.4473 -0.5112
12733TIP3    H159690   0.848   3.490  16.192  0.7038  1.0834 -1.4195
12733TIP3    H259691   0.909   3.395  16.091  0.1026 -0.7406 -0.1289
12734TIP3   OH259692   0.079   5.691  13.521 -0.1751 -0.8590  0.4119
12734TIP3    H159693   0.166   5.695  13.562  0.1270 -1.0379 -0.2095
12734TIP3    H259694   0.094   5.648  13.437 -0.8161 -0.6028  0.1640
12735TIP3   OH259695   5.104   4.909  16.622  0.2901 -0.2846 -0.3656
12735TIP3    H159696   5.099   4.841  16.689  0.4864 -1.2760 -1.3283
12735TIP3    H259697   5.185   4.890  16.574 -0.7057 -0.6748 -1.9744
12736TIP3   OH259698   4.908   6.127   3.221  0.0093 -0.0805 -0.0867
12736TIP3    H159699   4.849   6.068   3.175  0.6537 -0.0609 -0.9775
12736TIP3    H259700   4.871   6.214   3.207  0.2549 -0.0645 -0.6799
12737TIP3   OH259701   3.725   0.180   0.555 -0.3220  0.3342  0.0607
12737TIP3    H159702   3.766   0.266   0.552  0.1467  0.1199  0.2771
12737TIP3    H259703   3.631   0.198   0.543 -0.2654  0.8986  0.4418
12738TIP3   OH259704   5.865   4.200   3.664 -0.1693  0.2358  0.6627
12738TIP3    H159705   5.792   4.141   3.680  0.3118 -0.6291 -0.2060
12738TIP3    H259706   5.943   4.144   3.668  0.3320  0.8803  0.1942
12739TIP3   OH259707   1.252   3.352   1.032  0.0824  0.3379 -0.0267
12739TIP3    H159708   1.256   3.392   0.946  0.1440  1.0707  0.3120
12739TIP3    H259709   1.344   3.332   1.053  0.1299  0.7028  0.1183
12740TIP3   OH259710   4.953   4.213   3.718  0.6281  0.3742 -0.3004
12740TIP3    H159711   4.920   4.125   3.738  0.2720  0.6850  0.5176
12740TIP3    H259712   4.908   4.237   3.636  1.8072 -0.7549 -1.3156
12741TIP3   OH259713   1.490   3.450  14.667 -0.4178 -0.6718  0.3470
12741TIP3    H159714   1.404   3.409  14.660  0.3411 -2.2553 -0.3433
12741TIP3    H259715   1.539   3.393  14.727 -0.1064  0.6880  1.4182
12742TIP3   OH259716   1.130   1.796   4.010  0.4823  0.4594  0.4171
12742TIP3    H159717   1.055   1.751   3.970 -1.9726  2.8378  1.9418
12742TIP3    H259718   1.150   1.744   4.088 -0.4884  0.4382  0.6768
12743TIP3   OH259719   2.385   4.991   2.504 -0.3744  0.6440 -0.1282
12743TIP3    H159720   2.415   4.902   2.522  0.8544  1.0051 -0.3101
12743TIP3    H259721   2.435   5.018   2.427 -0.3969  1.6594  0.1934
12744TIP3   OH259722   3.208   3.590   2.063  0.3367  0.5420 -0.6678
12744TIP3    H159723   3.140   3.525   2.045 -0.3696  1.3247 -0.8724
12744TIP3    H259724   3.287   3.538   2.077  0.2008 -0.2807 -2.7007
12745TIP3   OH259725   1.997   0.758  16.446 -0.6455 -0.3921 -0.6915
12745TIP3    H159726   2.058   0.687  16.424  1.5563  0.2797  2.5178
12745TIP3    H259727   2.017   0.827  16.383  0.6798 -0.8569 -0.8108
12746TIP3   OH259728   6.024   2.171  14.077 -0.1126 -0.0969 -0.4308
12746TIP3    H159729   6.007   2.090  14.029  1.7864 -0.6039 -0.3140
12746TIP3    H259730   5.937   2.208  14.092 -1.0781 -2.3921  0.0464
12747TIP3   OH259731   6.105   5.095   5.365  0.7992 -0.0192  0.0396
12747TIP3    H159732   6.103   5.105   5.269 -1.9749 -4.8105 -0.7633
12747TIP3    H259733   6.180   5.039   5.382  0.8519  0.2123  0.5989
12748TIP3   OH259734   1.082   1.233   0.992 -0.3277  0.1617  0.0128
12748TIP3    H159735   1.140   1.201   1.062 -2.4722  0.7473  2.1900
12748TIP3    H259736   1.079   1.161   0.929  0.6049 -0.9944  1.2181
12749TIP3   OH259737   1.303   0.837   4.124  0.2155  0.3088  0.4516
12749TIP3    H159738   1.249   0.876   4.193 -2.4742  0.6808 -1.6606
12749TIP3    H259739   1.263   0.752   4.108 -0.0837  0.7679 -1.4658
12750TIP3   OH259740   4.475   1.056  11.275  0.2782  0.5937  0.1920
12750TIP3    H159741   4.492   1.122  11.208  0.3323  1.2403  0.8337
12750TIP3    H259742   4.462   0.975  11.226  0.4548  1.0306 -0.5899
12751TIP3   OH259743   5.150   3.423   2.707 -0.9864  0.4280 -0.5284
12751TIP3    H159744   5.064   3.464   2.707 -0.6259  1.2044 -0.6299
12751TIP3    H259745   5.173   3.415   2.800 -1.2862 -0.0301 -0.4954
12752TIP3   OH259746   2.605   1.222   3.652 -0.3305 -0.1881 -0.3465
12752TIP3    H159747   2.618   1.207   3.745 -2.3238 -1.2469 -0.1822
12752TIP3    H259748   2.625   1.138   3.611  0.1120  0.1491 -0.8316
12753TIP3   OH259749   0.072   3.883  15.012 -0.3463 -0.5176  0.1506
12753TIP3    H159750  -0.024   3.877  15.008 -0.3534 -0.2823 -0.0142
12753TIP3    H259751   0.096   3.825  15.084 -0.8597  2.0116  2.5055
12754TIP3   OH259752   0.004   2.664   2.812  0.0126 -0.3315 -0.1876
12754TIP3    H159753   0.095   2.662   2.843 -0.7109 -2.2265  2.1142
12754TIP3    H259754   0.011   2.656   2.717  2.2566  1.3674 -0.2527
12755TIP3   OH259755   1.861   2.547   5.458 -0.1104 -0.4150 -0.0709
12755TIP3    H159756   1.767   2.530   5.463 -0.1978  0.1127  0.1225
12755TIP3    H259757   1.886   2.516   5.371 -0.5336 -0.2184 -0.2658
12756TIP3   OH259758   6.158   5.107   9.948 -0.4033  0.1804  0.1321
12756TIP3    H159759   6.072   5.072   9.923 -1.6776  2.6250  0.7737
12756TIP3    H259760   6.170   5.079  10.039  0.0329 -1.0952 -0.2964
12757TIP3   OH259761   3.125   0.952  15.421  0.0545 -0.3668 -0.4592
12757TIP3    H159762   3.219   0.966  15.406  0.2972 -1.1220  0.3042
12757TIP3    H259763   3.120   0.910  15.507 -0.8446 -2.1323 -1.3316
12758TIP3   OH259764   2.238   5.793  12.586  0.1414  0.0943  0.1069
12758TIP3    H159765   2.255   5.878  12.546 -0.4870  0.7182  1.1265
12758TIP3    H259766   2.158   5.806  12.637 -0.9528 -1.5631 -1.0698
12759TIP3   OH259767   0.724   3.811  12.384  0.1750  0.3683 -0.3888
12759TIP3    H159768   0.714   3.733  12.328 -0.6284 -0.3272  0.6927
12759TIP3    H259769   0.687   3.785  12.468  1.8375  1.2196  0.6518
12760TIP3   OH259770   1.161   1.618  14.152  0.3446 -0.0025 -0.2008
12760TIP3    H159771   1.220   1.677  14.199 -1.1258 -0.4536  2.4687
12760TIP3    H259772   1.075   1.658  14.161 -0.6617 -2.2410  1.4586
12761TIP3   OH259773   5.834   6.770   3.830  0.5276 -0.8977 -0.7160
12761TIP3    H159774   5.881   6.786   3.912 -1.4533 -2.0543  0.7432
12761TIP3    H259775   5.878   6.694   3.792  0.3552 -1.4780  0.2150
12762TIP3   OH259776   6.477   0.912   3.599  0.3180  0.6531  0.6043
12762TIP3    H159777   6.411   0.958   3.651 -0.0385  2.0973 -1.0378
12762TIP3    H259778   6.534   0.981   3.566  0.4984 -0.2051 -0.9620
12763TIP3   OH259779   1.946   3.295  14.560 -0.1530  0.5795 -0.0856
12763TIP3    H159780   1.918   3.281  14.470  0.3169  0.3773 -0.2070
12763TIP3    H259781   2.028   3.245  14.567 -0.1221  0.6968  0.4138
12764TIP3   OH259782   6.622   1.729  16.460  0.1980 -0.4299 -0.0613
12764TIP3    H159783   6.706   1.683  16.457 -0.8394 -2.4029  0.1127
12764TIP3    H259784   6.563   1.677  16.406 -0.9348  0.9484 -0.2337
12765TIP3   OH259785   3.001   1.532   4.368 -0.4897  0.5857 -0.0653
12765TIP3    H159786   3.072   1.596   4.376 -0.3593  0.5569 -0.8653
12765TIP3    H259787   2.930   1.568   4.421  0.3893  0.2025  1.4195
12766TIP3   OH259788   5.627   0.474  14.854 -0.0198  0.2036 -0.3943
12766TIP3    H159789   5.694   0.406  14.846  0.7266  0.4918  2.3836
12766TIP3    H259790   5.544   0.427  14.848  0.3631 -0.3208 -2.6378
12767TIP3   OH259791   3.283   1.689  10.610 -0.2324  0.4953 -0.1476
12767TIP3    H159792   3.317   1.753  10.673 -0.6880 -1.4901  2.2775
12767TIP3    H259793   3.361   1.654  10.568  0.0944  1.7693 -0.6489
12768TIP3   OH259794   3.225   2.338   2.138  0.1751 -0.1289  0.0636
12768TIP3    H159795   3.292   2.330   2.070 -0.2013 -1.1143 -0.2007
12768TIP3    H259796   3.151   2.382   2.095  0.1685 -0.1938  0.0099
12769TIP3   OH259797   0.223   6.444   4.120  0.1019  0.1413  0.4816
12769TIP3    H159798   0.129   6.460   4.115  0.1091 -0.0955 -0.9093
12769TIP3    H259799   0.254   6.453   4.030  1.6135  1.3155  1.0779
12770TIP3   OH259800   6.626   0.485   0.495 -0.5282  0.4519 -0.1289
12770TIP3    H159801   6.542   0.455   0.528 -1.7605  2.4322 -1.2787
12770TIP3    H259802   6.667   0.529   0.569 -0.4345 -0.5976  0.4606
12771TIP3   OH259803   5.310   0.765   3.889  0.0303  0.1120 -0.1893
12771TIP3    H159804   5.263   0.729   3.964  0.6530 -0.3877 -0.0274
12771TIP3    H259805   5.363   0.692   3.856  0.2335  0.4942 -0.7329
12772TIP3   OH259806   2.180   5.723   1.890 -0.1578 -0.3541  0.5719
12772TIP3    H159807   2.130   5.641   1.889 -1.4921  0.4292  0.8058
12772TIP3    H259808   2.114   5.791   1.889  0.8716  0.7992 -2.4264
12773TIP3   OH259809   0.391   6.500   5.614 -0.3358  0.1263 -0.1205
12773TIP3    H159810   0.459   6.434   5.628  0.8709  1.0124 -1.4281
12773TIP3    H259811   0.332   6.490   5.688  0.0545 -2.0899 -0.0497
12774TIP3   OH259812   3.155   5.433   2.440 -0.8117  0.3205 -0.7003
12774TIP3    H159813   3.169   5.508   2.497  0.9299  0.1071 -0.8003
12774TIP3    H259814   3.186   5.461   2.354 -0.4931 -0.3783 -0.8233
12775TIP3   OH259815   5.616   3.252   2.175 -0.4249  0.1613 -0.4564
12775TIP3    H159816   5.636   3.160   2.156 -3.5243 -0.2023 -2.7212
12775TIP3    H259817   5.694   3.300   2.148  0.6264 -1.6542 -0.8166
12776TIP3   OH259818   1.982   4.966  15.547  0.0530  0.0990 -0.5119
12776TIP3    H159819   1.924   4.896  15.579  1.2521 -1.8477 -2.3430
12776TIP3    H259820   2.025   4.999  15.626 -1.9542  0.1397  0.6293
12777TIP3   OH259821   4.600   0.128   2.723  0.1086  0.0432  0.4587
12777TIP3    H159822   4.682   0.125   2.772  2.1338 -2.0487 -2.6369
12777TIP3    H259823   4.627   0.155   2.635 -2.4123 -1.3909 -0.8567
12778TIP3   OH259824   4.573   1.286   1.366 -0.3684 -0.5320 -0.1294
12778TIP3    H159825   4.500   1.224   1.372  0.9938 -2.6494 -2.9053
12778TIP3    H259826   4.547   1.347   1.297  0.7642 -1.9980 -1.9881
12779TIP3   OH259827   1.045   1.179  16.651  0.2340 -0.0867 -0.4040
12779TIP3    H159828   1.096   1.135  16.720  1.3547 -0.4819 -1.4568
12779TIP3    H259829   1.009   1.108  16.599 -0.4723  0.2192 -0.3347
12780TIP3   OH259830   3.162   2.711   5.581  0.1194 -0.1197  0.3126
12780TIP3    H159831   3.192   2.745   5.497  0.8984 -2.0272 -0.2321
12780TIP3    H259832   3.079   2.668   5.562  0.1570 -0.3038  0.5507
12781TIP3   OH259833   1.270   3.758  14.708 -0.0851 -0.7881 -0.6567
12781TIP3    H159834   1.255   3.774  14.802  0.1123  0.1582 -0.7780
12781TIP3    H259835   1.234   3.670  14.693 -1.5332 -0.3429 -0.0148
12782TIP3   OH259836   2.172   0.940   1.950  0.4608 -0.1450 -0.0206
12782TIP3    H159837   2.218   1.023   1.960  1.8224 -0.9430  0.5625
12782TIP3    H259838   2.141   0.918   2.038  2.4914 -1.5537  0.4076
12783TIP3   OH259839   5.063   1.962  14.037  0.3315 -0.1203  0.6730
12783TIP3    H159840   5.005   1.926  14.105  1.6065 -0.1035  1.8055
12783TIP3    H259841   5.093   1.886  13.989  0.0693 -0.2089  0.6439
12784TIP3   OH259842   1.304   1.265   1.957  0.2568 -0.0602  0.0347
12784TIP3    H159843   1.309   1.183   1.907  0.2470 -0.4212  0.6110
12784TIP3    H259844   1.395   1.288   1.974  0.2980  0.6463 -1.0660
12785TIP3   OH259845   1.388   2.185  16.293 -0.6359  0.3232 -0.0262
12785TIP3    H159846   1.307   2.236  16.294 -0.6725  0.2909  1.8865
12785TIP3    H259847   1.457   2.250  16.279 -0.7459  0.8351  1.6344
12786TIP3   OH259848   6.587   6.489  14.607 -0.1142  0.5708 -0.6684
12786TIP3    H159849   6.568   6.425  14.538 -1.0014  0.3683 -0.2484
12786TIP3    H259850   6.662   6.452  14.653 -0.7345 -0.2761 -0.3120
12787TIP3   OH259851   1.967   5.902   3.052 -0.3840 -0.2062  0.2449
12787TIP3    H159852   1.876   5.891   3.024 -0.6516 -1.2461  1.4278
12787TIP3    H259853   2.017   5.842   2.997  0.0755  2.3946 -2.4223
12788TIP3   OH259854   6.248   0.058   0.824  0.3905  0.3009 -0.1714
12788TIP3    H159855   6.207  -0.002   0.887 -0.2991 -1.0309 -1.8014
12788TIP3    H259856   6.336   0.071   0.857  0.3319 -1.0912  0.6175
12789TIP3   OH259857   0.743   0.622  13.126  0.3592  0.7956  0.0139
12789TIP3    H159858   0.707   0.629  13.214  1.5243  0.3745  0.5367
12789TIP3    H259859   0.808   0.552  13.132 -0.8504 -0.5511 -1.6299
12790TIP3   OH259860   4.961   6.092  16.959 -0.5197 -0.1222 -0.7101
12790TIP3    H159861   4.905   6.027  17.001 -0.3252  0.1837  0.0381
12790TIP3    H259862   5.038   6.098  17.017 -0.2880  0.3743 -1.0607
12791TIP3   OH259863   3.221   4.806  12.674  0.2438 -0.1804  0.8014
12791TIP3    H159864   3.206   4.871  12.743  1.1268 -0.9739  1.7766
12791TIP3    H259865   3.135   4.767  12.658 -0.4574  1.7057 -0.3392
12792TIP3   OH259866   3.935   2.332   5.020  0.0277 -0.0879  0.5130
12792TIP3    H159867   4.003   2.344   5.086  1.5032  3.4036 -1.3661
12792TIP3    H259868   3.868   2.396   5.041  0.4583  0.9920 -1.2007
12793TIP3   OH259869   2.624   6.521  11.204 -0.2565  0.2996 -0.1733
12793TIP3    H159870   2.617   6.557  11.293 -2.1448 -1.1518  0.3271
12793TIP3    H259871   2.577   6.584  11.149  0.0803  0.7033 -0.0080
12794TIP3   OH259872   6.413   1.893  17.154 -0.2613  0.1909  0.2032
12794TIP3    H159873   6.365   1.853  17.082 -3.3579 -0.6814  2.5336
12794TIP3    H259874   6.456   1.820  17.199  2.7860  0.8629 -1.3143
12795TIP3   OH259875   5.634   5.734   4.227 -0.1503 -0.2219 -0.4627
12795TIP3    H159876   5.710   5.689   4.265  1.1920  0.9250 -1.6591
12795TIP3    H259877   5.611   5.681   4.151  1.5460  1.1146 -1.9786
12796TIP3   OH259878   4.556   0.335   2.984  0.0852 -0.3231 -0.6180
12796TIP3    H159879   4.473   0.334   3.032  0.0623  0.1483 -0.6419
12796TIP3    H259880   4.540   0.392   2.909  0.0927 -1.1326 -1.2528
12797TIP3   OH259881   5.706   1.952   2.725 -0.3797  0.0125  0.4130
12797TIP3    H159882   5.741   1.873   2.685 -0.9500 -0.8550  1.5611
12797TIP3    H259883   5.653   1.921   2.798 -1.0377  1.4365  0.5867
12798TIP3   OH259884   2.815   0.597   4.349  0.0471 -0.0464 -0.4216
12798TIP3    H159885   2.742   0.626   4.293 -0.1718 -0.1604 -0.1970
12798TIP3    H259886   2.783   0.611   4.438  0.2423 -0.2454 -0.3213
12799TIP3   OH259887   4.367   6.497   5.466 -0.0437  0.6280 -0.0629
12799TIP3    H159888   4.343   6.414   5.424  1.8236  0.1022 -0.1750
12799TIP3    H259889   4.346   6.484   5.559 -0.8692  0.4793 -0.2665
12800TIP3   OH259890   5.008   2.699   2.263 -0.8017 -0.0241  0.4548
12800TIP3    H159891   4.919   2.707   2.229 -0.0410  0.3057 -1.5934
12800TIP3    H259892   5.009   2.756   2.340 -2.7574 -1.2259  1.4620
12801TIP3   OH259893   1.605   4.995  15.687  0.5184  0.3905  0.3675
12801TIP3    H159894   1.628   5.087  15.672  1.6755  0.4573  2.1949
12801TIP3    H259895   1.530   4.999  15.746 -2.3990  0.1181 -2.9798
12802TIP3   OH259896   4.001   6.514   3.382 -0.9112 -0.1373 -0.0375
12802TIP3    H159897   4.009   6.428   3.340  1.3104  0.9116 -1.9652
12802TIP3    H259898   4.043   6.502   3.467 -0.9474 -1.0322 -0.1282
12803TIP3   OH259899   5.002   5.525   4.350 -0.3859 -0.2001 -0.6859
12803TIP3    H159900   4.964   5.462   4.411 -0.0470  0.5019  0.2593
12803TIP3    H259901   5.068   5.572   4.401 -0.3862  0.6808 -1.4733
12804TIP3   OH259902   6.068   3.961  14.095  0.1769  0.1198 -0.6804
12804TIP3    H159903   6.162   3.945  14.085  0.4995  1.5841 -0.2566
12804TIP3    H259904   6.031   3.940  14.010  0.4877 -2.7816 -0.2206
12805TIP3   OH259905   0.315   3.537  15.598 -0.6497  0.5421 -0.0733
12805TIP3    H159906   0.365   3.607  15.641 -1.2966  0.7683  0.3249
12805TIP3    H259907   0.313   3.563  15.506  0.7718  0.0412 -0.2771
12806TIP3   OH259908   3.457   6.653  11.340 -0.1807 -0.2680  0.0227
12806TIP3    H159909   3.391   6.587  11.316 -1.2528  0.7497  0.0802
12806TIP3    H259910   3.541   6.612  11.319 -0.8340 -1.5503 -0.1779
12807TIP3   OH259911   3.581   0.916   4.263  0.5504  0.0913 -0.1729
12807TIP3    H159912   3.643   0.965   4.317  1.0068 -0.8136  0.1473
12807TIP3    H259913   3.550   0.847   4.320 -1.5368  1.1098 -0.0067
12808TIP3   OH259914   1.121   6.778   2.776  0.0104 -0.3812  0.1195
12808TIP3    H159915   1.096   6.815   2.691 -4.3446  1.5487  1.9224
12808TIP3    H259916   1.108   6.684   2.765 -3.5118  0.0524 -0.7260
12809TIP3   OH259917   4.784   0.781   0.801 -0.6383  0.1279 -0.1275
12809TIP3    H159918   4.816   0.858   0.753 -0.8537  1.2974  1.5279
12809TIP3    H259919   4.806   0.799   0.892 -1.1462 -1.5742  0.3606
12810TIP3   OH259920   2.606   0.088   3.444 -0.6824 -0.5225  0.0924
12810TIP3    H159921   2.636   0.054   3.528  0.8261  0.0994 -0.1524
12810TIP3    H259922   2.522   0.046   3.429 -1.3821 -0.0141  2.2933
12811TIP3   OH259923   5.594   1.509   6.321 -0.3746 -0.0957 -0.5718
12811TIP3    H159924   5.553   1.596   6.327 -1.6072 -0.6823 -0.2221
12811TIP3    H259925   5.686   1.525   6.343 -0.4911  1.1877 -0.9265
12812TIP3   OH259926   3.294   2.962   4.110  0.0840 -0.0418  0.3703
12812TIP3    H159927   3.388   2.971   4.097 -0.0505  1.3930  0.2341
12812TIP3    H259928   3.285   2.881   4.161  1.4017 -0.0778  0.5884
12813TIP3   OH259929   1.991   3.064  11.535 -0.3771  0.4132 -0.3036
12813TIP3    H159930   2.038   2.987  11.567 -0.7532 -0.1848 -1.1585
12813TIP3    H259931   1.990   3.054  11.440 -0.0155  1.7268 -0.4719
12814TIP3   OH259932   4.217   3.844  17.230 -0.0062 -0.2859 -0.0179
12814TIP3    H159933   4.125   3.821  17.220 -0.9616  3.1635 -0.5114
12814TIP3    H259934   4.258   3.823  17.146 -0.4004 -1.5059  0.0887
12815TIP3   OH259935   2.495   4.312   0.197  0.5853 -0.0907 -0.0694
12815TIP3    H159936   2.408   4.338   0.226  0.2160 -0.9995 -0.3329
12815TIP3    H259937   2.514   4.231   0.246  1.0731 -0.1644 -0.3732
12816TIP3   OH259938   1.070   0.540  12.384  0.2723  0.1715  0.1400
12816TIP3    H159939   1.107   0.533  12.296 -0.7677  0.4298 -0.3251
12816TIP3    H259940   0.976   0.529  12.372  0.2533 -1.6061  1.4361
12817TIP3   OH259941   5.102   4.084  17.141 -0.2194 -0.0684 -0.1659
12817TIP3    H159942   5.085   4.079  17.047 -0.3413 -0.7750 -0.1103
12817TIP3    H259943   5.106   3.993  17.170  0.5800  0.1290  0.3809
12818TIP3   OH259944   0.764   4.605  11.712 -0.1777 -0.3936 -0.5841
12818TIP3    H159945   0.703   4.640  11.777 -1.1434  0.4906 -1.9106
12818TIP3    H259946   0.803   4.529  11.755  0.0427  0.7791  1.4191
12819TIP3   OH259947   2.478   5.281   5.517  0.3418 -0.2042 -0.3258
12819TIP3    H159948   2.454   5.202   5.566  0.9295  0.2481  0.7196
12819TIP3    H259949   2.394   5.325   5.501 -0.0681 -1.3506 -1.5123
12820TIP3   OH259950   3.901   4.003   4.937  0.1682 -0.4434  0.8202
12820TIP3    H159951   3.895   3.994   5.032  0.0373  0.9947  0.9750
12820TIP3    H259952   3.955   4.081   4.924 -0.3447 -0.2523 -0.2661
12821TIP3   OH259953   3.771   2.506  12.510 -0.2577 -0.0510 -0.2471
12821TIP3    H159954   3.747   2.598  12.521  1.5301  0.5487 -0.9325
12821TIP3    H259955   3.745   2.464  12.592  0.5075  1.4519  0.8180
12822TIP3   OH259956   0.776   2.458  17.024  0.2744 -0.3922  0.2260
12822TIP3    H159957   0.832   2.402  16.969 -0.3813 -1.2657  0.4208
12822TIP3    H259958   0.806   2.442  17.113 -0.4181 -1.0502  0.3547
12823TIP3   OH259959   5.969   1.677  14.757 -0.0212  0.8311 -0.3632
12823TIP3    H159960   5.916   1.665  14.678 -0.1047  0.4303 -0.2499
12823TIP3    H259961   5.937   1.610  14.818  0.9639  0.2346 -0.4811
12824TIP3   OH259962   4.505   3.413   2.952  0.5314 -0.3172 -0.0235
12824TIP3    H159963   4.498   3.358   3.030  0.7119 -0.8866 -0.3997
12824TIP3    H259964   4.414   3.430   2.926  0.3475  2.3361  1.9697
12825TIP3   OH259965   0.788   3.530   6.256 -0.2578 -1.1587 -0.1238
12825TIP3    H159966   0.866   3.490   6.295 -0.1985 -1.0725 -0.1519
12825TIP3    H259967   0.721   3.462   6.260 -0.4637 -0.9267  0.7846
12826TIP3   OH259968   1.304   3.843   6.039 -0.0746  0.2271  0.0873
12826TIP3    H159969   1.315   3.747   6.036 -1.4567  0.0389  0.3705
12826TIP3    H259970   1.230   3.860   5.981  0.3267  1.1688 -0.1573
12827TIP3   OH259971   3.344   3.286   3.397  0.2662  0.1391  0.3798
12827TIP3    H159972   3.315   3.372   3.367 -0.2847 -0.1595  0.0293
12827TIP3    H259973   3.316   3.226   3.328 -0.1395 -0.4348  1.0248
12828TIP3   OH259974   5.604   3.510   4.672  0.1071 -0.0167 -0.1511
12828TIP3    H159975   5.684   3.537   4.628 -0.0159 -0.0178 -0.3792
12828TIP3    H259976   5.597   3.567   4.749 -0.2468  0.7268 -0.7257
12829TIP3   OH259977   4.605   2.901  15.551  0.1128 -0.0109  0.6119
12829TIP3    H159978   4.568   2.939  15.472 -1.5362 -0.0406  1.3183
12829TIP3    H259979   4.575   2.958  15.622  1.1496 -0.2543  1.2829
12830TIP3   OH259980   2.514   6.350  16.734  0.4863 -0.2078  0.2908
12830TIP3    H159981   2.474   6.343  16.647  1.5283  1.1908 -0.3550
12830TIP3    H259982   2.605   6.324  16.720  0.2861 -1.5803  1.3445
12831TIP3   OH259983   0.524   2.905   6.476 -0.5926 -0.2127  0.4049
12831TIP3    H159984   0.472   2.849   6.534 -1.8396 -0.2734 -0.7345
12831TIP3    H259985   0.586   2.846   6.435 -0.9885 -0.5231  0.2466
12832TIP3   OH259986   2.405   2.302   2.305 -0.1590 -0.2871 -0.2558
12832TIP3    H159987   2.319   2.327   2.339 -0.1215  1.0573 -1.0565
12832TIP3    H259988   2.468   2.340   2.367 -0.1323 -0.3804 -0.2259
12833TIP3   OH259989   2.533   1.869   0.928 -0.2738  0.0324  0.0256
12833TIP3    H159990   2.513   1.799   0.866  1.1852 -0.8348  0.4992
12833TIP3    H259991   2.528   1.949   0.875 -1.7339 -0.4051 -0.5665
12834TIP3   OH259992   1.339   1.043   0.342 -0.2783 -0.0998 -0.0501
12834TIP3    H159993   1.290   1.028   0.261  2.9813  2.7627 -2.8086
12834TIP3    H259994   1.307   1.127   0.375 -1.9335 -1.4508  2.1503
12835TIP3   OH259995   5.142   4.791   2.663 -0.3271 -1.2122 -0.4865
12835TIP3    H159996   5.150   4.870   2.609  1.6678  0.2898  1.8121
12835TIP3    H259997   5.051   4.793   2.693 -0.0483  0.9690  0.4654
12836TIP3   OH259998   6.368   1.065   2.663  0.0438 -0.5620  0.1904
12836TIP3    H159999   6.391   0.972   2.666 -1.0824 -0.8493  0.6521
12836TIP3    H260000   6.421   1.105   2.731  1.1213 -0.7080 -0.5322
12837TIP3   OH260001   4.599   1.889  14.590 -0.1989 -0.0281  0.4264
12837TIP3    H160002   4.567   1.971  14.553 -3.4929 -0.9352  0.9364
12837TIP3    H260003   4.684   1.876  14.549 -0.6288  2.4253 -1.4863
12838TIP3   OH260004   5.132   2.873   1.115 -0.0745 -0.1091 -0.4443
12838TIP3    H160005   5.067   2.935   1.080  1.2728  0.6653 -1.7187
12838TIP3    H260006   5.129   2.799   1.054 -0.7056 -0.6831  0.2787
12839TIP3   OH260007   4.141   5.082   3.512 -0.1761  0.9960  0.2022
12839TIP3    H160008   4.202   5.155   3.521  1.6074 -0.2846 -0.7634
12839TIP3    H260009   4.139   5.063   3.418 -2.2917  1.1278  0.1592
12840TIP3   OH260010   3.840   0.077  17.184  0.0333  0.1039  0.3925
12840TIP3    H160011   3.810   0.080  17.275 -1.4155 -0.1908 -0.0365
12840TIP3    H260012   3.759   0.078  17.133  0.8165  0.0608 -0.8920
12841TIP3   OH260013   1.529   6.113  13.526  0.2479  0.2994  0.1049
12841TIP3    H160014   1.617   6.074  13.523  0.3115  0.3673  0.7732
12841TIP3    H260015   1.480   6.067  13.458  0.4379 -0.6803  0.6009
12842TIP3   OH260016   6.139   5.875  11.875 -0.0929 -0.0518  0.3159
12842TIP3    H160017   6.095   5.959  11.859  0.1202  0.0442  0.2437
12842TIP3    H260018   6.102   5.816  11.809  1.6692  0.6370 -1.3828
12843TIP3   OH260019   3.150   2.957   0.226  0.4052  0.1217 -0.5119
12843TIP3    H160020   3.222   2.894   0.226  0.0876 -0.2773  0.8212
12843TIP3    H260021   3.078   2.910   0.184 -1.2218 -2.2447  4.1641
12844TIP3   OH260022   1.044   5.463  15.710  0.4259  1.0142  0.2026
12844TIP3    H160023   1.111   5.395  15.711  0.0531  0.6464  0.3013
12844TIP3    H260024   1.079   5.532  15.766  0.5645  0.6654  0.5548
12845TIP3   OH260025   1.568   3.915  15.978  0.1407 -0.0139 -0.1283
12845TIP3    H160026   1.541   3.883  16.065  1.7982 -0.5782  0.2085
12845TIP3    H260027   1.596   4.005  15.994 -0.0814  0.0690 -0.1968
12846TIP3   OH260028   4.059   1.357   0.719  0.0810 -0.1103  0.2074
12846TIP3    H160029   4.003   1.320   0.787  0.0540  0.1000  0.2994
12846TIP3    H260030   4.026   1.319   0.637 -1.0402  0.9911  0.1069
12847TIP3   OH260031   2.956   3.044   4.427 -0.0622 -0.1129  0.7311
12847TIP3    H160032   2.975   2.950   4.426  0.9440  0.0728  0.2180
12847TIP3    H260033   2.987   3.075   4.342  0.9580  0.9132  1.4417
12848TIP3   OH260034   1.810   0.859  16.617  0.4392  0.5989  0.3642
12848TIP3    H160035   1.852   0.836  16.534 -2.3071 -2.5588 -0.3692
12848TIP3    H260036   1.806   0.954  16.616  4.6275  0.9964 -0.8117
12849TIP3   OH260037   5.223   5.515   0.563 -0.3801 -0.0631  0.2480
12849TIP3    H160038   5.286   5.443   0.566 -0.4460 -0.1110  0.5001
12849TIP3    H260039   5.148   5.483   0.614 -0.5321  0.0645  0.1018
12850TIP3   OH260040   4.580   5.179  14.228  0.0662 -0.1268  0.4794
12850TIP3    H160041   4.637   5.183  14.151  0.1071  1.8423  0.5498
12850TIP3    H260042   4.637   5.152  14.300  0.7898  1.1801  0.4199
12851TIP3   OH260043   6.217   2.642  14.990  0.2849 -0.4794  0.8179
12851TIP3    H160044   6.266   2.723  14.991  1.9463 -1.3448 -1.2067
12851TIP3    H260045   6.140   2.661  14.935  1.3615 -0.5578 -0.7922
12852TIP3   OH260046   5.798   5.058  15.012  0.6079  0.2542  0.3921
12852TIP3    H160047   5.866   5.003  15.051 -0.2081 -1.6046 -0.6691
12852TIP3    H260048   5.723   5.051  15.072  1.0708  1.7017  1.1784
12853TIP3   OH260049   0.386   6.641  15.904  0.1489 -0.1994  0.0655
12853TIP3    H160050   0.304   6.644  15.953 -0.6784  1.0710 -1.2991
12853TIP3    H260051   0.384   6.558  15.857 -0.9256  0.3107 -0.8328
12854TIP3   OH260052   1.078   3.147  13.162 -0.4239  0.1239  0.2938
12854TIP3    H160053   1.149   3.084  13.163 -0.5118  0.0281  0.4731
12854TIP3    H260054   1.061   3.167  13.254 -1.9184 -1.3238  0.3667
12855TIP3   OH260055   2.318   0.612   0.797 -0.6312 -0.6309 -0.3866
12855TIP3    H160056   2.335   0.702   0.770 -1.5629 -0.2052  0.3925
12855TIP3    H260057   2.394   0.563   0.766  0.9290  0.7674  1.0014
12856TIP3   OH260058   1.212   1.888  14.810 -0.7061 -0.0362 -0.6499
12856TIP3    H160059   1.180   1.906  14.722  0.0180  1.6835 -0.5927
12856TIP3    H260060   1.290   1.942  14.819 -1.4905  0.8490  1.4938
12857TIP3   OH260061   3.348   5.496   2.730  0.0688  0.2515 -0.3586
12857TIP3    H160062   3.427   5.450   2.703 -0.5204  0.0027 -1.7598
12857TIP3    H260063   3.360   5.586   2.699  0.3836  0.5785  0.6642
12858TIP3   OH260064   5.426   0.471   4.614  0.2748  0.0185  0.1652
12858TIP3    H160065   5.457   0.471   4.524  0.2390 -0.4905  0.1479
12858TIP3    H260066   5.502   0.495   4.666  0.4422 -0.2488  0.0436
12859TIP3   OH260067   5.989   5.652  13.506 -0.6758  0.3126  0.5180
12859TIP3    H160068   5.929   5.719  13.473 -0.8275  0.1656  0.4968
12859TIP3    H260069   6.076   5.686  13.486 -0.7159  0.9750  1.3746
12860TIP3   OH260070   2.774   4.764   1.743 -0.0369 -0.3453  0.2195
12860TIP3    H160071   2.679   4.776   1.753 -0.1567  0.5838 -1.5876
12860TIP3    H260072   2.797   4.696   1.807 -1.7708 -0.0104  1.2584
12861TIP3   OH260073   3.774   1.561   4.959 -0.3287  0.1909 -0.2346
12861TIP3    H160074   3.818   1.591   5.038  0.4899 -1.4597 -0.0360
12861TIP3    H260075   3.689   1.605   4.961  0.3568  1.5404  0.6289
12862TIP3   OH260076   6.192   0.530  15.512  0.2018  0.4586 -0.5294
12862TIP3    H160077   6.193   0.472  15.436  2.5488 -2.0926  1.2542
12862TIP3    H260078   6.114   0.504  15.561  0.8145 -0.7352 -0.1420
12863TIP3   OH260079   3.958   4.140  13.836 -0.2686  0.1379  0.2030
12863TIP3    H160080   3.906   4.202  13.889  2.5599  2.4193  0.5505
12863TIP3    H260081   3.983   4.191  13.759  1.3852 -0.8761  0.0392
12864TIP3   OH260082   1.156   0.628  13.870 -0.2036  0.6307  0.3204
12864TIP3    H160083   1.082   0.643  13.811 -0.7706 -0.5316  0.7086
12864TIP3    H260084   1.233   0.641  13.816 -0.7110  0.6652 -0.4057
12865TIP3   OH260085   5.006   4.065  11.976 -0.0754 -0.4297 -0.0372
12865TIP3    H160086   5.086   4.086  12.024  0.1646 -1.6817  0.1478
12865TIP3    H260087   5.032   4.062  11.884 -0.0656 -0.1178 -0.0423
12866TIP3   OH260088   4.505   3.350   5.804  0.6952  0.0233 -0.0334
12866TIP3    H160089   4.522   3.401   5.883  0.0197  0.3300 -0.0836
12866TIP3    H260090   4.424   3.387   5.768  0.3923 -0.8382 -0.2635
12867TIP3   OH260091   0.356   2.703   0.505  0.4089 -0.0426  0.0405
12867TIP3    H160092   0.426   2.673   0.447  0.8652 -1.4120  1.2503
12867TIP3    H260093   0.398   2.714   0.590 -0.2408  2.0072  0.1556
12868TIP3   OH260094   6.133   2.995   4.672 -0.3148 -0.8329 -0.4285
12868TIP3    H160095   6.038   2.989   4.661 -0.5289 -0.7396  1.0650
12868TIP3    H260096   6.151   2.944   4.751  0.8343 -0.5531 -0.4869
12869TIP3   OH260097   3.295   0.282  12.240 -0.5710 -0.0071 -0.3886
12869TIP3    H160098   3.305   0.376  12.256  1.4214  0.0778 -1.7691
12869TIP3    H260099   3.279   0.275  12.146 -0.8237 -1.0540 -0.2800
12870TIP3   OH260100   5.106   3.771  15.376  0.1836 -0.4391 -0.5661
12870TIP3    H160101   5.134   3.781  15.286  0.3443  0.2326 -0.4474
12870TIP3    H260102   5.022   3.816  15.381  0.6803  0.4809 -0.1379
12871TIP3   OH260103   5.504   1.715  13.668 -0.2068  0.2885  0.1003
12871TIP3    H160104   5.456   1.762  13.599 -0.9181  2.0676  1.7202
12871TIP3    H260105   5.449   1.639  13.688 -0.0525 -0.1865 -1.1706
12872TIP3   OH260106   4.068   5.258   2.199 -0.6663 -0.1355 -0.5183
12872TIP3    H160107   4.004   5.326   2.178 -0.4584  0.2351  0.0099
12872TIP3    H260108   4.049   5.236   2.291 -0.5424 -0.5796 -0.5985
12873TIP3   OH260109   3.142   1.712  17.251  0.0803 -0.1589 -0.2106
12873TIP3    H160110   3.083   1.735  17.323  2.7483 -1.2322  2.5003
12873TIP3    H260111   3.213   1.776  17.256 -0.3195  0.6304 -2.9027
12874TIP3   OH260112   3.730   4.590  15.587  0.6983 -0.4016  0.7863
12874TIP3    H160113   3.729   4.685  15.594  0.2304 -0.4351  1.2257
12874TIP3    H260114   3.648   4.562  15.627  0.8520 -0.9942  0.7002
12875TIP3   OH260115   1.893   0.700  14.938 -0.0024 -0.3680  0.7065
12875TIP3    H160116   1.851   0.622  14.973 -1.3261  0.1109  0.2416
12875TIP3    H260117   1.968   0.715  14.995 -1.6307 -0.0568  2.8931
12876TIP3   OH260118   3.787   4.114  15.142  0.4055 -0.0524  0.5949
12876TIP3    H160119   3.801   4.194  15.194  1.8620  1.0091 -1.3036
12876TIP3    H260120   3.863   4.110  15.083 -1.6595 -0.5207 -2.2440
12877TIP3   OH260121   2.244   5.371   0.937 -0.3248  0.7120 -0.3916
12877TIP3    H160122   2.171   5.380   0.875 -0.4711 -0.2003 -0.3696
12877TIP3    H260123   2.323   5.375   0.882 -0.4741 -1.3166 -0.8499
12878TIP3   OH260124   4.126   1.153   4.477 -0.3489 -0.1089  0.3498
12878TIP3    H160125   4.199   1.214   4.470 -0.4757  0.1033  0.8764
12878TIP3    H260126   4.048   1.208   4.479 -0.3829 -0.1678  2.5557
12879TIP3   OH260127   2.424   5.053   0.022  0.4040  0.0981 -0.2978
12879TIP3    H160128   2.437   4.961   0.001  1.7093  0.3495 -0.6898
12879TIP3    H260129   2.337   5.057   0.063 -0.1594 -1.1110 -1.3389
12880TIP3   OH260130   6.617   5.019   1.918 -0.2104  0.1835 -0.0830
12880TIP3    H160131   6.627   4.999   1.825  3.1133  0.5085  0.0913
12880TIP3    H260132   6.605   4.934   1.960  1.1150 -0.2803 -0.5814
12881TIP3   OH260133   6.136   2.128   5.694 -0.5153  0.5670  0.0838
12881TIP3    H160134   6.056   2.109   5.646 -1.7593  0.8457  1.9813
12881TIP3    H260135   6.166   2.212   5.658 -0.6623  0.1286 -1.1150
12882TIP3   OH260136   3.969   4.415  11.154 -0.1062  0.3685  0.2875
12882TIP3    H160137   3.940   4.486  11.097 -0.6626 -0.4005 -0.4118
12882TIP3    H260138   3.915   4.424  11.232 -0.9668  0.0439 -0.2629
12883TIP3   OH260139   2.886   2.366   1.137  0.0057 -0.2788 -0.0647
12883TIP3    H160140   2.945   2.370   1.212 -1.3131  0.6568  0.9629
12883TIP3    H260141   2.803   2.337   1.173 -0.6496  0.1501 -1.1789
12884TIP3   OH260142   0.054   0.191   2.761 -0.1398 -0.3528  0.4792
12884TIP3    H160143   0.120   0.198   2.830 -1.5122 -0.2319  1.8348
12884TIP3    H260144   0.001   0.115   2.785 -0.7291 -0.2408 -0.3903
12885TIP3   OH260145   3.224   2.465  17.067  0.0527 -0.1676  0.0170
12885TIP3    H160146   3.216   2.488  17.159  2.5130 -2.7469  1.0069
12885TIP3    H260147   3.247   2.547  17.023  0.1005  0.8566  1.8895
12886TIP3   OH260148   6.456   0.312   3.862 -0.1025 -0.0504 -0.0955
12886TIP3    H160149   6.524   0.332   3.926 -0.8230 -2.6490  1.6691
12886TIP3    H260150   6.377   0.301   3.915 -1.2424 -0.0522 -1.7452
12887TIP3   OH260151   2.980   3.036  13.748 -0.4684  0.2062  0.5184
12887TIP3    H160152   3.018   2.981  13.817  0.1190 -0.9315 -0.6559
12887TIP3    H260153   3.053   3.054  13.689 -1.0960  0.6068 -0.1531
12888TIP3   OH260154   2.838   4.397  15.890  0.4692 -0.3847 -0.6221
12888TIP3    H160155   2.832   4.492  15.890  0.6691 -0.3732 -0.6400
12888TIP3    H260156   2.779   4.369  15.819 -0.8964 -0.3501  0.4602
12889TIP3   OH260157   2.875   4.075   4.688  0.1677  0.0727 -0.2257
12889TIP3    H160158   2.883   4.034   4.602  1.2451 -1.1349  0.4223
12889TIP3    H260159   2.950   4.043   4.737 -0.9076  0.0034  1.4614
12890TIP3   OH260160   3.659   0.477   0.220 -0.0725  0.0961 -0.0552
12890TIP3    H160161   3.651   0.383   0.238 -2.1364 -0.1049 -1.6394
12890TIP3    H260162   3.583   0.516   0.263 -1.0981  0.5242 -2.1363
12891TIP3   OH260163   5.439   2.032  13.409 -0.1212 -0.6473  0.1823
12891TIP3    H160164   5.520   2.084  13.410  0.2604 -1.0191  3.7762
12891TIP3    H260165   5.469   1.941  13.417 -0.8861 -1.1757 -2.2518
12892TIP3   OH260166   1.206   5.181   2.219  0.0216 -0.6310 -0.1440
12892TIP3    H160167   1.141   5.249   2.232 -0.0641 -0.6229 -0.6107
12892TIP3    H260168   1.155   5.102   2.200  0.1516 -0.2094 -2.5489
12893TIP3   OH260169   6.403   6.342   3.227  0.1807  0.3180  0.2825
12893TIP3    H160170   6.334   6.374   3.168  0.3362 -1.4119 -0.9225
12893TIP3    H260171   6.380   6.378   3.313 -1.9090  0.2517 -0.1979
12894TIP3   OH260172   4.194   5.368  11.232 -0.1311 -0.4077 -0.5082
12894TIP3    H160173   4.215   5.276  11.221 -0.5389 -0.6961  0.9039
12894TIP3    H260174   4.279   5.411  11.245 -0.0276 -0.7756  0.0559
12895TIP3   OH260175   1.289   0.368  16.275 -0.4749 -0.7681  0.2149
12895TIP3    H160176   1.369   0.349  16.225 -0.9170  2.0066 -1.7993
12895TIP3    H260177   1.257   0.282  16.302  0.2092 -2.5231 -3.7624
12896TIP3   OH260178   0.270   3.307  12.966  0.2397  0.1564  0.1597
12896TIP3    H160179   0.344   3.281  12.912  0.9271  1.2270  0.5495
12896TIP3    H260180   0.306   3.314  13.054  0.0289  2.0044  0.1375
12897TIP3   OH260181   3.772   4.801  16.036 -0.3771  0.2342  0.1151
12897TIP3    H160182   3.858   4.840  16.049  0.1838 -0.4985 -1.2312
12897TIP3    H260183   3.710   4.867  16.067  0.6776 -0.0963  3.2975
12898TIP3   OH260184   1.016   3.038  16.096 -0.0962 -0.0212  0.0679
12898TIP3    H160185   1.062   2.978  16.037 -0.0379 -0.0133  0.1055
12898TIP3    H260186   1.048   3.016  16.183 -0.7272 -0.5305  0.1803
12899TIP3   OH260187   6.096   5.486  12.100 -0.0272 -0.0645 -0.2161
12899TIP3    H160188   6.021   5.500  12.042  1.6963  1.5828 -2.1966
12899TIP3    H260189   6.106   5.569  12.147  0.6118 -0.2395 -0.0251
12900TIP3   OH260190   4.172   3.412  12.495 -0.3669 -0.1292  0.0963
12900TIP3    H160191   4.234   3.340  12.494 -0.6679 -0.4046  0.5447
12900TIP3    H260192   4.121   3.398  12.576  0.6289  1.4965  1.0418
12901TIP3   OH260193   5.335   4.929  13.792 -0.0183  0.4451  0.1662
12901TIP3    H160194   5.367   4.909  13.704 -1.8780 -1.5585 -0.1519
12901TIP3    H260195   5.245   4.960  13.779 -0.1167  0.6968  1.3197
12902TIP3   OH260196   5.980   2.017  13.584  0.0144 -0.5220 -0.2800
12902TIP3    H160197   5.901   1.999  13.634  0.2912 -0.7868  0.0697
12902TIP3    H260198   6.006   2.105  13.611  0.5307 -0.9179  0.5524
12903TIP3   OH260199   3.295   0.359   3.984  0.3026  0.1937  0.1435
12903TIP3    H160200   3.222   0.314   3.942 -1.0972  2.1214  0.3813
12903TIP3    H260201   3.373   0.315   3.950 -0.9173 -1.3238 -0.8371
12904TIP3   OH260202   0.265   1.139  13.466  0.4526 -0.5567  0.1961
12904TIP3    H160203   0.222   1.122  13.382  0.8140 -2.8082  0.4126
12904TIP3    H260204   0.193   1.165  13.524  0.3014  1.8759 -0.9303
12905TIP3   OH260205   4.111   3.017  16.774  0.4290 -0.0006  0.3577
12905TIP3    H160206   4.112   2.926  16.803 -0.0991 -0.7967 -1.8704
12905TIP3    H260207   4.020   3.033  16.748  0.7714  0.7386 -0.4457
12906TIP3   OH260208   4.573   5.795  16.215 -0.9482 -0.4162 -0.2150
12906TIP3    H160209   4.623   5.774  16.293  0.3676 -0.0700 -0.9371
12906TIP3    H260210   4.638   5.829  16.153 -2.0500 -0.1129 -1.2429
12907TIP3   OH260211   4.570   4.168   0.273  0.0998 -0.2421 -0.0632
12907TIP3    H160212   4.608   4.248   0.237 -1.0674  0.1699 -0.4153
12907TIP3    H260213   4.521   4.130   0.201 -1.8415  0.3117  0.8875
12908TIP3   OH260214   6.314   5.121  11.304  0.3707  0.8743 -0.0272
12908TIP3    H160215   6.389   5.144  11.359 -1.1738  1.6391  1.9073
12908TIP3    H260216   6.296   5.030  11.325  0.3236  0.9015  0.0503
12909TIP3   OH260217   0.179   2.637  14.054  0.1043  0.5174  0.2167
12909TIP3    H160218   0.259   2.585  14.053  0.7022  1.3952  0.8327
12909TIP3    H260219   0.171   2.667  14.145 -1.3399 -0.1648  0.3516
12910TIP3   OH260220   5.553   0.982   0.874  0.1739 -0.4455 -0.7049
12910TIP3    H160221   5.560   1.075   0.895 -2.7086  0.2388 -2.1570
12910TIP3    H260222   5.517   0.981   0.785  0.9803 -2.9780 -1.0614
12911TIP3   OH260223   3.156   5.749   4.032 -0.2329 -0.1973  0.2479
12911TIP3    H160224   3.071   5.721   4.067  0.8724 -1.9269  1.7385
12911TIP3    H260225   3.181   5.823   4.087 -0.2871 -0.4043  0.5535
12912TIP3   OH260226   3.867   5.055  15.398 -0.3613  0.5668  0.0675
12912TIP3    H160227   3.869   5.086  15.489  1.2505  1.4284 -0.2207
12912TIP3    H260228   3.794   4.994  15.395 -1.7341  2.0451  1.4481
12913TIP3   OH260229   5.007   3.345  11.747  0.1201  0.8868  0.1675
12913TIP3    H160230   5.068   3.381  11.683  1.0217  1.8667  1.4961
12913TIP3    H260231   4.998   3.415  11.812 -0.1576 -0.3266  1.4746
12914TIP3   OH260232   6.641   5.366  11.850  0.0697  0.1501 -0.1018
12914TIP3    H160233   6.598   5.309  11.913  1.9730  0.1339  1.2747
12914TIP3    H260234   6.725   5.323  11.832 -0.6640 -0.2313 -3.2680
12915TIP3   OH260235   3.548   4.370  11.658  0.4031 -0.9975  0.0111
12915TIP3    H160236   3.547   4.282  11.620 -0.7603 -0.2258 -1.8648
12915TIP3    H260237   3.471   4.413  11.622  0.7728  0.7219  1.1391
12916TIP3   OH260238   6.493   1.327   0.143  0.3586  0.1020 -0.0285
12916TIP3    H160239   6.507   1.252   0.085  0.5911 -0.3354  0.5888
12916TIP3    H260240   6.403   1.355   0.125 -0.1439 -1.0591  0.5699
12917TIP3   OH260241   5.669   3.193   3.167 -0.0935  0.2353  0.3503
12917TIP3    H160242   5.712   3.124   3.115  0.4978 -0.0881  1.2467
12917TIP3    H260243   5.713   3.190   3.252 -1.6869  0.1029  1.2066
12918TIP3   OH260244   1.809   2.226   5.048 -0.1481  0.1674 -0.1485
12918TIP3    H160245   1.808   2.312   5.005  2.6481  0.7623  0.7297
12918TIP3    H260246   1.794   2.245   5.141  1.2901 -0.1314  0.1750
12919TIP3   OH260247   3.736   3.216  15.905 -0.3743 -0.4411  0.2817
12919TIP3    H160248   3.805   3.150  15.895 -1.0070 -1.0700 -0.0520
12919TIP3    H260249   3.735   3.262  15.821 -0.6694 -0.7452  0.1156
12920TIP3   OH260250   1.409   3.024   1.177 -0.3830  0.1194 -0.6387
12920TIP3    H160251   1.338   2.976   1.134 -1.9193 -1.2885  3.0886
12920TIP3    H260252   1.476   2.958   1.194 -1.7792 -0.5850  2.9852
12921TIP3   OH260253   0.982   0.436  13.166  0.3512 -0.2133 -0.3831
12921TIP3    H160254   1.061   0.482  13.136  0.1478  0.0818 -0.4682
12921TIP3    H260255   1.003   0.411  13.256  0.2876  0.4659 -0.1739
12922TIP3   OH260256   2.256   0.262  11.609  0.0368  0.2823  0.0792
12922TIP3    H160257   2.177   0.213  11.633  1.2743 -0.4387  3.2780
12922TIP3    H260258   2.312   0.197  11.565 -0.2523  0.1635 -0.1162
12923TIP3   OH260259   6.476   5.968   4.260  0.6258  0.0994  0.5302
12923TIP3    H160260   6.428   6.012   4.330  1.6348 -0.8801  1.9041
12923TIP3    H260261   6.475   5.875   4.285  2.0579 -0.1176 -0.0949
12924TIP3   OH260262   0.942   4.819  11.896  0.6071 -0.3802  0.4083
12924TIP3    H160263   0.979   4.751  11.840 -0.5153  0.6296 -1.6452
12924TIP3    H260264   0.883   4.771  11.955  1.7883 -1.4505  0.7691
12925TIP3   OH260265   1.619   3.546  10.676 -0.0446 -0.0696  0.5806
12925TIP3    H160266   1.633   3.461  10.634  1.4430 -0.7954  2.4298
12925TIP3    H260267   1.623   3.608  10.604 -0.9909 -1.5174 -0.8006
12926TIP3   OH260268   3.200   3.738  12.664 -0.3311  0.3533  0.4308
12926TIP3    H160269   3.137   3.774  12.602 -1.5519 -1.1037  0.7784
12926TIP3    H260270   3.269   3.702  12.609 -1.1453 -0.4566 -0.0920
12927TIP3   OH260271   1.843   4.068  15.141  0.1098  0.2338  0.1640
12927TIP3    H160272   1.812   4.027  15.222 -0.3366  1.1549  0.4705
12927TIP3    H260273   1.828   4.162  15.154  0.9294  0.4856 -0.6008
12928TIP3   OH260274   4.756   6.731  15.959  0.1337  0.0482  0.2718
12928TIP3    H160275   4.829   6.687  16.002  1.1704  2.2017  0.8389
12928TIP3    H260276   4.679   6.710  16.012  0.8311 -0.0073  1.2679
12929TIP3   OH260277   5.550   5.903  14.486 -0.4205 -0.0650  0.1832
12929TIP3    H160278   5.560   5.864  14.573 -0.6022 -0.7498 -0.0904
12929TIP3    H260279   5.541   5.827  14.428 -0.1522  0.3840 -0.4495
12930TIP3   OH260280   4.203   3.398   2.327  0.1157 -0.0589  0.3880
12930TIP3    H160281   4.276   3.451   2.359  1.3294 -1.3836 -0.0727
12930TIP3    H260282   4.221   3.387   2.233  0.1883 -1.7074  0.5804
12931TIP3   OH260283   0.616   1.279   3.501  0.2101  0.0747  0.3969
12931TIP3    H160284   0.595   1.299   3.410  1.4418  0.6836  0.2175
12931TIP3    H260285   0.674   1.203   3.497  0.4091  0.2081  0.6406
12932TIP3   OH260286   5.436   1.903  14.470 -0.1860  0.4348 -0.1453
12932TIP3    H160287   5.385   1.978  14.439 -1.3623 -0.3086 -0.0507
12932TIP3    H260288   5.470   1.931  14.555 -2.2694  0.1863  0.8302
12933TIP3   OH260289   1.912   6.175  16.744  0.3640 -0.8851 -0.5383
12933TIP3    H160290   1.946   6.150  16.830 -0.7675 -2.1959 -0.4341
12933TIP3    H260291   1.818   6.159  16.750  0.1292 -0.0686 -1.7210
12934TIP3   OH260292   4.505   4.682   3.538  0.1394  0.4526  0.8330
12934TIP3    H160293   4.427   4.710   3.490  1.5423 -0.9236 -2.4829
12934TIP3    H260294   4.539   4.763   3.577 -0.1437  2.0694 -2.0083
12935TIP3   OH260295   2.377   4.804   4.192  0.6609  0.6398 -0.3843
12935TIP3    H160296   2.287   4.831   4.208  0.8093  0.0012  1.8721
12935TIP3    H260297   2.405   4.856   4.116 -1.1826  1.7858 -0.3221
12936TIP3   OH260298   3.264   4.801   5.118  0.3668  0.2454 -0.1637
12936TIP3    H160299   3.201   4.776   5.186 -0.3117 -0.0473 -0.8860
12936TIP3    H260300   3.339   4.744   5.132 -0.0533 -0.2926 -0.0999
12937TIP3   OH260301   1.388   1.333  15.032  0.1260 -0.4677 -0.6439
12937TIP3    H160302   1.349   1.283  15.104 -1.0651 -1.6586 -2.0430
12937TIP3    H260303   1.337   1.307  14.955  3.2140 -1.6013 -2.5142
12938TIP3   OH260304   5.366   0.915   5.591 -0.5837 -0.5267  0.6048
12938TIP3    H160305   5.374   0.852   5.663 -1.2884 -1.0131  0.2663
12938TIP3    H260306   5.290   0.967   5.613 -0.7526 -0.6215  0.2546
12939TIP3   OH260307   5.257   0.824   2.620 -0.4639  0.1836 -0.3123
12939TIP3    H160308   5.249   0.729   2.608 -2.0003  0.1112  0.9345
12939TIP3    H260309   5.297   0.834   2.707 -1.9887  0.6483  0.3684
12940TIP3   OH260310   6.689   6.637  12.128 -0.7529  0.4271 -0.4684
12940TIP3    H160311   6.674   6.663  12.037 -1.4156 -0.7938 -0.7368
12940TIP3    H260312   6.767   6.685  12.154 -1.0339  1.4328 -1.4126
12941TIP3   OH260313   0.863   0.803   6.232  0.1887  0.3533  0.6657
12941TIP3    H160314   0.786   0.781   6.180  0.2466 -0.4123  0.8930
12941TIP3    H260315   0.872   0.731   6.294  1.8032 -0.2022 -0.1517
12942TIP3   OH260316   5.872   2.572  13.939 -0.2440 -0.0255 -0.0780
12942TIP3    H160317   5.956   2.550  13.899 -0.7852 -1.7184 -0.3865
12942TIP3    H260318   5.851   2.659  13.905  1.3493  0.4093 -0.0201
12943TIP3   OH260319   0.101   6.729   0.323  0.7336 -0.0441 -1.4098
12943TIP3    H160320   0.087   6.656   0.384  0.2088 -0.0088 -1.4794
12943TIP3    H260321   0.065   6.698   0.240  1.3965 -0.0682 -1.6903
12944TIP3   OH260322   3.135   2.757   1.855 -0.0505 -0.3580  0.2373
12944TIP3    H160323   3.062   2.820   1.851  0.7185  0.6999  1.9233
12944TIP3    H260324   3.099   2.676   1.818 -1.0602  1.0444 -2.0531
12945TIP3   OH260325   1.384   1.641   5.018 -0.3422 -0.5300 -0.0177
12945TIP3    H160326   1.337   1.624   5.100 -0.6152 -1.4770 -0.3567
12945TIP3    H260327   1.476   1.645   5.044 -0.5101  0.2680  0.4924
12946TIP3   OH260328   1.168   6.489   3.760 -0.1198  0.6585  0.2337
12946TIP3    H160329   1.182   6.538   3.842  1.1105  1.1407 -0.2271
12946TIP3    H260330   1.193   6.552   3.692 -0.4552  0.0289 -0.4696
12947TIP3   OH260331   6.197   1.198  12.460 -0.0460  0.2405 -0.2806
12947TIP3    H160332   6.285   1.208  12.496 -0.5479  3.4322  0.4071
12947TIP3    H260333   6.184   1.276  12.406 -2.0515 -0.7221 -1.3033
12948TIP3   OH260334   0.777   1.288  16.124 -0.2516  0.7001  0.5742
12948TIP3    H160335   0.828   1.230  16.068 -0.3859  0.0938  1.0633
12948TIP3    H260336   0.831   1.300  16.202 -0.9971 -0.2689  1.2696
12949TIP3   OH260337   1.684   0.427  10.973 -0.0407  0.5303  0.4017
12949TIP3    H160338   1.644   0.511  10.995 -1.0771  0.2671 -0.3895
12949TIP3    H260339   1.635   0.397  10.896  2.6440  0.8653 -1.5660
12950TIP3   OH260340   2.269   1.333  12.273 -1.1655 -0.3137 -0.3225
12950TIP3    H160341   2.309   1.388  12.205 -1.2468 -1.2688 -1.1751
12950TIP3    H260342   2.340   1.278  12.304 -1.1519  0.0576  0.3238
12951TIP3   OH260343   0.061   0.386   4.231 -0.1769 -0.6758 -0.4767
12951TIP3    H160344   0.148   0.426   4.221 -0.0295 -0.6854  0.6387
12951TIP3    H260345   0.067   0.304   4.182  0.5923 -0.8821 -0.0551
12952TIP3   OH260346   0.920   2.034  11.396 -0.1764 -0.0808  0.0017
12952TIP3    H160347   0.955   2.029  11.485 -0.5711  0.9293  0.2206
12952TIP3    H260348   0.826   2.015  11.407  0.1768 -2.5974 -0.5574
12953TIP3   OH260349   4.511   4.015   1.013  0.1178 -0.3141  0.4965
12953TIP3    H160350   4.554   4.010   0.928 -0.3912 -0.2394  0.2267
12953TIP3    H260351   4.433   4.069   0.997  1.3174  1.8273  1.5835
12954TIP3   OH260352   0.614   0.066  15.333 -0.4583  0.4697 -0.2931
12954TIP3    H160353   0.597   0.033  15.422  1.6649 -0.6812 -0.2530
12954TIP3    H260354   0.527   0.075  15.294 -1.3859 -0.0954  1.5148
12955TIP3   OH260355   6.053   0.210   2.276  0.1680 -0.0615 -0.4020
12955TIP3    H160356   6.012   0.216   2.363 -0.4795 -1.1143 -0.6164
12955TIP3    H260357   6.087   0.298   2.259 -1.8935  0.8385 -0.1420
12956TIP3   OH260358   2.923   4.201   1.778 -0.2002  0.4497 -0.1239
12956TIP3    H160359   2.886   4.239   1.858 -0.3787 -1.0637  0.5489
12956TIP3    H260360   2.873   4.241   1.707 -2.6712 -0.9460  0.7140
12957TIP3   OH260361   3.196   0.478  16.254 -0.1843 -0.9339 -0.2049
12957TIP3    H160362   3.102   0.482  16.268 -0.4231 -0.6707 -1.6699
12957TIP3    H260363   3.206   0.437  16.168  0.9523  0.2962 -0.7124
12958TIP3   OH260364   2.168   0.379  17.070  0.1330  0.3821  0.1735
12958TIP3    H160365   2.212   0.464  17.068  2.3756 -0.7091 -2.3429
12958TIP3    H260366   2.221   0.325  17.129 -0.1938  0.1786  0.2887
12959TIP3   OH260367   4.054   3.770   1.982 -0.3184  0.1231  0.2222
12959TIP3    H160368   4.015   3.825   2.049 -1.0891  0.4329 -0.4595
12959TIP3    H260369   3.982   3.749   1.923  0.6389  1.1980 -1.4080
12960TIP3   OH260370   2.796   2.773  15.969  0.0309  0.1579  0.0103
12960TIP3    H160371   2.818   2.719  16.045 -1.4074  1.3310  1.3260
12960TIP3    H260372   2.877   2.778  15.919  0.3210 -2.9890 -0.0752
12961TIP3   OH260373   2.595   2.250   4.324 -0.2616  0.3818  0.3008
12961TIP3    H160374   2.669   2.240   4.264 -2.3024  0.8852 -2.5059
12961TIP3    H260375   2.534   2.180   4.298 -1.1430  0.4870  1.9653
12962TIP3   OH260376   5.035   5.332   4.549  0.4270 -0.4349  0.0944
12962TIP3    H160377   4.966   5.328   4.615 -0.4439 -1.5705 -0.8324
12962TIP3    H260378   5.116   5.320   4.598 -0.0696  0.2817  1.1277
12963TIP3   OH260379   5.439   1.077  17.219 -0.4484  0.0257  0.3549
12963TIP3    H160380   5.356   1.092  17.263  0.5750  0.5228  2.2195
12963TIP3    H260381   5.505   1.108  17.281  1.3508 -3.6385  0.5561
12964TIP3   OH260382   0.955   5.539   0.152  0.3745  0.4570  0.4143
12964TIP3    H160383   0.909   5.468   0.196 -1.8417  1.3104 -0.3706
12964TIP3    H260384   0.988   5.500   0.071  0.4690 -0.0174  0.6790
12965TIP3   OH260385   0.468   3.026  11.455 -0.3326 -0.1801  0.3960
12965TIP3    H160386   0.424   3.023  11.540 -1.5914 -1.9079 -0.2447
12965TIP3    H260387   0.548   2.974  11.468 -0.5253 -0.4467  0.5408
12966TIP3   OH260388   2.521   5.450   4.353  0.1317  0.2399  0.3615
12966TIP3    H160389   2.576   5.406   4.288 -0.7853 -0.9193  0.3267
12966TIP3    H260390   2.547   5.409   4.436 -0.3942 -0.0319  0.3944
12967TIP3   OH260391   1.753   3.679  16.057  0.2420  0.0772 -0.0097
12967TIP3    H160392   1.826   3.621  16.038  0.5333  0.7704 -1.1391
12967TIP3    H260393   1.781   3.764  16.023 -0.9241  0.4484 -0.0819
12968TIP3   OH260394   0.586   5.974  15.332  0.1479 -0.2851  0.1252
12968TIP3    H160395   0.680   5.986  15.346  0.4407 -0.9345 -1.1386
12968TIP3    H260396   0.575   5.879  15.318 -0.6852 -0.2131  0.2130
12969TIP3   OH260397   0.980   1.986   4.786  0.3980 -0.3084  0.3909
12969TIP3    H160398   1.056   1.999   4.843  0.2122 -2.4078  1.1983
12969TIP3    H260399   1.010   1.920   4.722 -0.3751 -0.2704 -0.0217
12970TIP3   OH260400   2.902   2.345   5.312 -0.5174  0.0912  0.4104
12970TIP3    H160401   2.862   2.270   5.269  0.5050  1.0562 -2.4338
12970TIP3    H260402   2.944   2.394   5.242  0.4451  2.3589  2.4112
12971TIP3   OH260403   2.184   2.327  11.559 -0.0502  0.1777  0.1043
12971TIP3    H160404   2.279   2.315  11.556 -0.2179 -0.9916 -2.4588
12971TIP3    H260405   2.148   2.243  11.531 -1.8790  0.5677  1.1310
12972TIP3   OH260406   3.745   1.103  15.647  0.1264 -0.0831 -0.1798
12972TIP3    H160407   3.817   1.147  15.691 -0.8070  0.5302  0.7663
12972TIP3    H260408   3.753   1.011  15.673  0.7229 -0.0711 -0.3095
12973TIP3   OH260409   3.908   5.991   5.075  0.2167 -0.0074 -0.3122
12973TIP3    H160410   3.877   6.061   5.018 -1.2746 -1.0691 -0.8747
12973TIP3    H260411   3.971   6.033   5.134 -1.7872  2.1672  0.4385
12974TIP3   OH260412   4.281   6.140  13.826 -0.3274 -0.1282  0.0394
12974TIP3    H160413   4.206   6.172  13.876 -2.1392  0.5148 -2.8486
12974TIP3    H260414   4.321   6.219  13.790  0.4288 -0.6248 -0.2458
12975TIP3   OH260415   2.609   1.279  14.270 -0.4698 -0.0740  0.1891
12975TIP3    H160416   2.682   1.246  14.218 -0.4567  0.0795  0.1094
12975TIP3    H260417   2.576   1.202  14.317  0.9230  0.1811  1.6624
12976TIP3   OH260418   3.590   4.420  10.861 -0.0369  0.2976  0.0039
12976TIP3    H160419   3.519   4.356  10.861 -0.1193  0.3369 -1.7210
12976TIP3    H260420   3.556   4.495  10.910 -0.4755 -0.4109  0.7904
12977TIP3   OH260421   2.651   5.836  16.133  0.4826  0.0333 -0.1052
12977TIP3    H160422   2.628   5.748  16.101  1.8113  0.2298 -1.7329
12977TIP3    H260423   2.576   5.890  16.110  0.1612 -0.4369 -0.1791
12978TIP3   OH260424   4.745   1.075  16.856  1.1018  0.0366 -0.0270
12978TIP3    H160425   4.673   1.017  16.833 -0.3196  1.0141  1.6458
12978TIP3    H260426   4.809   1.063  16.787  0.2374 -2.4039 -0.4986
12979TIP3   OH260427   2.810   3.158  13.573 -0.1946 -0.0289  0.0605
12979TIP3    H160428   2.878   3.107  13.617 -0.2383 -0.2856 -0.1681
12979TIP3    H260429   2.731   3.140  13.623 -0.3328 -0.6678 -0.3843
12980TIP3   OH260430   3.185   5.232   6.078  0.1429  0.4668  0.0982
12980TIP3    H160431   3.171   5.202   6.168  0.5299  1.0646  0.3621
12980TIP3    H260432   3.135   5.313   6.071  0.6154  0.7522 -0.0316
12981TIP3   OH260433   1.090   1.515   6.559 -1.0250  0.0095 -0.7458
12981TIP3    H160434   1.166   1.555   6.601 -1.6762  1.8731 -1.2635
12981TIP3    H260435   1.126   1.445   6.505  0.0837 -0.5831  0.6978
12982TIP3   OH260436   3.408   4.902  16.682 -0.2971  0.1431  0.1315
12982TIP3    H160437   3.455   4.985  16.688 -0.6837  0.3606  0.2105
12982TIP3    H260438   3.325   4.918  16.728 -0.5131 -0.1867 -0.1339
12983TIP3   OH260439   5.730   5.138   2.040 -0.2100  0.2962  0.1408
12983TIP3    H160440   5.691   5.220   2.009  2.4883  1.8093  0.4192
12983TIP3    H260441   5.758   5.158   2.130 -1.3765 -1.6753  1.0246
12984TIP3   OH260442   4.916   0.136   6.371  0.5770 -0.3171  0.1005
12984TIP3    H160443   4.829   0.115   6.337  0.7300  0.2859 -0.6898
12984TIP3    H260444   4.914   0.232   6.382  1.0472 -0.3355  0.3560
12985TIP3   OH260445   1.216   3.367   0.072  0.0794 -0.0087 -0.1916
12985TIP3    H160446   1.254   3.280   0.080 -0.7496 -0.4119 -0.5523
12985TIP3    H260447   1.285   3.426   0.103  2.1312 -0.4673 -3.3525
12986TIP3   OH260448   5.902   1.766   3.521 -0.0266  0.0308 -0.1751
12986TIP3    H160449   5.988   1.749   3.482  0.2090 -0.6041  0.5966
12986TIP3    H260450   5.853   1.685   3.508 -0.5239  0.3947 -0.6194
12987TIP3   OH260451   5.397   3.783   0.541 -0.2095 -0.4609  0.3054
12987TIP3    H160452   5.307   3.787   0.574 -0.5890 -1.5592 -0.5534
12987TIP3    H260453   5.388   3.791   0.446  0.7415  0.9937  0.3019
12988TIP3   OH260454   4.813   4.242   5.041 -0.4876  0.0541  0.1742
12988TIP3    H160455   4.885   4.213   5.097 -0.6891 -0.1938  0.3053
12988TIP3    H260456   4.742   4.264   5.101 -0.7184 -0.2524  0.0197
12989TIP3   OH260457   4.222   0.877   4.799  0.2973  0.4766  0.6399
12989TIP3    H160458   4.300   0.850   4.848  0.7694 -2.2442 -1.3668
12989TIP3    H260459   4.148   0.846   4.852  0.6336  1.0522  1.4650
12990TIP3   OH260460   5.866   3.055   3.025  0.4839  0.4277  0.1156
12990TIP3    H160461   5.883   2.969   2.988 -0.5115 -0.4773  1.6795
12990TIP3    H260462   5.930   3.065   3.096  2.3922  2.1621 -1.6986
12991TIP3   OH260463   4.896   1.619   4.513  0.6684 -0.6352 -0.3794
12991TIP3    H160464   4.856   1.690   4.463  0.5864  0.9325  1.7599
12991TIP3    H260465   4.989   1.624   4.492  0.7044  0.3163 -0.0507
12992TIP3   OH260466   0.921   1.257  15.251 -0.4660  0.1428  0.1784
12992TIP3    H160467   0.870   1.236  15.173  1.6261 -1.2998 -0.9096
12992TIP3    H260468   0.962   1.341  15.231 -0.8477  0.3358  0.2096
12993TIP3   OH260469   4.939   1.365   1.705  0.3558 -0.6384  0.6585
12993TIP3    H160470   4.963   1.409   1.786  2.0482 -0.2474  0.0045
12993TIP3    H260471   5.020   1.365   1.653  0.1132 -3.3977  0.1114
12994TIP3   OH260472   2.885   0.574   4.001 -0.8313  0.0236 -0.4003
12994TIP3    H160473   2.830   0.637   3.954  0.1893 -1.2346 -3.5168
12994TIP3    H260474   2.831   0.496   4.007 -0.6871 -0.0533 -0.0766
12995TIP3   OH260475   5.679   5.026   1.378 -0.0093 -0.4441 -0.0725
12995TIP3    H160476   5.757   5.011   1.325  0.1279 -0.7925  0.2306
12995TIP3    H260477   5.623   4.950   1.359  1.0345 -1.8482  2.1076
12996TIP3   OH260478   3.102   4.263   0.169 -0.5408 -0.0801  0.5251
12996TIP3    H160479   3.176   4.278   0.228 -0.6940 -0.7392  0.8911
12996TIP3    H260480   3.096   4.168   0.162 -0.1156 -0.0269 -1.0698
12997TIP3   OH260481   2.094   1.829  12.462 -0.0794 -0.3733 -0.9251
12997TIP3    H160482   2.047   1.871  12.390 -0.4882  0.2023 -0.3290
12997TIP3    H260483   2.150   1.899  12.498 -1.2237 -0.1166  0.4721
12998TIP3   OH260484   2.676   5.967  11.255  0.0322  1.2663  0.9714
12998TIP3    H160485   2.625   5.963  11.336  0.2596  1.7514  1.1422
12998TIP3    H260486   2.674   6.059  11.230 -1.1131  0.9416 -0.2768
12999TIP3   OH260487   6.553   5.492  12.491  0.1520 -0.2799  0.0183
12999TIP3    H160488   6.563   5.403  12.459 -0.5232  0.0645 -1.2163
12999TIP3    H260489   6.494   5.485  12.566 -2.4059 -0.5830 -1.8848
13000TIP3   OH260490   4.761   3.515   0.350  0.0363  0.3198 -0.0910
13000TIP3    H160491   4.743   3.421   0.338 -2.8343  0.5713  1.3606
13000TIP3    H260492   4.854   3.519   0.371  0.5237 -2.0530 -1.4146
13001TIP3   OH260493   0.008   1.692  11.436  0.4580 -0.3216  0.5393
13001TIP3    H160494  -0.070   1.640  11.419  1.1858 -1.2316 -0.0768
13001TIP3    H260495  -0.016   1.781  11.409 -1.2486  0.0003  2.8675
13002TIP3   OH260496   3.731   4.442   5.455 -0.3241  0.3895 -0.0429
13002TIP3    H160497   3.654   4.420   5.403 -2.3017  1.3242  2.2985
13002TIP3    H260498   3.749   4.364   5.507  0.3978  0.1491 -0.6308
13003TIP3   OH260499   1.677   1.910   3.775  0.0237 -0.0700  0.3181
13003TIP3    H160500   1.659   2.002   3.792 -0.6787 -0.1190 -0.1291
13003TIP3    H260501   1.753   1.911   3.717 -0.4360  0.2594 -0.2865
13004TIP3   OH260502   4.733   1.094   5.266 -0.3449 -0.4833  0.0530
13004TIP3    H160503   4.705   1.149   5.339 -1.8267 -0.6184 -0.3762
13004TIP3    H260504   4.652   1.074   5.219  0.5217 -0.7191 -1.4039
13005TIP3   OH260505   4.607   0.430   0.752  0.0893 -0.5943 -0.3077
13005TIP3    H160506   4.686   0.411   0.700 -0.4226 -0.3567 -1.1963
13005TIP3    H260507   4.593   0.351   0.804  0.1105 -1.2085 -1.2058
13006TIP3   OH260508   0.474   5.577  12.164  0.5788  0.1518 -0.6464
13006TIP3    H160509   0.533   5.502  12.157 -0.6474 -1.1464  1.5275
13006TIP3    H260510   0.402   5.558  12.103 -0.7436 -1.5827  1.3024
13007TIP3   OH260511   2.027   2.540   4.544  0.3052 -0.5843  0.6309
13007TIP3    H160512   1.984   2.501   4.468  0.7147 -0.0968  0.1484
13007TIP3    H260513   2.014   2.634   4.534  1.8921 -0.3856  0.2258
13008TIP3   OH260514   2.489   5.875   0.722 -0.7409 -0.4073 -0.4425
13008TIP3    H160515   2.426   5.909   0.785  0.3970 -1.2447  1.2050
13008TIP3    H260516   2.438   5.817   0.665 -1.6377 -0.2663  0.2051
13009TIP3   OH260517   0.506   6.714  11.531  0.2453  0.3217  0.1384
13009TIP3    H160518   0.531   6.670  11.449  1.1123  1.2749 -0.1224
13009TIP3    H260519   0.467   6.797  11.503  1.3872  1.0685  0.7062
13010TIP3   OH260520   3.059   4.204   3.007 -0.0387 -1.2564  0.1884
13010TIP3    H160521   3.109   4.123   3.014 -1.2291 -2.0813 -0.5897
13010TIP3    H260522   3.034   4.210   2.915  0.9445  0.5884 -0.0244
13011TIP3   OH260523   6.696   0.884   4.413  0.1241 -0.3945 -0.2823
13011TIP3    H160524   6.640   0.903   4.338 -2.4351 -3.9733  0.4794
13011TIP3    H260525   6.731   0.797   4.396 -0.5381 -1.3446  2.5879
13012TIP3   OH260526   4.993   6.646  16.075 -0.8991  0.1489 -0.2453
13012TIP3    H160527   5.054   6.687  16.015 -1.0124  0.0003 -0.4603
13012TIP3    H260528   5.033   6.562  16.098 -0.3331  0.6641  0.7327
13013TIP3   OH260529   2.665   6.072  14.650 -0.1699  0.2704 -0.0102
13013TIP3    H160530   2.657   6.055  14.556 -0.5063 -0.0171  0.0697
13013TIP3    H260531   2.574   6.077  14.681 -0.0582 -0.7661  0.5038
13014TIP3   OH260532   2.502   5.730  14.497 -0.0298 -0.0792 -0.0929
13014TIP3    H160533   2.488   5.709  14.405 -0.4450  1.0605 -0.2987
13014TIP3    H260534   2.540   5.650  14.534  0.0202 -0.5914 -1.2166
13015TIP3   OH260535   5.551   1.122   1.948  0.0418 -0.6783  0.0861
13015TIP3    H160536   5.645   1.112   1.934  0.4145  1.2509  1.0039
13015TIP3    H260537   5.543   1.177   2.025 -1.8216  0.7137 -1.0130
13016TIP3   OH260538   4.724   1.169  12.738  0.7310 -0.5058 -0.0582
13016TIP3    H160539   4.765   1.241  12.786  1.7493 -0.1155 -1.4452
13016TIP3    H260540   4.632   1.171  12.766  0.8675  0.9735  0.3763
13017TIP3   OH260541   4.506   1.936   6.549  0.5830 -0.4454 -0.0370
13017TIP3    H160542   4.493   2.026   6.577 -1.4548 -0.3750 -1.0891
13017TIP3    H260543   4.567   1.900   6.614  2.7884  2.1087 -0.5300
13018TIP3   OH260544   2.618   1.533  12.175  0.1769  0.2231 -0.1348
13018TIP3    H160545   2.685   1.596  12.149  2.5798 -2.1895 -0.2512
13018TIP3    H260546   2.590   1.494  12.092  0.4691 -0.5004  0.1041
13019TIP3   OH260547   6.423   3.573   5.587  0.0878 -0.0385  0.7044
13019TIP3    H160548   6.445   3.517   5.662 -2.0196 -1.2937  0.4539
13019TIP3    H260549   6.340   3.614   5.611 -0.4744 -0.2465 -0.8139
13020TIP3   OH260550   2.637   2.521  11.310  0.8830  0.5753 -0.0771
13020TIP3    H160551   2.552   2.481  11.293  1.6497 -1.2178  0.0710
13020TIP3    H260552   2.637   2.602  11.259 -0.2379 -0.2695 -1.4822
13021TIP3   OH260553   3.751   6.541  15.977 -0.2780  0.6229 -0.1904
13021TIP3    H160554   3.676   6.600  15.972 -0.8316  0.3109  2.8291
13021TIP3    H260555   3.719   6.459  15.939 -0.6999  1.1527 -1.0091
13022TIP3   OH260556   1.954   6.159   3.145  0.1454 -0.1126  0.4119
13022TIP3    H160557   1.966   6.069   3.112 -0.8857 -0.9256  2.1747
13022TIP3    H260558   1.971   6.153   3.239 -0.1673  1.5143  0.5998
13023TIP3   OH260559   0.108   3.146  17.097  0.1871  0.2739 -0.4153
13023TIP3    H160560   0.078   3.136  17.187 -2.3253  1.2666 -1.0690
13023TIP3    H260561   0.092   3.238  17.076  1.6484  0.3015 -1.5960
13024TIP3   OH260562   3.390   5.712   4.255  0.0476 -0.6044 -0.8595
13024TIP3    H160563   3.348   5.792   4.221  1.0007  1.0447  1.5976
13024TIP3    H260564   3.418   5.665   4.176 -1.6645  0.8425 -2.4301
13025TIP3   OH260565   2.968   3.707  11.118 -0.0198  0.2551 -0.5881
13025TIP3    H160566   3.026   3.745  11.051  0.1616  1.8458  0.4304
13025TIP3    H260567   2.880   3.713  11.079  0.2060  0.1170 -1.1370
13026TIP3   OH260568   2.410   6.072   3.979 -0.2706 -0.1419 -0.4984
13026TIP3    H160569   2.437   5.981   3.994 -0.8573 -0.1006  1.0263
13026TIP3    H260570   2.332   6.082   4.033  0.2224  1.4993 -0.0575
13027TIP3   OH260571   4.851   2.960   3.836 -0.2499  0.3952 -0.0827
13027TIP3    H160572   4.762   2.932   3.856 -0.0688 -1.1735 -1.3308
13027TIP3    H260573   4.867   3.034   3.895 -2.4983  0.9565 -0.1048
13028TIP3   OH260574   3.052   0.517   4.485 -0.1443  0.1152 -0.2930
13028TIP3    H160575   2.979   0.565   4.447 -0.4981 -0.0052  0.2335
13028TIP3    H260576   3.101   0.483   4.409 -1.6200 -1.3109 -0.6674
13029TIP3   OH260577   0.408   0.238  13.301 -0.4720  0.4364 -0.1105
13029TIP3    H160578   0.449   0.268  13.383 -1.2266 -0.3640  0.5781
13029TIP3    H260579   0.472   0.260  13.233  0.8207 -0.2067  0.8651
13030TIP3   OH260580   5.085   5.708   4.013  0.5094  0.6683  0.2256
13030TIP3    H160581   5.148   5.675   4.077 -0.2295  1.4967  1.4161
13030TIP3    H260582   5.001   5.703   4.058 -0.1165  0.7119 -0.9085
13031TIP3   OH260583   0.366   2.795   5.428  0.5496  0.6983 -0.0953
13031TIP3    H160584   0.300   2.730   5.405  0.0493  0.7521  1.1678
13031TIP3    H260585   0.448   2.756   5.398  0.2142 -0.3458  0.3027
13032TIP3   OH260586   0.229   4.717   1.532  0.2408  0.2018 -0.1631
13032TIP3    H160587   0.262   4.795   1.488 -0.8161 -0.3450 -2.0241
13032TIP3    H260588   0.215   4.744   1.623 -0.3472  2.2454 -0.8188
13033TIP3   OH260589   6.791   4.337   1.805  0.2228 -0.5531 -0.1906
13033TIP3    H160590   6.780   4.371   1.717 -1.1941 -0.6756 -0.0842
13033TIP3    H260591   6.737   4.393   1.860  1.5943 -0.0750  0.7200
13034TIP3   OH260592   0.377   2.738   5.743  0.3953  0.0169 -0.3671
13034TIP3    H160593   0.362   2.761   5.651 -2.4602  5.0596  1.0019
13034TIP3    H260594   0.289   2.723   5.778  1.3768 -1.3772  1.7258
13035TIP3   OH260595   6.660   5.244   5.824  0.1626  0.3666 -0.2177
13035TIP3    H160596   6.678   5.230   5.917  1.0249  0.4989 -0.3478
13035TIP3    H260597   6.614   5.328   5.820 -1.5240 -0.4936  0.2300
13036TIP3   OH260598   2.640   2.178  14.704 -0.1217 -0.4183  0.1756
13036TIP3    H160599   2.619   2.271  14.692  0.4267 -0.2033  0.8160
13036TIP3    H260600   2.647   2.167  14.799 -0.4461 -1.1783  0.1183
13037TIP3   OH260601   2.007   1.681   0.581 -0.1133  0.3618 -0.7709
13037TIP3    H160602   2.071   1.614   0.557 -0.6107 -0.3201 -0.2616
13037TIP3    H260603   1.966   1.705   0.498 -1.5046 -1.6517 -0.7717
13038TIP3   OH260604   5.592   2.173  12.708 -0.1501  0.0702 -0.0934
13038TIP3    H160605   5.614   2.084  12.737 -0.2377 -0.5571 -1.8272
13038TIP3    H260606   5.607   2.228  12.785 -0.5082 -1.4994  1.1547
13039TIP3   OH260607   2.134   3.493   4.306 -0.1362 -0.2895  0.1626
13039TIP3    H160608   2.053   3.515   4.261 -0.0443 -0.5649 -0.1419
13039TIP3    H260609   2.187   3.572   4.300 -1.6320  1.1411  3.2892
13040TIP3   OH260610   1.622   5.707  13.896 -0.1089 -0.1886 -0.0538
13040TIP3    H160611   1.617   5.764  13.820 -2.2027 -0.7040 -0.3646
13040TIP3    H260612   1.554   5.739  13.955 -0.2164 -1.3533  0.4870
13041TIP3   OH260613   1.622   5.952  13.775 -0.1510  0.4064 -0.4440
13041TIP3    H160614   1.698   6.006  13.754 -0.8552  0.4788 -3.1017
13041TIP3    H260615   1.556   6.014  13.806  1.1594  0.2116  3.3152
13042TIP3   OH260616   0.304   5.221   0.096 -0.0264  0.3816 -0.6365
13042TIP3    H160617   0.373   5.156   0.110  1.1764  1.4706 -1.2389
13042TIP3    H260618   0.238   5.174   0.045  1.0462 -0.2541 -1.5134
13043TIP3   OH260619   0.392   2.647  17.248  0.4683 -0.1469 -0.1752
13043TIP3    H160620   0.309   2.693  17.256 -0.8547 -2.5753  1.3074
13043TIP3    H260621   0.437   2.665  17.331 -0.7654 -2.5557  1.1616
13044TIP3   OH260622   5.053   6.473  14.599 -0.1659  0.6392 -0.6892
13044TIP3    H160623   5.057   6.458  14.693 -2.0983  0.6705 -0.5636
13044TIP3    H260624   5.123   6.417  14.563  0.2854  0.2614  0.7047
13045TIP3   OH260625   6.436   1.570   6.295 -0.4713 -0.1189  0.2288
13045TIP3    H160626   6.465   1.485   6.327 -2.0227 -1.3998 -1.5625
13045TIP3    H260627   6.364   1.595   6.353  0.1737  0.1428  0.9350
13046TIP3   OH260628   4.590   3.838   0.027  0.3219 -0.9850 -0.3041
13046TIP3    H160629   4.671   3.851  -0.022  1.2621 -1.0369  1.1533
13046TIP3    H260630   4.618   3.834   0.119 -1.4118 -0.3045  0.3013
13047TIP3   OH260631   2.917   1.257  13.795 -0.6764  0.3771  0.0787
13047TIP3    H160632   2.976   1.185  13.814  1.5476  2.3552  1.2575
13047TIP3    H260633   2.921   1.267  13.699 -0.1604 -0.3812  0.0179
13048TIP3   OH260634   1.024   2.459   2.172  0.2516  0.7197 -0.2563
13048TIP3    H160635   1.083   2.507   2.113  0.4870 -0.6802 -1.2113
13048TIP3    H260636   0.955   2.425   2.116  0.1608 -0.1611  0.3545
13049TIP3   OH260637   0.017   3.680   3.827  0.6778  0.0822 -0.2463
13049TIP3    H160638  -0.040   3.604   3.825 -0.0670  0.6326 -1.3763
13049TIP3    H260639   0.104   3.645   3.847 -0.2710 -0.5724  3.4908
13050TIP3   OH260640   5.906   2.125   2.902 -0.1451 -0.0614  0.2338
13050TIP3    H160641   5.846   2.068   2.853  0.0960 -0.9681  0.9804
13050TIP3    H260642   5.928   2.195   2.839  0.1101 -1.1597 -0.9453
13051TIP3   OH260643   0.534   6.151   2.316 -0.2498  0.1414 -0.4077
13051TIP3    H160644   0.591   6.082   2.282 -1.2607 -0.0247 -1.8030
13051TIP3    H260645   0.459   6.104   2.354  0.4302  0.3660  1.3130
13052TIP3   OH260646   5.585   1.869   1.256 -0.2443 -0.1335 -0.5705
13052TIP3    H160647   5.677   1.861   1.282 -0.5363  1.0228  1.0198
13052TIP3    H260648   5.556   1.780   1.241  0.2626 -0.8819  2.2839
13053TIP3   OH260649   0.223   6.573  15.592  0.9598  0.0630  0.3811
13053TIP3    H160650   0.240   6.493  15.543  2.6210 -0.2435  1.3631
13053TIP3    H260651   0.160   6.547  15.660  1.2833 -0.3534  0.5249
13054TIP3   OH260652   1.720   3.903   1.365 -0.2335 -0.2445 -0.5539
13054TIP3    H160653   1.655   3.878   1.430  1.0151 -1.3299  0.3430
13054TIP3    H260654   1.671   3.912   1.283 -1.7626  0.6858  0.4138
13055TIP3   OH260655   0.542   2.461  15.988  0.2055 -0.0143 -0.1968
13055TIP3    H160656   0.566   2.536  16.041 -0.6747  0.3573 -0.3177
13055TIP3    H260657   0.447   2.464  15.982  0.2984  0.5724 -2.6699
13056TIP3   OH260658   6.386   5.644   1.054  0.2631 -0.5890  0.2278
13056TIP3    H160659   6.355   5.566   1.099  0.2653 -1.1569 -0.7235
13056TIP3    H260660   6.480   5.633   1.048  0.2207 -0.7083 -0.2583
13057TIP3   OH260661   6.634   2.515   5.372  0.1303  0.5112 -0.1680
13057TIP3    H160662   6.614   2.609   5.369  0.5383  0.5933 -0.3907
13057TIP3    H260663   6.688   2.504   5.451 -0.2134  0.4054  0.0524
13058TIP3   OH260664   1.005   5.687  12.927 -0.0719  0.0594 -0.0533
13058TIP3    H160665   0.990   5.670  12.834 -1.4939 -1.8949  0.4518
13058TIP3    H260666   0.946   5.760  12.947  0.7893  0.9899 -0.8097
13059TIP3   OH260667   0.180   6.747  11.332  0.5337 -0.1653  0.4955
13059TIP3    H160668   0.239   6.761  11.406  0.3289 -0.4744  0.7206
13059TIP3    H260669   0.093   6.741  11.372  0.3553  0.2490  0.1691
13060TIP3   OH260670   2.700   2.785  13.529  0.6901  0.0213  0.0583
13060TIP3    H160671   2.792   2.788  13.505  0.7873 -0.0630  0.4141
13060TIP3    H260672   2.700   2.790  13.625  0.3551 -0.5224  0.0948
13061TIP3   OH260673   1.840   1.759  16.953 -0.0093 -0.5583  0.0466
13061TIP3    H160674   1.751   1.794  16.951  0.5686  0.9607 -0.9141
13061TIP3    H260675   1.857   1.732  16.863  1.8659  2.9911 -0.8429
13062TIP3   OH260676   1.701   3.528  14.388 -0.5605  0.1488  0.3045
13062TIP3    H160677   1.734   3.534  14.478 -1.6398  1.1656  0.6665
13062TIP3    H260678   1.642   3.603  14.380  1.0483  1.2603 -1.9475
13063TIP3   OH260679   0.067   1.401   0.790 -0.8924 -0.0351  0.5260
13063TIP3    H160680   0.017   1.325   0.818  1.1287 -1.4748  0.4269
13063TIP3    H260681   0.083   1.450   0.870 -3.5214  1.2227  0.3933
13064TIP3   OH260682   5.766   2.312   3.065  0.2595  0.1247  0.0358
13064TIP3    H160683   5.850   2.298   3.021  1.4415  2.3306  1.3985
13064TIP3    H260684   5.765   2.247   3.135  0.3822 -0.5551 -0.5867
13065TIP3   OH260685   0.312   0.589  14.300  0.2359  0.0940 -0.1315
13065TIP3    H160686   0.239   0.631  14.255 -1.0872 -0.1048  1.7659
13065TIP3    H260687   0.274   0.548  14.377  2.4441  0.5931  1.3304
13066TIP3   OH260688   6.047   0.433  14.153 -0.1643 -0.8620 -0.1288
13066TIP3    H160689   5.955   0.458  14.165  0.1528  0.2237  0.1379
13066TIP3    H260690   6.075   0.477  14.073  1.0034  1.4972  1.4724
13067TIP3   OH260691   1.142   0.805  11.927  0.2474  0.1336 -0.4847
13067TIP3    H160692   1.146   0.751  12.006  0.7244  0.3629 -0.3473
13067TIP3    H260693   1.182   0.750  11.860  0.0360  0.0220 -0.5215
13068TIP3   OH260694   0.133   2.219  13.145 -0.2622 -0.0439  0.1105
13068TIP3    H160695   0.144   2.314  13.146 -1.4908  0.1140  1.2825
13068TIP3    H260696   0.040   2.206  13.130 -0.2271 -1.0458  0.6872
13069TIP3   OH260697   4.390   3.530   0.324  0.0903 -0.1830  0.9972
13069TIP3    H160698   4.362   3.534   0.232 -0.0302  0.5361  1.0661
13069TIP3    H260699   4.468   3.584   0.328 -0.2081  0.2143  1.4316
13070TIP3   OH260700   5.446   1.668   4.292 -0.2203 -0.4570  0.1237
13070TIP3    H160701   5.413   1.620   4.216 -1.0397  0.3231 -0.0241
13070TIP3    H260702   5.415   1.757   4.280 -1.3976 -0.5655  1.9536
13071TIP3   OH260703   1.101   1.468   1.836 -0.0460 -0.0098 -0.1772
13071TIP3    H160704   1.037   1.518   1.887 -0.8523 -1.4282  0.2423
13071TIP3    H260705   1.177   1.460   1.893 -1.2131 -2.2297  1.1940
13072TIP3   OH260706   5.317   2.885   2.851  0.5323 -0.1148  0.5149
13072TIP3    H160707   5.304   2.813   2.912  4.8398 -1.6722 -0.0583
13072TIP3    H260708   5.396   2.929   2.882 -1.1090  3.6038 -0.0038
13073TIP3   OH260709   4.614   4.684  11.485 -0.8016 -0.0623 -0.2476
13073TIP3    H160710   4.700   4.668  11.446 -0.8368  1.2742 -0.9618
13073TIP3    H260711   4.621   4.651  11.574  0.8421  1.0480  0.0784
13074TIP3   OH260712   4.756   0.090   3.383  0.2964  0.2174 -0.2124
13074TIP3    H160713   4.790   0.160   3.328 -1.2260  2.4113  1.4720
13074TIP3    H260714   4.666   0.077   3.352 -0.4890  1.2840  1.4431
13075TIP3   OH260715   1.766   3.413   3.812 -0.5403 -0.1348 -0.0067
13075TIP3    H160716   1.852   3.436   3.849 -0.2879  1.4413 -1.4416
13075TIP3    H260717   1.785   3.390   3.721 -1.4158 -1.7847  0.1864
13076TIP3   OH260718   5.936   1.605   5.336  0.1590  0.5521  0.4273
13076TIP3    H160719   5.949   1.530   5.278  1.8709  0.2725  1.0847
13076TIP3    H260720   5.842   1.623   5.333 -0.0437 -0.5661 -1.0245
13077TIP3   OH260721   0.866   4.062  15.519  0.1646  0.2912 -0.3870
13077TIP3    H160722   0.878   4.155  15.538 -0.6023  0.7256 -1.8663
13077TIP3    H260723   0.954   4.029  15.500  0.2938  1.0317 -1.1347
13078TIP3   OH260724   3.268   5.405   5.131  0.2581  0.0762 -0.1910
13078TIP3    H160725   3.326   5.477   5.108 -0.1098 -0.2672 -2.4265
13078TIP3    H260726   3.323   5.327   5.128 -0.0583 -0.1245 -1.2893
13079TIP3   OH260727   1.002   1.329   4.870  0.7203  0.1907  0.4769
13079TIP3    H160728   1.025   1.420   4.848  0.6681 -0.2621 -1.7134
13079TIP3    H260729   0.917   1.336   4.913  1.0529  1.2207  1.0104
13080TIP3   OH260730   2.592   1.746   3.679 -0.0032 -0.0217  0.4776
13080TIP3    H160731   2.608   1.822   3.736  2.2321  0.1070 -0.2408
13080TIP3    H260732   2.612   1.671   3.734 -1.6011 -0.1017  0.9938
13081TIP3   OH260733   6.146   2.230   2.440 -0.0153 -0.6315  0.0914
13081TIP3    H160734   6.201   2.303   2.468 -1.8962  0.8430  0.1645
13081TIP3    H260735   6.207   2.168   2.401  1.4449  2.1731 -2.5052
13082TIP3   OH260736   4.121   0.873   3.563 -0.2110  0.3896 -0.1573
13082TIP3    H160737   4.210   0.876   3.600  0.5229  0.1787 -1.8392
13082TIP3    H260738   4.067   0.916   3.629  1.0720  0.1929  1.0797
13083TIP3   OH260739   4.167   4.556   2.044 -0.0210  0.0873 -0.3239
13083TIP3    H160740   4.225   4.583   1.972  0.8783 -0.3338  0.2270
13083TIP3    H260741   4.144   4.466   2.022  1.3404 -0.5106  0.5707
13084TIP3   OH260742   1.431   0.380   4.704 -0.3735  0.5132 -0.2533
13084TIP3    H160743   1.453   0.286   4.699  0.9828  0.8598 -1.4202
13084TIP3    H260744   1.507   0.420   4.747 -0.7694  1.1367 -0.1288
13085TIP3   OH260745   1.931   6.242  11.596 -0.5377  0.0484  0.2669
13085TIP3    H160746   1.858   6.229  11.534 -0.8094  0.1051  0.5754
13085TIP3    H260747   1.965   6.153  11.611 -0.2701  0.0678 -0.2064
13086TIP3   OH260748   2.388   5.320  11.037  0.0395 -0.6471 -0.4658
13086TIP3    H160749   2.431   5.261  10.975 -1.4779 -0.3205 -1.8956
13086TIP3    H260750   2.385   5.404  10.991 -0.7777 -0.3029  0.2064
13087TIP3   OH260751   5.842   5.341  12.728  0.1230 -0.3651  0.1031
13087TIP3    H160752   5.876   5.315  12.643  0.7004 -1.0885  0.5444
13087TIP3    H260753   5.807   5.429  12.714 -0.6824 -0.8570 -1.1021
13088TIP3   OH260754   4.290   2.963  17.043  0.1342  0.4904  0.5532
13088TIP3    H160755   4.302   2.916  17.126  0.2330  0.1756  0.3617
13088TIP3    H260756   4.195   2.975  17.036 -0.1745 -1.9967 -0.6382
13089TIP3   OH260757   5.071   0.135  12.301  0.4500  0.0829  0.0351
13089TIP3    H160758   5.019   0.215  12.297  0.1912 -0.0803  0.1421
13089TIP3    H260759   5.009   0.065  12.283  0.6961 -0.0893 -0.1579
13090TIP3   OH260760   3.165   5.840   0.691 -0.2655 -0.5062 -0.1413
13090TIP3    H160761   3.134   5.928   0.714 -1.2414 -0.6982 -0.6458
13090TIP3    H260762   3.232   5.820   0.756  2.1972  1.7929 -1.7538
13091TIP3   OH260763   3.563   2.954  17.038 -0.3489 -0.1928  0.0106
13091TIP3    H160764   3.574   2.937  17.132  0.2365  0.1459  0.0151
13091TIP3    H260765   3.513   3.036  17.034 -1.5633 -0.9178  0.0070
13092TIP3   OH260766   3.417   2.129  11.829 -0.0727  0.2194 -0.0152
13092TIP3    H160767   3.489   2.118  11.891 -1.1630 -1.3799  1.0726
13092TIP3    H260768   3.420   2.221  11.804  2.6304  0.0968 -0.4013
13093TIP3   OH260769   2.254   3.212   0.010  0.2866  0.1123 -0.1723
13093TIP3    H160770   2.204   3.133   0.029 -0.5303  0.7274  0.2787
13093TIP3    H260771   2.260   3.214  -0.086  1.1227 -0.9717 -0.1630
13094TIP3   OH260772   5.396   2.889  15.829 -0.2203  0.6107 -0.2384
13094TIP3    H160773   5.390   2.964  15.770  2.4281 -0.5443 -2.1843
13094TIP3    H260774   5.326   2.830  15.800 -0.4443  1.0675 -0.6500
13095TIP3   OH260775   2.069   4.904  14.920  0.1604 -0.3333  0.1900
13095TIP3    H160776   2.010   4.867  14.986  0.0676 -1.6910 -0.6201
13095TIP3    H260777   2.063   4.999  14.933 -0.1862 -0.5548  1.8265
13096TIP3   OH260778   4.959   5.209  15.576  0.1709 -0.0615  0.3960
13096TIP3    H160779   4.905   5.285  15.599  0.6480 -0.1179  1.7755
13096TIP3    H260780   4.931   5.186  15.487 -1.6426  0.2890  0.8380
13097TIP3   OH260781   1.781   5.802  16.067 -0.0690 -0.3970 -0.3819
13097TIP3    H160782   1.783   5.719  16.020 -0.3418 -0.3470 -0.4796
13097TIP3    H260783   1.752   5.866  16.002  1.2400 -0.0200 -0.6281
13098TIP3   OH260784   2.216   0.231   2.970  0.1491 -0.8355 -0.0261
13098TIP3    H160785   2.262   0.309   3.002 -0.2879  0.7829 -2.9335
13098TIP3    H260786   2.148   0.214   3.035 -0.1291  1.6348  0.4219
13099TIP3   OH260787   4.541   6.748  16.469 -0.2027 -0.0837 -0.2809
13099TIP3    H160788   4.626   6.740  16.425 -0.4041 -1.0767 -0.5027
13099TIP3    H260789   4.562   6.776  16.557  0.3933 -0.7311 -0.2095
13100TIP3   OH260790   3.899   6.632  11.791  0.7927  0.0112  0.0947
13100TIP3    H160791   3.931   6.706  11.740  0.0151  0.6453  0.4957
13100TIP3    H260792   3.892   6.561  11.728 -0.6155  0.9101 -0.8359
13101TIP3   OH260793   4.573   5.240   0.397  0.3440  0.2991  0.1063
13101TIP3    H160794   4.591   5.318   0.449 -1.8548 -0.5065  2.2248
13101TIP3    H260795   4.495   5.263   0.346  0.2350 -0.1975  0.0438
13102TIP3   OH260796   4.468   0.967   2.663 -0.4578  0.1803 -0.0437
13102TIP3    H160797   4.462   0.920   2.747 -1.5782  0.0770 -0.1652
13102TIP3    H260798   4.562   0.975   2.647 -0.1453 -3.4939 -0.8219
13103TIP3   OH260799   1.623   2.846   3.097  0.3214  0.2360  0.1020
13103TIP3    H160800   1.653   2.769   3.146  0.9079  0.8866  0.7834
13103TIP3    H260801   1.704   2.892   3.073 -0.0145  0.5315 -0.4970
13104TIP3   OH260802   5.710   3.592   3.565 -0.1089 -0.1826 -0.2445
13104TIP3    H160803   5.741   3.638   3.642  1.1305  0.1048 -0.8858
13104TIP3    H260804   5.783   3.534   3.540  0.1083  0.7652 -2.0065
13105TIP3   OH260805   0.360   4.305  13.647  0.4996 -0.0519  0.5313
13105TIP3    H160806   0.275   4.289  13.605  1.3917 -0.7822 -1.0698
13105TIP3    H260807   0.394   4.383  13.603  0.3690  0.6853  1.6859
13106TIP3   OH260808   5.099   2.538  12.518 -0.4555 -0.3270 -0.5296
13106TIP3    H160809   5.013   2.502  12.495 -0.5172 -1.7031  1.6265
13106TIP3    H260810   5.161   2.483  12.471 -0.6571 -1.6791  0.7203
13107TIP3   OH260811   4.244   2.021  16.015  0.2580 -0.3434  0.3237
13107TIP3    H160812   4.281   2.102  15.980 -4.6127  1.2154 -2.2929
13107TIP3    H260813   4.181   2.051  16.081 -2.1931 -1.7402 -1.2220
13108TIP3   OH260814   5.836   2.544  10.670  0.0045 -0.3185 -0.0830
13108TIP3    H160815   5.842   2.477  10.603 -0.9248 -2.9452  2.2341
13108TIP3    H260816   5.912   2.599  10.657  0.4517 -1.3943 -2.5357
13109TIP3   OH260817   1.211   1.608   4.469  0.1094 -0.0364  0.0899
13109TIP3    H160818   1.141   1.557   4.428  0.9391  1.9505 -4.4705
13109TIP3    H260819   1.289   1.552   4.460  0.4494  0.6805 -2.1742
13110TIP3   OH260820   5.191   6.228  14.478  0.1094  0.3125 -0.4768
13110TIP3    H160821   5.283   6.216  14.498  0.4399  2.5548 -0.4121
13110TIP3    H260822   5.146   6.160  14.529  1.8430 -3.2214 -3.2509
13111TIP3   OH260823   6.407   3.291  13.001 -0.0888 -0.6599  0.4011
13111TIP3    H160824   6.466   3.297  13.076 -0.3772 -0.1209  0.5860
13111TIP3    H260825   6.321   3.313  13.036 -0.3980 -1.3873  0.1214
13112TIP3   OH260826   2.940   0.554  15.859 -0.4367 -0.5382  0.5537
13112TIP3    H160827   2.876   0.522  15.923 -2.1634 -0.7033 -1.1493
13112TIP3    H260828   2.905   0.639  15.832  0.9185  0.0802  0.6919
13113TIP3   OH260829   2.201   5.201   1.144 -0.0344 -0.2654  0.3492
13113TIP3    H160830   2.140   5.154   1.087 -0.6979 -1.4278  1.9224
13113TIP3    H260831   2.252   5.255   1.085 -0.4892 -1.6098 -1.3786
13114TIP3   OH260832   4.005   2.818  15.610  0.3382 -0.0968 -0.7091
13114TIP3    H160833   3.998   2.805  15.516  1.5572  1.9334 -1.1354
13114TIP3    H260834   4.098   2.833  15.626  0.3888 -1.8108  1.0659
13115TIP3   OH260835   1.408   0.699  13.720 -0.0857  0.0568  0.3814
13115TIP3    H160836   1.405   0.766  13.651  0.2353 -3.5181 -3.5249
13115TIP3    H260837   1.496   0.704  13.756  0.3574  0.8733 -0.7828
13116TIP3   OH260838   3.190   2.229  14.016 -0.3582 -0.7038 -0.3391
13116TIP3    H160839   3.259   2.220  13.950 -0.8768  1.2874 -1.2254
13116TIP3    H260840   3.203   2.154  14.074  2.3781 -0.5440 -0.6118
13117TIP3   OH260841   3.643   1.549  16.736  0.5705 -0.2142  0.2773
13117TIP3    H160842   3.550   1.534  16.755 -0.3134  0.6242 -2.8315
13117TIP3    H260843   3.671   1.612  16.803 -1.4759  0.5427  0.4929
13118TIP3   OH260844   4.416   2.432   0.817 -0.5214 -0.2198  0.5712
13118TIP3    H160845   4.363   2.361   0.854 -0.2761 -1.3210 -1.0713
13118TIP3    H260846   4.491   2.439   0.877 -0.8792 -0.9055  1.1157
13119TIP3   OH260847   5.258   2.872   3.155 -0.4106 -0.0311  0.6896
13119TIP3    H160848   5.214   2.838   3.233 -0.4973 -2.1832 -0.2264
13119TIP3    H260849   5.306   2.949   3.185  0.7010 -1.5923  3.1807
13120TIP3   OH260850   0.024   6.408  10.895 -1.3807  0.2089  0.1059
13120TIP3    H160851   0.073   6.327  10.902 -0.3632  0.8839  1.0444
13120TIP3    H260852   0.008   6.418  10.801 -1.0538 -0.7968 -0.0655
13121TIP3   OH260853   0.258   5.214   4.219  0.1541 -0.1235 -0.0461
13121TIP3    H160854   0.197   5.258   4.159  1.6436  1.2436 -0.6073
13121TIP3    H260855   0.217   5.223   4.305  0.0086  1.6398 -0.2687
13122TIP3   OH260856   2.263   3.564  11.760  0.0304 -0.0865 -0.2150
13122TIP3    H160857   2.326   3.626  11.797  0.4467 -0.1645 -0.7724
13122TIP3    H260858   2.205   3.618  11.707  0.2706 -0.1444 -0.5401
13123TIP3   OH260859   4.962   4.265  14.834  0.5783 -0.3204  0.0440
13123TIP3    H160860   5.022   4.261  14.759  1.8383 -1.0356  1.0676
13123TIP3    H260861   4.990   4.343  14.883  0.6575 -0.6408  0.5130
13124TIP3   OH260862   3.264   4.973  13.061  0.3399 -0.6152 -0.7170
13124TIP3    H160863   3.239   4.978  12.969 -2.2928 -0.2029 -0.0642
13124TIP3    H260864   3.303   5.058  13.081  0.6410 -0.5966 -1.3837
13125TIP3   OH260865   0.920   3.758  17.030  0.0254  0.2818  0.0755
13125TIP3    H160866   0.941   3.719  16.945  1.1382  0.4383  0.2596
13125TIP3    H260867   0.979   3.715  17.092 -0.5768  0.3748  0.7263
13126TIP3   OH260868   6.630   1.118   2.355  0.4339 -0.5966  0.0191
13126TIP3    H160869   6.632   1.026   2.382  1.5220 -0.3107  1.0240
13126TIP3    H260870   6.650   1.116   2.261 -0.4328 -1.4323 -0.1592
13127TIP3   OH260871   6.294   3.862   5.734 -0.1171 -0.0946 -0.7148
13127TIP3    H160872   6.256   3.779   5.763  1.2118 -0.2004  0.8085
13127TIP3    H260873   6.221   3.906   5.689 -1.2523 -1.4467 -0.2887
13128TIP3   OH260874   5.360   0.186   4.317  0.7399  0.6944  0.1721
13128TIP3    H160875   5.410   0.145   4.387  1.6296  1.6221  0.1073
13128TIP3    H260876   5.422   0.195   4.245  0.3411  1.4140 -0.0921
13129TIP3   OH260877   6.597   3.152  12.270  0.0474  0.3089  0.0905
13129TIP3    H160878   6.604   3.192  12.357  1.0067  0.2210  0.0653
13129TIP3    H260879   6.503   3.143  12.256 -0.1220 -0.3414  1.4325
13130TIP3   OH260880   3.992   4.688   2.863  0.0115 -0.1011  0.2139
13130TIP3    H160881   3.933   4.626   2.821  0.5162  0.5459 -1.5779
13130TIP3    H260882   4.042   4.726   2.790  1.3065  0.7343  1.4784
13131TIP3   OH260883   1.215   1.055   5.247 -0.4381  0.5674  0.0426
13131TIP3    H160884   1.166   1.077   5.168  0.4600  0.9717 -0.4171
13131TIP3    H260885   1.305   1.083   5.229 -0.3935  1.5684  1.5759
13132TIP3   OH260886   0.996   0.386   0.954  0.2271  0.5465  0.8010
13132TIP3    H160887   1.044   0.307   0.976  0.7522  0.2149 -1.3487
13132TIP3    H260888   1.064   0.452   0.938 -0.1831  1.1801  1.5341
13133TIP3   OH260889   4.552   0.335  16.827 -0.0950  0.2351 -0.4434
13133TIP3    H160890   4.627   0.278  16.808 -0.9542 -0.6144 -1.4847
13133TIP3    H260891   4.590   0.421  16.843  1.1147 -0.2046 -0.8427
13134TIP3   OH260892   6.565   0.442   5.544 -0.2861 -0.4971 -0.1203
13134TIP3    H160893   6.654   0.475   5.535 -0.9728  1.5771  0.2989
13134TIP3    H260894   6.555   0.426   5.638 -0.1476 -1.4028 -0.2511
13135TIP3   OH260895   0.863   3.289  12.777 -0.5322 -0.1330 -0.4528
13135TIP3    H160896   0.855   3.195  12.760  1.5028 -0.6328  0.9618
13135TIP3    H260897   0.854   3.297  12.872  2.2105  0.6359 -0.1674
13136TIP3   OH260898   4.227   6.717   4.075  0.1020  0.0796 -0.0087
13136TIP3    H160899   4.232   6.715   3.979 -1.4206  1.8003 -0.1830
13136TIP3    H260900   4.295   6.778   4.101  0.0785  0.1248 -0.0517
13137TIP3   OH260901   6.108   3.279   1.506  0.2102 -0.3360 -0.4055
13137TIP3    H160902   6.183   3.230   1.472  0.6576 -0.8735  1.2426
13137TIP3    H260903   6.145   3.358   1.544 -0.1595 -0.1766 -0.3686
13138TIP3   OH260904   6.673   0.648   1.341 -0.4937  0.5766 -0.4894
13138TIP3    H160905   6.660   0.590   1.415  1.5414 -0.5266 -0.9316
13138TIP3    H260906   6.632   0.603   1.267  1.0636 -0.3589 -0.8273
13139TIP3   OH260907   4.155   1.727  14.741  0.4829 -0.3799  0.2571
13139TIP3    H160908   4.183   1.757  14.655 -0.3260 -0.9826 -0.2225
13139TIP3    H260909   4.124   1.806  14.786 -1.0783 -0.3590 -0.7802
13140TIP3   OH260910   3.426   6.106   4.696 -0.4732 -0.3968  0.7061
13140TIP3    H160911   3.381   6.170   4.751 -2.2857 -1.7965  0.9382
13140TIP3    H260912   3.366   6.031   4.692  0.3374 -0.9987 -1.8320
13141TIP3   OH260913   4.230   1.792  12.443  0.4067  0.7180  0.1649
13141TIP3    H160914   4.196   1.824  12.360  1.5948  0.1805 -0.5608
13141TIP3    H260915   4.301   1.733  12.419  2.2363  2.1987  1.5623
13142TIP3   OH260916   0.368   0.761   5.433  0.6844  0.1476  0.0345
13142TIP3    H160917   0.364   0.709   5.514  1.3568 -1.2030 -0.7620
13142TIP3    H260918   0.299   0.826   5.443  0.0195 -0.7006  1.2170
13143TIP3   OH260919   0.617   2.667   5.407 -0.0570 -0.2720 -0.5538
13143TIP3    H160920   0.669   2.655   5.486  0.3259 -3.0476 -1.1507
13143TIP3    H260921   0.677   2.706   5.344  0.4622 -0.7453 -0.3559
13144TIP3   OH260922   1.378   2.111  11.497  0.1059  0.4356 -0.2809
13144TIP3    H160923   1.385   2.176  11.567  0.4974  0.4556 -0.3405
13144TIP3    H260924   1.449   2.050  11.513  1.5458  1.6109 -1.8777
13145TIP3   OH260925   5.265   5.563   5.412  0.6052  0.0322 -0.2892
13145TIP3    H160926   5.236   5.562   5.504 -2.2564  3.4033 -0.9206
13145TIP3    H260927   5.236   5.479   5.377 -2.2474  0.3491  0.9780
13146TIP3   OH260928   2.431   5.434   4.834  0.3923 -0.8470  0.0877
13146TIP3    H160929   2.383   5.365   4.881 -0.3542 -0.0199  0.5665
13146TIP3    H260930   2.375   5.456   4.760  0.2521 -0.2312  0.3679
13147TIP3   OH260931   1.095   4.271   0.198 -0.1242 -0.4205  0.5520
13147TIP3    H160932   1.129   4.352   0.236  0.7870 -1.3604  1.7922
13147TIP3    H260933   1.041   4.233   0.268 -0.5471 -0.8934 -0.0262
13148TIP3   OH260934   0.938   4.791  11.372  0.6586  0.5201  0.1579
13148TIP3    H160935   0.988   4.860  11.417  0.5435  1.3709 -0.9643
13148TIP3    H260936   0.972   4.709  11.409  1.7062  1.1287  0.6115
13149TIP3   OH260937   6.537   3.299   3.648 -0.0878  0.3713 -0.2281
13149TIP3    H160938   6.503   3.382   3.615 -0.5018 -0.0248 -0.8203
13149TIP3    H260939   6.460   3.242   3.653  0.4475 -0.5145 -1.5149
13150TIP3   OH260940   2.585   5.851   2.491 -0.2889 -0.2107 -0.6813
13150TIP3    H160941   2.574   5.945   2.477  1.0349 -0.0554 -0.7894
13150TIP3    H260942   2.552   5.811   2.411  1.0331  0.3002 -1.5264
13151TIP3   OH260943   3.207   5.037  17.145  0.1307 -0.3683  0.2818
13151TIP3    H160944   3.198   4.945  17.122  0.3647 -0.5023  0.7141
13151TIP3    H260945   3.240   5.036  17.235  0.3839  0.1322  0.1959
13152TIP3   OH260946   3.802   5.983  17.259  0.0800 -0.2836  0.1510
13152TIP3    H160947   3.713   5.988  17.224  0.2454 -2.0843 -0.6029
13152TIP3    H260948   3.858   6.009  17.185  0.2844 -1.3816 -0.0945
13153TIP3   OH260949   2.949   5.727  10.310  0.0103 -0.1592  0.0705
13153TIP3    H160950   3.014   5.779  10.356 -0.5276 -1.1259  2.0685
13153TIP3    H260951   2.898   5.790  10.259 -1.5232  1.6176  3.4698
13154TIP3   OH260952   2.639   0.353   2.862 -0.1495  0.0336 -0.2479
13154TIP3    H160953   2.625   0.265   2.896 -0.1994  0.3844  0.6784
13154TIP3    H260954   2.588   0.356   2.781  0.4982 -1.0384 -0.7136
13155TIP3   OH260955   2.080   1.898   4.894  0.1767  0.9470  0.0355
13155TIP3    H160956   2.170   1.930   4.892  0.1165  1.0864 -1.3433
13155TIP3    H260957   2.084   1.813   4.849 -0.6597  1.7708 -1.6771
13156TIP3   OH260958   0.055   1.187   1.601 -0.2032  0.3206  0.3721
13156TIP3    H160959  -0.021   1.167   1.547 -0.1376  1.8760 -0.3531
13156TIP3    H260960   0.130   1.157   1.549 -0.2263  0.4463  0.2649
13157TIP3   OH260961   6.541   4.604   4.941  0.2303  0.3827  0.1784
13157TIP3    H160962   6.611   4.559   4.988  1.6209  0.2441 -1.8912
13157TIP3    H260963   6.500   4.536   4.888 -1.6183  0.4438  1.4129
13158TIP3   OH260964   4.550   6.182   3.086  0.3147 -0.0025  0.2582
13158TIP3    H160965   4.462   6.200   3.052  0.3057 -1.2921 -0.4867
13158TIP3    H260966   4.536   6.128   3.164  0.4353 -0.0274  0.2633
13159TIP3   OH260967   6.640   2.754   2.245 -0.3244  0.0928  0.0522
13159TIP3    H160968   6.607   2.813   2.178 -0.4699  0.3322  0.3321
13159TIP3    H260969   6.734   2.773   2.250 -0.3307  0.1393 -0.0199
13160TIP3   OH260970   5.505   2.424  15.647 -0.3758 -0.0003  0.6796
13160TIP3    H160971   5.594   2.456  15.633 -0.4557  0.1195  0.4447
13160TIP3    H260972   5.449   2.496  15.620 -0.5798 -0.6898 -0.8212
13161TIP3   OH260973   5.208   4.845   4.045 -0.4461  0.4216  0.4618
13161TIP3    H160974   5.182   4.853   3.953 -1.1979 -1.7734  0.4139
13161TIP3    H260975   5.237   4.754   4.053 -1.2592  0.3135  2.5904
13162TIP3   OH260976   3.254   3.734   0.675  0.5466 -0.2355  0.3949
13162TIP3    H160977   3.172   3.692   0.701 -0.2554  0.3084 -1.1706
13162TIP3    H260978   3.279   3.690   0.594  0.9622  0.6752  0.0112
13163TIP3   OH260979   5.360   6.195   6.696 -0.0617  0.0388  0.1772
13163TIP3    H160980   5.268   6.208   6.674 -0.5378  0.2389  2.0950
13163TIP3    H260981   5.388   6.123   6.640 -2.0232 -1.5646  1.1296
13164TIP3   OH260982   6.008   3.865  10.334  0.3953  0.2198 -0.6709
13164TIP3    H160983   6.033   3.938  10.391  1.4536 -1.0319  0.5256
13164TIP3    H260984   5.916   3.884  10.311 -0.0155  0.8696  1.2898
13165TIP3   OH260985   5.625   4.900  16.558  0.8305 -0.1560  0.4597
13165TIP3    H160986   5.629   4.973  16.620 -1.1835  0.2826  0.1610
13165TIP3    H260987   5.695   4.917  16.496  1.9211  0.2064  1.7306
13166TIP3   OH260988   1.379   3.456  12.063  0.0358  0.4806  0.2813
13166TIP3    H160989   1.416   3.515  12.128  2.9525 -0.8475 -0.0420
13166TIP3    H260990   1.366   3.511  11.985 -0.5440  1.3804  0.9860
13167TIP3   OH260991   2.902   4.135   6.212  0.0588 -0.3700  0.0647
13167TIP3    H160992   2.813   4.108   6.235  0.0790 -1.2565 -0.8189
13167TIP3    H260993   2.958   4.077   6.264  0.1140 -0.6487 -0.3068
13168TIP3   OH260994   6.119   6.617  14.298 -0.3175  0.0516  0.2430
13168TIP3    H160995   6.135   6.633  14.391 -0.6280 -0.3936  0.3798
13168TIP3    H260996   6.028   6.644  14.285  0.0955  1.2836 -0.2176
13169TIP3   OH260997   4.182   0.083   3.211  0.0944 -0.6718  0.6413
13169TIP3    H160998   4.167   0.141   3.286 -0.0455 -0.0757  0.1603
13169TIP3    H260999   4.100   0.034   3.202 -1.2183  1.6104 -1.1380
13170TIP3   OH261000   0.119   0.806  15.367  0.0784  0.0135  0.2131
13170TIP3    H161001   0.082   0.729  15.324  1.0873 -1.1760  1.3848
13170TIP3    H261002   0.185   0.837  15.306 -0.7431  0.3346 -0.5370
13171TIP3   OH261003   6.552   1.530  12.235 -0.0926 -0.7372 -0.4816
13171TIP3    H161004   6.467   1.494  12.261 -0.4238 -0.0240 -0.5335
13171TIP3    H261005   6.547   1.536  12.140  0.1577 -1.0280 -0.5141
13172TIP3   OH261006   2.371   1.404  11.280 -0.0122 -0.0756 -0.2311
13172TIP3    H161007   2.416   1.321  11.267  0.8186  0.3895 -0.3624
13172TIP3    H261008   2.420   1.468  11.228 -0.8358  0.4438 -0.4007
13173TIP3   OH261009   4.973   0.212  11.301 -0.2834 -0.1908 -0.5086
13173TIP3    H161010   5.048   0.212  11.360  0.4917  0.3018 -1.4720
13173TIP3    H261011   4.905   0.166  11.349  0.8643 -1.3088  0.1069
13174TIP3   OH261012   6.433   3.555  13.991 -0.5936  0.0743 -0.4369
13174TIP3    H161013   6.520   3.536  13.956  0.4615 -0.8094  2.4346
13174TIP3    H261014   6.385   3.593  13.916  2.1427  0.3906 -2.1624
13175TIP3   OH261015   6.014   0.857   4.999 -0.5028 -0.5048  0.1065
13175TIP3    H161016   5.923   0.870   5.025  0.0021  1.3270  1.0890
13175TIP3    H261017   6.045   0.785   5.055 -0.9098 -0.0909  0.8693
13176TIP3   OH261018   6.304   4.774   3.899  0.3902  0.1274 -0.2693
13176TIP3    H161019   6.307   4.689   3.855  2.7664 -0.1511  0.2705
13176TIP3    H261020   6.279   4.754   3.989  0.6654  0.0176 -0.2154
13177TIP3   OH261021   6.034   1.222   5.431 -0.3871 -0.4184  0.2007
13177TIP3    H161022   5.942   1.246   5.420  0.1132  1.2221 -0.9137
13177TIP3    H261023   6.047   1.149   5.371 -1.4322 -2.1451  1.9808
13178TIP3   OH261024   2.481   2.773  12.295  0.7043  0.0092  0.4544
13178TIP3    H161025   2.541   2.778  12.370 -0.4113 -1.8808  1.5306
13178TIP3    H261026   2.466   2.680  12.282 -0.4346  0.3695 -1.1035
13179TIP3   OH261027   4.492   3.021   0.343  0.4012 -0.3780 -0.1270
13179TIP3    H161028   4.450   3.106   0.357 -1.8191 -1.3773 -0.3693
13179TIP3    H261029   4.506   3.016   0.248  0.4376 -0.3178 -0.1246
13180TIP3   OH261030   6.616   3.631  15.553  0.2338  0.5675 -0.3933
13180TIP3    H161031   6.624   3.686  15.631 -0.4616 -0.4202  0.3985
13180TIP3    H261032   6.679   3.669  15.491 -0.2554  2.2767  0.0911
13181TIP3   OH261033   3.753   4.685  11.137 -0.0559  0.5479  0.0245
13181TIP3    H161034   3.839   4.706  11.102  1.0857 -2.5427  0.6858
13181TIP3    H261035   3.696   4.681  11.060  1.2078 -0.7256 -0.9029
13182TIP3   OH261036   0.354   1.746  12.244  0.5688  0.2698  0.4156
13182TIP3    H161037   0.400   1.679  12.193 -2.6865 -2.3750  0.5709
13182TIP3    H261038   0.354   1.823  12.188  0.2288 -1.4179 -2.1176
13183TIP3   OH261039   4.242   4.301  15.305 -0.1346  0.0513 -0.4194
13183TIP3    H161040   4.218   4.328  15.216 -1.8696 -0.4022 -0.1318
13183TIP3    H261041   4.333   4.273  15.298 -0.8493 -2.0505 -2.5624
13184TIP3   OH261042   3.182   5.858  11.137 -0.1253  0.6846  0.5499
13184TIP3    H161043   3.240   5.922  11.177  1.7824 -0.7944  0.2826
13184TIP3    H261044   3.215   5.847  11.048 -0.1673 -0.9143  0.7025
13185TIP3   OH261045   4.413   5.893  15.847 -0.0236 -0.1579 -0.1725
13185TIP3    H161046   4.455   5.812  15.876  0.1662 -0.6438 -1.7048
13185TIP3    H261047   4.324   5.868  15.823  0.3619 -0.1623 -1.6840
13186TIP3   OH261048   0.789   5.585  15.040 -0.5843  0.3602  0.4951
13186TIP3    H161049   0.840   5.599  14.960  2.7068  2.9360  2.8374
13186TIP3    H261050   0.823   5.503  15.076 -0.7367  0.1885  0.2580
13187TIP3   OH261051   6.291   1.998  12.738  0.0689  0.3271 -0.3112
13187TIP3    H161052   6.249   1.924  12.782 -0.7421  0.3998 -0.9386
13187TIP3    H261053   6.332   2.048  12.809  0.9458 -0.9087  0.0795
13188TIP3   OH261054   5.059   6.658  14.255  0.3989  0.0369 -0.1260
13188TIP3    H161055   5.064   6.752  14.275  0.3920 -0.0990  0.5176
13188TIP3    H261056   5.148   6.626  14.271 -0.0053 -0.3936  1.3110
13189TIP3   OH261057   5.638   3.865  14.228  0.2886 -0.2117 -0.5382
13189TIP3    H161058   5.547   3.853  14.254  0.3829 -1.2276 -0.6541
13189TIP3    H261059   5.638   3.948  14.181 -0.4440  0.1429  0.0584
13190TIP3   OH261060   0.776   1.034   2.166  0.3773  0.2600  0.2508
13190TIP3    H161061   0.752   0.942   2.171 -0.6522  0.5040  0.0491
13190TIP3    H261062   0.749   1.070   2.251  0.5425  0.4301  0.2326
13191TIP3   OH261063   5.814   3.363   2.629 -0.3845  0.0984  0.1447
13191TIP3    H161064   5.819   3.377   2.534  0.9117 -0.5426  0.0978
13191TIP3    H261065   5.848   3.445   2.666 -2.6490  1.1130  0.1401
13192TIP3   OH261066   6.074   2.246  14.832  0.4999  0.5338  0.2412
13192TIP3    H161067   6.132   2.308  14.788  0.6706  0.7310  0.7341
13192TIP3    H261068   6.038   2.192  14.762  1.2314  0.4485 -0.0728
13193TIP3   OH261069   2.558   1.429  12.419 -0.4960  0.2538  0.1210
13193TIP3    H161070   2.555   1.436  12.324  1.3014  2.2847  0.1499
13193TIP3    H261071   2.503   1.353  12.439 -2.4256  0.8488 -2.3816
13194TIP3   OH261072   5.224   4.339   1.981  0.1568 -0.1487 -0.4314
13194TIP3    H161073   5.233   4.315   2.074  1.9839  1.1805 -0.1998
13194TIP3    H261074   5.314   4.344   1.949 -0.2958  1.9233 -1.5849
13195TIP3   OH261075   5.174   5.050   2.500 -0.2712  0.1743 -0.3211
13195TIP3    H161076   5.248   5.106   2.524 -0.6630  0.7138 -0.3615
13195TIP3    H261077   5.204   5.002   2.423 -0.9387  2.4911 -2.1358
13196TIP3   OH261078   1.444   6.732  11.632  0.1247  0.4007 -0.1013
13196TIP3    H161079   1.349   6.738  11.642  0.2059  1.8010  0.1178
13196TIP3    H261080   1.465   6.795  11.563  1.0211  1.2815  0.9255
13197TIP3   OH261081   2.871   5.725   4.135  0.1569 -0.4333  0.4609
13197TIP3    H161082   2.852   5.663   4.206 -1.2506 -0.9301 -0.3050
13197TIP3    H261083   2.838   5.809   4.167  2.3151  0.0488  1.6146
13198TIP3   OH261084   3.770   2.064  14.320  0.6195  0.2008 -0.1426
13198TIP3    H161085   3.733   2.152  14.313 -1.9326 -0.7970 -0.2088
13198TIP3    H261086   3.756   2.040  14.412 -0.3064 -0.7583 -0.5157
13199TIP3   OH261087   0.061   0.748   4.152 -0.0830  0.1187  0.2785
13199TIP3    H161088   0.124   0.762   4.081  0.2616 -1.8671  0.1283
13199TIP3    H261089   0.100   0.791   4.228  0.4400  0.6837 -0.2925
13200TIP3   OH261090   4.825   3.000  13.414  0.0832 -0.1968 -0.2929
13200TIP3    H161091   4.811   2.925  13.472 -0.2707 -0.4684 -0.7269
13200TIP3    H261092   4.816   3.076  13.472  0.9676 -0.4900  0.2557
13201TIP3   OH261093   6.172   0.771   2.486 -0.5891 -0.0752 -0.2130
13201TIP3    H161094   6.183   0.847   2.430  4.0093  0.7322  1.3529
13201TIP3    H261095   6.129   0.805   2.565 -2.0079 -0.0142 -0.9874
13202TIP3   OH261096   1.784   2.903  13.446 -0.2590  0.0377 -0.0625
13202TIP3    H161097   1.772   2.908  13.351 -0.6729 -3.5858 -0.3064
13202TIP3    H261098   1.824   2.988  13.468 -1.9141  1.8121 -3.1082
13203TIP3   OH261099   1.614   3.670  15.801 -0.1449 -0.3118  0.1054
13203TIP3    H161100   1.612   3.701  15.892 -2.1763 -0.8721  0.3146
13203TIP3    H261101   1.668   3.592  15.803  0.0043 -0.1985  0.7865
13204TIP3   OH261102   0.276   1.272  12.405 -0.3714  0.1435  0.4614
13204TIP3    H161103   0.360   1.318  12.411 -0.9447  1.0553  2.0428
13204TIP3    H261104   0.211   1.341  12.393 -1.0558 -0.4161  0.8649
13205TIP3   OH261105   3.687   0.540  13.983 -0.4804  0.4990  0.2596
13205TIP3    H161106   3.688   0.547  14.079 -1.1845 -0.3575  0.3373
13205TIP3    H261107   3.607   0.585  13.957  0.4138  1.9747 -0.0554
13206TIP3   OH261108   2.226   2.917  11.623 -0.0359  0.0295 -0.6206
13206TIP3    H161109   2.254   3.007  11.635  1.1978 -0.6230  2.3553
13206TIP3    H261110   2.292   2.878  11.565 -0.0961  0.8077 -1.2206
13207TIP3   OH261111   1.856   0.382  15.235  0.9395 -0.6937 -0.3283
13207TIP3    H161112   1.786   0.323  15.261  0.6673  0.0398  0.6892
13207TIP3    H261113   1.845   0.392  15.141 -0.0457 -0.9524 -0.2559
13208TIP3   OH261114   3.992   0.717   0.203 -0.0989 -0.1205 -0.6089
13208TIP3    H161115   3.977   0.626   0.230 -0.7937 -0.1465 -1.0625
13208TIP3    H261116   3.914   0.740   0.151  0.3020  0.5683 -0.9178
13209TIP3   OH261117   2.437   5.093   0.374  0.6879  0.5834 -0.3634
13209TIP3    H161118   2.500   5.025   0.398  0.8830  1.4853  1.9000
13209TIP3    H261119   2.352   5.058   0.401  0.5015  0.3816 -1.1744
13210TIP3   OH261120   3.824   3.663   0.060  0.2586  0.3181 -0.1645
13210TIP3    H161121   3.795   3.627  -0.024  0.4286 -1.4960  0.5159
13210TIP3    H261122   3.889   3.729   0.036 -1.1950  1.3537 -1.5252
13211TIP3   OH261123   1.726   4.783  10.671  0.4336 -0.3548  0.4327
13211TIP3    H161124   1.768   4.701  10.698 -0.1518 -0.8963 -0.2602
13211TIP3    H261125   1.639   4.757  10.642 -0.3933  0.7469  1.8124
13212TIP3   OH261126   1.825   2.857  15.530 -0.0016 -0.3271  0.4797
13212TIP3    H161127   1.827   2.902  15.614 -0.3062  1.4644 -0.4190
13212TIP3    H261128   1.802   2.925  15.467 -1.9667 -2.0542 -0.7935
13213TIP3   OH261129   1.241   0.795  14.607  0.2340 -0.4313 -0.1846
13213TIP3    H161130   1.252   0.858  14.536 -1.3779 -0.9256 -0.9340
13213TIP3    H261131   1.297   0.721  14.583 -0.5455 -0.7307 -1.1406
13214TIP3   OH261132   5.631   2.415   5.604 -0.6963 -0.3747 -0.9780
13214TIP3    H161133   5.647   2.407   5.510 -0.1009  1.2229 -1.0476
13214TIP3    H261134   5.537   2.406   5.614 -0.7614 -0.5471 -1.7403
13215TIP3   OH261135   4.329   0.610   5.511  0.3995  0.4409 -0.3914
13215TIP3    H161136   4.379   0.531   5.530 -1.0178  0.0728  2.3170
13215TIP3    H261137   4.243   0.577   5.484 -0.5050  0.9488  1.6565
13216TIP3   OH261138   5.236   4.743  17.303  0.0558  0.0850 -0.3009
13216TIP3    H161139   5.246   4.679  17.374 -1.6529  0.6588  0.5032
13216TIP3    H261140   5.302   4.810  17.323  0.0885 -0.1244  0.3257
13217TIP3   OH261141   1.155   2.500   4.461  0.6584 -0.2690  0.2039
13217TIP3    H161142   1.069   2.458   4.453  0.8673 -0.3032 -2.8543
13217TIP3    H261143   1.156   2.534   4.550 -1.6399 -2.1513  1.0682
13218TIP3   OH261144   2.570   3.941   1.712 -0.4331 -0.2297 -0.3766
13218TIP3    H161145   2.662   3.917   1.715 -0.0822  1.0388  2.5691
13218TIP3    H261146   2.525   3.867   1.753 -0.7588 -0.8420 -1.8003
13219TIP3   OH261147   4.108   2.150  12.697 -0.1976 -0.5092 -0.1724
13219TIP3    H161148   4.109   2.180  12.606  1.0886  0.3108  0.1002
13219TIP3    H261149   4.122   2.228  12.749  0.0111 -1.1138  0.6991
13220TIP3   OH261150   4.472   0.884  12.707  0.5339 -0.3580  0.3042
13220TIP3    H161151   4.486   0.954  12.770 -3.6704  0.3202  0.7801
13220TIP3    H261152   4.478   0.804  12.759  0.2063 -0.0047  0.8937
13221TIP3   OH261153   1.120   3.399   5.407  0.0706 -0.0357 -0.4427
13221TIP3    H161154   1.154   3.318   5.368 -0.9976 -0.6211 -0.1859
13221TIP3    H261155   1.025   3.390   5.401 -0.0657  1.5387 -1.0979
13222TIP3   OH261156   0.338   3.125   0.391  0.4908  0.2912  0.3161
13222TIP3    H161157   0.406   3.086   0.446  3.0299  2.1246 -1.2786
13222TIP3    H261158   0.323   3.060   0.322 -0.8522 -0.9155  1.6609
13223TIP3   OH261159   4.332   5.641   1.324  0.2802  0.0203  0.2328
13223TIP3    H161160   4.400   5.686   1.274  0.3597 -3.4039 -3.3038
13223TIP3    H261161   4.250   5.668   1.283  0.0854 -0.4926  0.2680
13224TIP3   OH261162   2.783   1.884  11.150 -0.1607  0.1811  0.1225
13224TIP3    H161163   2.847   1.955  11.154  1.0397 -0.7596 -1.2453
13224TIP3    H261164   2.704   1.924  11.114 -0.5959  1.4739  2.2891
13225TIP3   OH261165   0.107   0.012   3.740  0.4315  0.6690 -0.9331
13225TIP3    H161166   0.030  -0.006   3.794  0.9750  2.1121  0.4231
13225TIP3    H261167   0.122  -0.069   3.692  1.7739 -2.0177  3.4039
13226TIP3   OH261168   3.479   3.250   4.048 -0.0158  0.5158 -0.2412
13226TIP3    H161169   3.503   3.171   4.096 -0.9254 -0.1106 -0.7923
13226TIP3    H261170   3.391   3.271   4.079 -0.3044  0.5454 -1.0382
13227TIP3   OH261171   4.706   0.707  13.001 -0.1803  0.2413 -0.0164
13227TIP3    H161172   4.741   0.761  12.930  0.2445  0.0292  0.0264
13227TIP3    H261173   4.631   0.661  12.962 -0.2027  0.4406 -0.2081
13228TIP3   OH261174   3.133   0.006  10.973  0.3379  0.0713  0.4833
13228TIP3    H161175   3.119  -0.082  10.938  1.2274 -0.1969  0.7717
13228TIP3    H261176   3.090   0.064  10.910 -1.3744 -0.6213  0.9355
13229TIP3   OH261177   0.153   4.919  16.997  0.0920 -0.2571  0.2733
13229TIP3    H161178   0.123   4.865  16.925  0.1307  0.2066 -0.0947
13229TIP3    H261179   0.176   5.003  16.957  0.8866 -0.2590  0.7027
13230TIP3   OH261180   6.191   2.613   5.706  0.1529  0.3918  0.2141
13230TIP3    H161181   6.179   2.583   5.796  2.2144  0.9148  0.7196
13230TIP3    H261182   6.267   2.671   5.710 -0.2638  1.1426 -1.7216
13231TIP3   OH261183   5.922   0.417   2.924  0.6330 -0.5323  0.3482
13231TIP3    H161184   5.883   0.492   2.879  1.8269  0.5086  0.9800
13231TIP3    H261185   5.847   0.361   2.946 -0.5045  1.2162  1.2165
13232TIP3   OH261186   5.444   6.767   5.359  0.0911 -0.0526 -0.2286
13232TIP3    H161187   5.385   6.692   5.351 -1.1559  0.9680 -0.9760
13232TIP3    H261188   5.413   6.815   5.435 -0.6252  0.9466 -1.1173
13233TIP3   OH261189   5.255   5.846  13.381  0.1101 -0.1794 -0.6649
13233TIP3    H161190   5.268   5.790  13.304  1.5158 -0.2959 -0.3855
13233TIP3    H261191   5.197   5.797  13.438 -1.2314  0.0596 -1.7855
13234TIP3   OH261192   1.558   6.393  16.397  0.3417 -0.2198  0.5876
13234TIP3    H161193   1.555   6.486  16.420  0.8856  0.2039 -0.9568
13234TIP3    H261194   1.651   6.372  16.397  0.5223  0.1976 -2.5355
13235TIP3   OH261195   3.796   4.942   5.740  0.3140 -0.1781 -0.1399
13235TIP3    H161196   3.852   4.891   5.799  0.3081 -2.3189 -1.8506
13235TIP3    H261197   3.853   5.011   5.705  1.4855 -1.3811 -0.6732
13236TIP3   OH261198   4.516   4.367  16.914 -0.0983 -0.3030 -0.3466
13236TIP3    H161199   4.462   4.445  16.921  0.7641  0.3412 -0.7288
13236TIP3    H261200   4.605   4.398  16.928  0.0940 -1.5252  1.4654
13237TIP3   OH261201   5.810   2.479  14.180  0.0924 -0.5216  0.1077
13237TIP3    H161202   5.834   2.510  14.092  0.2838  0.2896  0.4367
13237TIP3    H261203   5.769   2.555  14.221  0.0260 -0.8949  0.7298
13238TIP3   OH261204   5.036   1.725  13.073 -0.8748  0.2521 -0.1096
13238TIP3    H161205   4.951   1.765  13.055 -0.6378  0.2337 -1.3538
13238TIP3    H261206   5.086   1.795  13.116 -1.6383  0.1266  1.0317
13239TIP3   OH261207   4.205   2.970  14.939 -0.1918 -0.2087  0.3076
13239TIP3    H161208   4.193   3.065  14.944  2.0571  0.1827 -0.5537
13239TIP3    H261209   4.202   2.951  14.845 -3.7259 -1.5463  0.5304
13240TIP3   OH261210   4.635   4.997   0.504 -0.6228 -0.0775 -0.3964
13240TIP3    H161211   4.643   4.963   0.415  0.5182 -1.0886  0.0747
13240TIP3    H261212   4.633   5.092   0.493  1.3980 -0.1018 -1.3822
13241TIP3   OH261213   5.893   2.188  12.370 -0.6254  0.0879  0.0683
13241TIP3    H161214   5.841   2.261  12.406 -0.1239  0.4018  0.1654
13241TIP3    H261215   5.974   2.190  12.420  0.2799  0.8139 -1.3559
13242TIP3   OH261216   1.813   6.447  15.100 -0.1687  0.2022  0.4206
13242TIP3    H161217   1.851   6.387  15.164 -1.7485  0.3787  1.5908
13242TIP3    H261218   1.866   6.435  15.021  0.7211 -1.3374  1.2059
13243TIP3   OH261219   6.601   3.284   0.460  0.5562 -0.8722 -0.2667
13243TIP3    H161220   6.509   3.264   0.473  0.6682 -1.2026  0.0648
13243TIP3    H261221   6.632   3.217   0.399  0.7065 -1.1244  0.0787
13244TIP3   OH261222   6.520   6.468   4.324  0.1331 -1.0757 -0.5533
13244TIP3    H161223   6.483   6.555   4.310  0.5610 -0.5112  1.4932
13244TIP3    H261224   6.613   6.478   4.303  0.3582 -0.7746  0.5128
13245TIP3   OH261225   1.981   1.145   0.746  0.5767 -0.1092  0.3082
13245TIP3    H161226   1.907   1.155   0.686  1.9615 -0.2390 -1.4872
13245TIP3    H261227   1.940   1.137   0.833 -1.5530 -1.2518 -0.7255
13246TIP3   OH261228   5.267   5.230   5.139  0.2433 -0.2270 -0.3450
13246TIP3    H161229   5.352   5.187   5.140  0.5173  0.2215 -1.5347
13246TIP3    H261230   5.217   5.184   5.071  0.0310  0.3941 -0.6186
13247TIP3   OH261231   3.445   5.718  11.284  0.1583  0.1276  0.1183
13247TIP3    H161232   3.540   5.712  11.269  0.2132  1.1382  0.0105
13247TIP3    H261233   3.431   5.808  11.312 -1.0410  0.6215 -1.8912
13248TIP3   OH261234   2.016   6.255  16.143  0.4748 -0.1336  0.2767
13248TIP3    H161235   2.088   6.275  16.204  0.6379 -2.5238  0.9796
13248TIP3    H261236   2.059   6.240  16.059  0.6207 -0.1306  0.3509
13249TIP3   OH261237   5.163   4.674   1.308 -0.0883 -0.5585 -0.6129
13249TIP3    H161238   5.152   4.769   1.311 -0.6369 -0.6424  0.8591
13249TIP3    H261239   5.080   4.642   1.272 -0.0028 -0.4992 -0.8640
13250TIP3   OH261240   3.749   4.940  11.691 -0.2646  0.5992 -0.0017
13250TIP3    H161241   3.699   4.869  11.732 -0.1646  0.0265 -0.8655
13250TIP3    H261242   3.691   5.016  11.695 -0.2351  0.5798  1.2554
13251TIP3   OH261243   5.445   4.735   2.809 -0.5096 -0.8467  0.3538
13251TIP3    H161244   5.500   4.757   2.884 -0.1555 -1.4320  0.2721
13251TIP3    H261245   5.491   4.663   2.766 -1.1576 -1.0967  0.0690
13252TIP3   OH261246   4.177   5.784   4.366  0.4396  0.5715 -0.5297
13252TIP3    H161247   4.253   5.831   4.399 -0.6553  0.1701  3.0088
13252TIP3    H261248   4.172   5.706   4.420 -0.4029 -1.3587 -3.2174
13253TIP3   OH261249   6.498   4.509  17.078  0.5334  0.5282  0.4545
13253TIP3    H161250   6.575   4.476  17.032  0.8306  1.1768  0.4752
13253TIP3    H261251   6.456   4.431  17.114  0.2394 -0.0075 -0.9938
13254TIP3   OH261252   0.730   5.301  17.109 -0.1509  0.0053  0.2739
13254TIP3    H161253   0.701   5.294  17.200  0.6016  1.4659  0.6432
13254TIP3    H261254   0.749   5.210  17.083 -1.5126 -0.5712  1.1630
13255TIP3   OH261255   3.492   0.727  13.862  0.6534 -0.2725  0.2198
13255TIP3    H161256   3.530   0.812  13.836  0.7492  0.2172  1.8504
13255TIP3    H261257   3.404   0.729  13.827  0.4980  0.7248  0.6089
13256TIP3   OH261258   2.664   1.646  16.758 -0.4725  0.2437  0.1849
13256TIP3    H161259   2.619   1.622  16.677  0.7538  2.5091 -1.2772
13256TIP3    H261260   2.718   1.569  16.780 -1.5862 -0.7776 -0.5287
13257TIP3   OH261261   1.467   0.934  11.659  0.2066  0.2184 -0.3503
13257TIP3    H161262   1.429   0.853  11.694 -2.4621  2.3291  2.1013
13257TIP3    H261263   1.395   0.979  11.616  1.2102  2.0371 -0.2490
13258TIP3   OH261264   4.885   4.665  15.784  0.3815  0.6122  0.1159
13258TIP3    H161265   4.894   4.580  15.742 -2.2233  0.1619  0.3106
13258TIP3    H261266   4.932   4.656  15.868  1.2052 -0.1742 -0.4159
13259TIP3   OH261267   2.954   3.431  13.311  0.0985  0.6939 -0.4788
13259TIP3    H161268   2.917   3.450  13.397  1.8098 -1.0977  0.7301
13259TIP3    H261269   3.045   3.406  13.328  0.0594 -1.2417 -2.6256
13260TIP3   OH261270   2.086   1.422   3.721 -0.4261 -0.1381  0.2158
13260TIP3    H161271   2.005   1.474   3.721  0.5010  1.4960  2.8181
13260TIP3    H261272   2.057   1.332   3.735 -1.8171  0.5118  1.8689
13261TIP3   OH261273   5.529   6.009   4.187 -0.2900  0.1190  0.2471
13261TIP3    H161274   5.474   6.022   4.110 -0.7116  0.8543  0.6507
13261TIP3    H261275   5.566   5.921   4.177 -0.3704  0.1910 -0.7608
13262TIP3   OH261276   5.376   3.304   0.180 -0.2929 -0.0879 -0.0070
13262TIP3    H161277   5.463   3.267   0.198 -0.5889 -0.5551  0.5118
13262TIP3    H261278   5.364   3.292   0.086 -0.2607 -1.0726  0.1051
13263TIP3   OH261279   2.630   6.406   1.977  0.3303 -0.1066  0.0294
13263TIP3    H161280   2.595   6.317   1.972  0.6564 -0.3193  1.1802
13263TIP3    H261281   2.557   6.459   2.009  0.8048 -0.4179  1.7108
13264TIP3   OH261282   4.345   3.898   2.025 -0.2928 -0.6999 -0.2623
13264TIP3    H161283   4.374   3.838   2.093  0.2410 -2.0065 -1.6065
13264TIP3    H261284   4.254   3.873   2.008 -2.0104  2.4289  2.8974
13265TIP3   OH261285   0.940   0.432  14.747 -0.1803 -0.1090  0.5265
13265TIP3    H161286   0.898   0.346  14.740  0.8083 -0.6278  0.7051
13265TIP3    H261287   0.879   0.485  14.798 -0.8019 -0.7101  0.4184
13266TIP3   OH261288   5.684   6.551   3.112 -0.8322  0.5808  0.2716
13266TIP3    H161289   5.728   6.587   3.035 -0.8930 -0.4911 -0.2813
13266TIP3    H261290   5.699   6.456   3.107 -0.7386  0.4955  1.6437
13267TIP3   OH261291   3.060   5.605   5.693  0.4473  0.0796 -0.0096
13267TIP3    H161292   3.137   5.549   5.695  2.1152  2.2850  0.8893
13267TIP3    H261293   3.006   5.573   5.766  0.3451 -1.5764 -0.7479
13268TIP3   OH261294   4.118   3.066   3.074  0.0874  0.4035  0.1819
13268TIP3    H161295   4.151   3.037   3.159  2.2499  1.4444 -0.2140
13268TIP3    H261296   4.154   3.154   3.064 -3.1885  1.8262 -0.2511
13269TIP3   OH261297   5.019   2.842   2.780 -0.0961 -0.4286 -0.1095
13269TIP3    H161298   4.954   2.850   2.710 -1.2229 -0.3663  0.9027
13269TIP3    H261299   4.971   2.799   2.851  0.8787 -0.0605  0.7897
13270TIP3   OH261300   0.662   0.183  12.328  0.9166  0.4135 -0.2037
13270TIP3    H161301   0.636   0.150  12.414 -1.7202 -0.2605 -1.1606
13270TIP3    H261302   0.639   0.276  12.329 -2.9872 -0.3368 -1.3452
13271TIP3   OH261303   1.823   6.135  15.143 -0.3610  0.0075 -0.0992
13271TIP3    H161304   1.894   6.178  15.094 -0.6727  0.0584 -0.5150
13271TIP3    H261305   1.858   6.048  15.164 -0.0222  0.1779  0.0557
13272TIP3   OH261306   0.462   1.357  15.467 -0.5508  0.2769  0.4476
13272TIP3    H161307   0.518   1.433  15.479  0.7893 -0.7682  1.1010
13272TIP3    H261308   0.511   1.299  15.408 -2.7038  0.9931 -2.2756
13273TIP3   OH261309   0.534   5.016   0.122 -0.3783 -1.0714 -0.2548
13273TIP3    H161310   0.557   4.983   0.208 -3.6291 -1.2041  0.6919
13273TIP3    H261311   0.513   4.937   0.071  1.7584 -1.0159 -1.3318
13274TIP3   OH261312   3.755   4.079   1.859  0.9061  0.6303 -0.3451
13274TIP3    H161313   3.708   4.032   1.927  1.3496  0.2243 -0.3141
13274TIP3    H261314   3.690   4.137   1.820  0.0742 -0.7851 -1.1282
13275TIP3   OH261315   2.407   3.608   5.617 -0.1991 -0.0657  0.0416
13275TIP3    H161316   2.355   3.579   5.542  1.0103 -1.0528 -0.4421
13275TIP3    H261317   2.353   3.585   5.693 -2.1101  2.2897 -0.4956
13276TIP3   OH261318   5.232   4.223   4.675  0.0593  0.1256 -0.1369
13276TIP3    H161319   5.286   4.190   4.747 -0.6012 -0.5643  0.0512
13276TIP3    H261320   5.169   4.153   4.658 -1.2088  1.1833  0.0829
13277TIP3   OH261321   4.726   1.023   1.941  0.0380 -0.5169  0.2701
13277TIP3    H161322   4.745   1.044   1.850 -0.2903 -0.0557  0.3050
13277TIP3    H261323   4.712   0.928   1.942 -2.5649 -0.2296 -0.6637
13278TIP3   OH261324   3.110   5.023  15.595  0.2519  0.2326  0.0250
13278TIP3    H161325   3.101   4.945  15.540 -0.0498 -1.2206  2.0469
13278TIP3    H261326   3.025   5.065  15.591  0.1709  0.0349 -0.4460
13279TIP3   OH261327   1.966   1.557   1.328 -0.0817 -0.0188 -0.0037
13279TIP3    H161328   1.944   1.650   1.339 -1.6094 -0.3616  0.0409
13279TIP3    H261329   2.028   1.538   1.398  1.5321  1.3472 -0.9873
13280TIP3   OH261330   4.852   1.555   5.033  0.0777 -0.0504 -0.1283
13280TIP3    H161331   4.775   1.510   4.998  0.6546 -0.6951 -0.6029
13280TIP3    H261332   4.912   1.561   4.959 -0.5202  2.8255 -0.4944
13281TIP3   OH261333   3.441   5.241   4.706  0.1383  0.1119 -0.5832
13281TIP3    H161334   3.490   5.172   4.750  1.4431  1.4646  0.1818
13281TIP3    H261335   3.358   5.246   4.755  1.1020  0.8307  1.0706
13282TIP3   OH261336   1.047   4.510   1.471 -0.1471  0.0198 -0.4266
13282TIP3    H161337   1.120   4.541   1.525 -1.4917  1.9357  0.4112
13282TIP3    H261338   0.995   4.456   1.531 -0.8915  0.9964 -0.1630
13283TIP3   OH261339   1.029   2.373   2.606 -0.1224  0.1023  0.3520
13283TIP3    H161340   0.999   2.338   2.522  1.0298  0.1816 -0.1000
13283TIP3    H261341   1.035   2.467   2.592 -0.2419  0.1535  0.6346
13284TIP3   OH261342   4.954   0.385   1.378  0.3044 -0.5219  0.5809
13284TIP3    H161343   4.978   0.362   1.288  1.8034 -1.5081  1.1875
13284TIP3    H261344   4.923   0.303   1.416  0.1371 -0.2262  1.0924
13285TIP3   OH261345   3.216   1.682   3.325  0.1283 -0.4670  0.2078
13285TIP3    H161346   3.288   1.704   3.384 -0.6790 -0.2566  1.1577
13285TIP3    H261347   3.153   1.753   3.337  0.3217  0.0639 -1.6109
13286TIP3   OH261348   3.069   1.380  14.488 -0.1174 -0.1093  0.0973
13286TIP3    H161349   3.135   1.400  14.554  0.8155 -0.6003 -0.6585
13286TIP3    H261350   3.119   1.366  14.408 -1.1627 -0.3033 -0.5386
13287TIP3   OH261351   3.416   0.185  14.743  0.1757 -0.0573 -0.3101
13287TIP3    H161352   3.453   0.231  14.667 -0.1807 -2.4507 -2.0620
13287TIP3    H261353   3.322   0.199  14.734  0.2462  1.4823  1.0131
13288TIP3   OH261354   0.952   6.175   3.426 -0.0014 -0.7925 -0.0765
13288TIP3    H161355   0.913   6.129   3.500  2.0642  0.7123  2.0772
13288TIP3    H261356   1.033   6.212   3.460 -0.9379  3.5592 -1.8474
13289TIP3   OH261357   1.724   5.541  11.080  0.4782 -0.6038  0.0388
13289TIP3    H161358   1.673   5.516  11.157 -0.4014  1.3414  0.1274
13289TIP3    H261359   1.658   5.571  11.016  1.0484 -3.3128 -2.0087
13290TIP3   OH261360   4.173   1.657   1.266  1.5543  0.5336 -0.2340
13290TIP3    H161361   4.109   1.624   1.329 -1.0557  0.7836 -2.6170
13290TIP3    H261362   4.204   1.579   1.220 -1.4868  0.7584 -2.9886
13291TIP3   OH261363   1.860   4.328  15.422 -0.2880 -0.7141 -0.5049
13291TIP3    H161364   1.795   4.307  15.488 -0.1567 -0.0218 -0.1408
13291TIP3    H261365   1.812   4.324  15.339  0.1431 -4.1939 -0.6964
13292TIP3   OH261366   4.604   5.352  12.060 -0.2767  0.2947 -0.5670
13292TIP3    H161367   4.578   5.262  12.080  3.6766 -0.4734  2.1413
13292TIP3    H261368   4.548   5.406  12.115  0.8082 -0.9617  1.8892
13293TIP3   OH261369   5.895   0.596   1.407 -0.0610  0.6908 -0.2636
13293TIP3    H161370   5.849   0.623   1.328 -1.2817  0.4482  0.3302
13293TIP3    H261371   5.854   0.648   1.477  0.4605  0.3401  0.3134
13294TIP3   OH261372   4.592   4.082   2.302  0.5119  0.1976 -0.2430
13294TIP3    H161373   4.684   4.106   2.309  0.9125 -1.1216 -0.7183
13294TIP3    H261374   4.555   4.104   2.387  1.7335 -1.1351  0.6744
13295TIP3   OH261375   4.560   6.088  12.105  0.3375 -0.0592 -0.3123
13295TIP3    H161376   4.609   6.014  12.141 -0.9870 -0.5409  0.6069
13295TIP3    H261377   4.471   6.054  12.094 -0.5120  1.6063  0.9152
13296TIP3   OH261378   4.951   2.078   4.568  0.0415  0.2869 -0.0466
13296TIP3    H161379   5.032   2.052   4.612 -0.1277  0.3470  0.3097
13296TIP3    H261380   4.978   2.142   4.503  0.5660 -1.3265 -1.4775
13297TIP3   OH261381   6.399   1.398  14.966 -0.9502  0.1432  0.6676
13297TIP3    H161382   6.432   1.401  14.877 -0.3867 -0.4732  0.8452
13297TIP3    H261383   6.337   1.471  14.972  0.2331  1.2026  0.2777
13298TIP3   OH261384   6.272   5.220   2.539  0.1411 -0.4353  0.7097
13298TIP3    H161385   6.213   5.189   2.609 -3.2828  1.6019 -1.0055
13298TIP3    H261386   6.274   5.315   2.550  0.1075 -0.1406 -1.5120
13299TIP3   OH261387   4.585   1.487  12.116  0.4272  0.5732 -0.1726
13299TIP3    H161388   4.536   1.472  12.035  0.7830 -0.1581 -0.2570
13299TIP3    H261389   4.615   1.401  12.142  1.6142  1.0063 -0.0769
13300TIP3   OH261390   5.837   3.395   1.622  0.2594  0.2186  0.1299
13300TIP3    H161391   5.760   3.342   1.642  0.1891 -0.0112 -0.7214
13300TIP3    H261392   5.897   3.334   1.578  1.9062 -0.2258  2.7596
13301TIP3   OH261393   6.450   6.474   0.778 -0.1912 -0.0682  0.2018
13301TIP3    H161394   6.355   6.485   0.789  0.0457  0.7169  1.6497
13301TIP3    H261395   6.483   6.461   0.866  1.0825 -0.2120 -0.2829
13302TIP3   OH261396   1.716   2.872   5.378 -0.0788 -0.0515 -0.1861
13302TIP3    H161397   1.641   2.836   5.330  0.5546 -1.8937  0.1174
13302TIP3    H261398   1.792   2.824   5.344  0.8942  1.3080 -0.0151
13303TIP3   OH261399   3.949   2.788   6.023  0.4694 -0.5171 -0.0307
13303TIP3    H161400   4.005   2.770   6.098  1.2507 -2.7146 -1.0664
13303TIP3    H261401   3.860   2.787   6.058  0.8843 -0.2862  1.0558
13304TIP3   OH261402   4.666   0.065  16.186  0.2717 -0.5102 -0.2479
13304TIP3    H161403   4.726  -0.005  16.212 -1.2762 -2.2343 -1.1050
13304TIP3    H261404   4.662   0.058  16.091 -0.9020 -0.1044 -0.2380
13305TIP3   OH261405   1.949   1.704   4.436  0.1070  0.3291 -0.2057
13305TIP3    H161406   1.980   1.701   4.345 -0.4823  0.6552 -0.4224
13305TIP3    H261407   1.914   1.793   4.446 -1.6408 -0.3139 -0.2762
13306TIP3   OH261408   3.042   0.345   5.473 -0.1264  0.6195 -0.3555
13306TIP3    H161409   3.082   0.258   5.466  0.9397  0.9239  1.2401
13306TIP3    H261410   3.073   0.392   5.396  0.1773 -0.0821 -0.6731
13307TIP3   OH261411   1.089   3.255   1.692 -0.1228 -0.2723 -0.1870
13307TIP3    H161412   1.102   3.180   1.633 -2.1592  0.0339 -1.0967
13307TIP3    H261413   1.040   3.219   1.766 -1.9277  0.2688 -1.0559
13308TIP3   OH261414   6.082   5.240   1.329  0.5688 -0.0252 -0.4001
13308TIP3    H161415   6.055   5.200   1.411  1.4945  1.1824  0.5238
13308TIP3    H261416   6.139   5.175   1.288  1.9469  0.2363  1.0088
13309TIP3   OH261417   5.582   2.666  15.780  0.2825 -0.2732  0.2005
13309TIP3    H161418   5.562   2.759  15.792  1.8982  0.0273  0.7375
13309TIP3    H261419   5.675   2.659  15.798  0.2413 -1.9650 -0.1221
13310TIP3   OH261420   0.899   5.636  12.396 -1.1765  0.0643  0.3785
13310TIP3    H161421   0.841   5.561  12.406 -1.5507  0.2645 -0.1826
13310TIP3    H261422   0.944   5.644  12.480 -0.7883 -1.0581  0.2931
13311TIP3   OH261423   6.264   3.976   4.064  0.0921  0.5685  0.3346
13311TIP3    H161424   6.174   4.008   4.063  0.1712  0.7851  0.0727
13311TIP3    H261425   6.271   3.920   3.987  0.8510  2.4374 -1.0316
13312TIP3   OH261426   4.869   2.166   6.097  0.4921 -0.7666 -0.0604
13312TIP3    H161427   4.807   2.159   6.025 -2.1962  2.2767  1.7311
13312TIP3    H261428   4.846   2.093   6.155 -1.0815 -0.0318  0.2853
13313TIP3   OH261429   3.261   4.616   0.757  0.1690 -0.3121 -0.0664
13313TIP3    H161430   3.269   4.615   0.662 -1.6933  0.8851 -0.2663
13313TIP3    H261431   3.199   4.546   0.777  2.2289 -2.0951  0.5287
13314TIP3   OH261432   3.310   0.279   6.118 -0.0782 -0.7042  0.3265
13314TIP3    H161433   3.216   0.263   6.108 -0.1874 -0.0350  0.2669
13314TIP3    H261434   3.317   0.332   6.197  0.0398  1.0961 -0.8365
13315TIP3   OH261435   4.595   0.758   4.139  0.0136 -0.8117 -0.1624
13315TIP3    H161436   4.548   0.750   4.056 -1.6539 -2.1226  0.8446
13315TIP3    H261437   4.636   0.845   4.135  0.3407 -1.0006 -2.4938
13316TIP3   OH261438   2.379   0.980  13.812 -0.7061  0.0435 -0.7985
13316TIP3    H161439   2.418   1.068  13.803  0.2444 -0.2338  0.3326
13316TIP3    H261440   2.290   0.990  13.778 -1.3972  2.0282  1.3107
13317TIP3   OH261441   5.279   6.107   2.459  0.1291 -0.1057 -0.0130
13317TIP3    H161442   5.371   6.100   2.432  0.7670 -1.2649  2.1680
13317TIP3    H261443   5.237   6.030   2.422  0.0185  0.4120 -0.9921
13318TIP3   OH261444   2.798   5.124  12.574 -0.3012 -0.2548 -0.0644
13318TIP3    H161445   2.856   5.181  12.625 -1.4986  2.2880 -1.4214
13318TIP3    H261446   2.857   5.055  12.541  1.4207  0.7553  0.7398
13319TIP3   OH261447   3.056   2.289   3.329  0.1197 -0.1674 -0.1340
13319TIP3    H161448   3.113   2.354   3.369 -0.5785 -0.4551  1.3826
13319TIP3    H261449   3.019   2.241   3.403 -1.0527 -0.8560 -1.1428
13320TIP3   OH261450   3.068   2.666   4.556 -0.4158 -0.0563  0.1119
13320TIP3    H161451   3.001   2.618   4.605  0.8089 -3.5050 -1.2774
13320TIP3    H261452   3.027   2.687   4.472 -0.3923 -0.3038  0.0392
13321TIP3   OH261453   1.970   2.922   5.016  0.2161  0.2988 -0.0787
13321TIP3    H161454   1.961   2.876   5.099  2.0949 -1.7558 -0.9197
13321TIP3    H261455   1.906   2.881   4.958  1.7392 -1.2386 -0.7649
13322TIP3   OH261456   6.433   4.426  13.955  0.1050  0.3248  0.1482
13322TIP3    H161457   6.518   4.384  13.944  0.1337  0.9090 -2.9074
13322TIP3    H261458   6.453   4.515  13.982  0.6674  1.0196 -2.3461
13323TIP3   OH261459   1.543   3.241  12.072  0.0210  0.1284 -0.0816
13323TIP3    H161460   1.572   3.231  12.162 -1.5047  0.9221  0.5369
13323TIP3    H261461   1.477   3.311  12.075  0.1274  0.3652 -1.8536
13324TIP3   OH261462   5.142   5.620  11.647 -0.2242  0.3885 -0.1158
13324TIP3    H161463   5.224   5.572  11.642  1.2374  2.5297  1.4653
13324TIP3    H261464   5.079   5.558  11.684  0.3458 -1.5750 -2.2133
13325TIP3   OH261465   2.890   5.675   5.389 -0.1982  0.1581  0.1850
13325TIP3    H161466   2.838   5.610   5.435  0.2602 -0.0413  0.4360
13325TIP3    H261467   2.978   5.636   5.383 -0.2263  0.2076 -0.7897
13326TIP3   OH261468   3.423   1.038   1.265 -0.6010  0.3466 -0.2462
13326TIP3    H161469   3.395   0.947   1.250  1.1240  0.0832 -2.2797
13326TIP3    H261470   3.366   1.090   1.208  0.2388  0.2341 -1.2058
13327TIP3   OH261471   2.842   4.888   4.490 -0.3341  0.3639  0.2957
13327TIP3    H161472   2.830   4.806   4.538  2.6078  1.0839  2.5567
13327TIP3    H261473   2.910   4.868   4.426 -0.8984  0.5984 -0.3815
13328TIP3   OH261474   3.240   1.814   5.027  0.2692  0.5223  0.1939
13328TIP3    H161475   3.240   1.906   5.052  0.6121  0.2616  1.1793
13328TIP3    H261476   3.263   1.814   4.934  2.0412  1.3392  0.5967
13329TIP3   OH261477   2.171   0.390  15.326  0.1042  0.0347 -0.0239
13329TIP3    H161478   2.096   0.374  15.384 -0.2405 -2.7580 -1.0923
13329TIP3    H261479   2.238   0.329  15.358  2.1482  2.6681  1.0885
13330TIP3   OH261480   0.309   0.649   3.743  0.4998  0.1474 -0.7359
13330TIP3    H161481   0.320   0.666   3.836 -0.3852  1.2799 -0.8164
13330TIP3    H261482   0.398   0.654   3.707  0.6690  1.3749 -0.1949
13331TIP3   OH261483   5.755   0.851   1.546 -0.3386 -0.2341 -0.1336
13331TIP3    H161484   5.813   0.901   1.603  0.0167 -0.3395 -0.3989
13331TIP3    H261485   5.721   0.781   1.602 -1.0947  0.4751  0.3326
13332TIP3   OH261486   6.125   3.712   1.975 -1.0934 -0.0913  0.5386
13332TIP3    H161487   6.063   3.646   1.945 -2.2735  0.6104  1.3416
13332TIP3    H261488   6.088   3.795   1.946 -0.2849  0.3075  0.6204
13333TIP3   OH261489   0.334   3.802  17.017 -0.8982  0.4357 -0.0868
13333TIP3    H161490   0.297   3.854  17.088 -1.0367 -0.1268  0.2554
13333TIP3    H261491   0.372   3.725  17.061 -0.8024  0.1899 -0.5968
13334TIP3   OH261492   6.320   6.807  15.852  0.2625 -0.0131  0.1588
13334TIP3    H161493   6.410   6.835  15.835  1.0144 -1.9336  0.7092
13334TIP3    H261494   6.312   6.809  15.948 -0.8143  1.5883  0.0755
13335TIP3   OH261495   1.895   1.564  13.168  0.0170 -0.3781 -0.2984
13335TIP3    H161496   1.959   1.534  13.104  0.5319  1.4264 -0.6931
13335TIP3    H261497   1.946   1.611  13.234 -0.9246  1.9010 -1.0938
13336TIP3   OH261498   1.995   4.811  12.829 -0.2792  0.4095 -0.1801
13336TIP3    H161499   2.083   4.777  12.817 -0.6748 -0.2108 -1.4764
13336TIP3    H261500   1.947   4.784  12.751 -1.4472  1.3095  0.1831
13337TIP3   OH261501   3.909   0.101   6.028  0.1519 -0.0499  0.2122
13337TIP3    H161502   3.959   0.135   6.102 -2.5705  2.7953  0.9321
13337TIP3    H261503   3.951   0.141   5.951 -0.4188  1.6482  0.7399
13338TIP3   OH261504   1.859   1.101  17.167 -0.0463 -0.1048 -0.4621
13338TIP3    H161505   1.768   1.106  17.196 -0.4149 -0.2107 -1.5277
13338TIP3    H261506   1.883   1.009  17.177  0.3882  0.1513  1.0440
13339TIP3   OH261507   0.400   1.412   2.065 -0.7367  0.0524 -0.3824
13339TIP3    H161508   0.494   1.409   2.082 -0.4003  0.0108 -2.1114
13339TIP3    H261509   0.361   1.420   2.152  0.8909  0.8233  0.3346
13340TIP3   OH261510   1.986   6.595   2.899  0.3326 -0.4632 -0.0826
13340TIP3    H161511   1.952   6.562   2.983 -0.9863  1.1750  0.0820
13340TIP3    H261512   1.926   6.560   2.834 -1.0489  1.4277  0.0888
13341TIP3   OH261513   1.936   1.389   5.291  0.2639  0.3525 -0.0568
13341TIP3    H161514   2.007   1.427   5.343  0.4728  0.9221 -0.7483
13341TIP3    H261515   1.857   1.436   5.318  0.0717 -0.5352  0.9828
13342TIP3   OH261516   5.449   1.437   2.550 -0.1335 -0.5671 -0.2206
13342TIP3    H161517   5.462   1.507   2.485 -2.3424 -1.1078 -1.3443
13342TIP3    H261518   5.496   1.362   2.513  1.6078  0.0606  0.6178
13343TIP3   OH261519   6.177   6.783  11.638 -0.4139 -0.4116  0.0401
13343TIP3    H161520   6.251   6.764  11.581 -0.5126 -0.7653  0.0293
13343TIP3    H261521   6.127   6.702  11.641 -1.0006 -0.0688 -0.2423
13344TIP3   OH261522   6.100   1.301   2.860 -0.6045 -0.0601 -0.4803
13344TIP3    H161523   6.042   1.265   2.793  0.1787  0.5801 -1.5569
13344TIP3    H261524   6.182   1.252   2.850 -1.1792 -1.5221  1.5705
13345TIP3   OH261525   5.312   0.477   1.430 -0.7179  0.1484 -0.3780
13345TIP3    H161526   5.285   0.451   1.518  1.7265 -0.5574  0.2431
13345TIP3    H261527   5.304   0.572   1.430  1.0481  0.3573  1.3301
13346TIP3   OH261528   6.515   2.161   1.375  0.3939 -0.5866 -0.0457
13346TIP3    H161529   6.594   2.178   1.427 -1.2299  0.7435  2.1712
13346TIP3    H261530   6.508   2.236   1.316  1.4819 -1.4040 -1.2692
13347TIP3   OH261531   3.624   6.458   4.958 -0.2750 -0.4202  0.3745
13347TIP3    H161532   3.653   6.367   4.960  2.5192  0.3843  2.0769
13347TIP3    H261533   3.534   6.455   4.992  0.0702 -2.4554  1.2442
13348TIP3   OH261534   2.171   2.718  14.302 -0.2483  0.2740  0.0784
13348TIP3    H161535   2.254   2.694  14.261 -0.7866 -1.4133 -0.0953
13348TIP3    H261536   2.194   2.786  14.365  1.1864  0.1849 -0.3199
13349TIP3   OH261537   1.524   4.217   5.925 -0.1244  0.4276 -0.3220
13349TIP3    H161538   1.431   4.218   5.945  0.1596  1.2054  1.0291
13349TIP3    H261539   1.546   4.308   5.906  0.2541  0.1613 -1.2184
13350TIP3   OH261540   5.142   2.392   2.643  0.5363  0.5293 -0.4083
13350TIP3    H161541   5.108   2.367   2.558  0.1840 -0.9512  0.1406
13350TIP3    H261542   5.215   2.451   2.624  0.7254 -0.1087 -1.7348
13351TIP3   OH261543   3.537   6.703  15.923 -0.3116  0.3170  0.2944
13351TIP3    H161544   3.453   6.747  15.927 -0.9306 -0.7057 -0.6921
13351TIP3    H261545   3.532   6.649  15.844  0.7233 -0.8468  0.9785
13352TIP3   OH261546   3.538   4.380   4.340 -0.1238  0.2705 -0.0643
13352TIP3    H161547   3.551   4.315   4.270 -0.2326 -0.3733  0.5084
13352TIP3    H261548   3.527   4.463   4.293 -1.2904 -0.3114 -0.8765
13353TIP3   OH261549   1.140   5.032  11.635  0.1741 -0.2404 -0.1699
13353TIP3    H161550   1.207   5.014  11.570  0.1425  2.5557 -1.1459
13353TIP3    H261551   1.071   5.078  11.587 -1.6851 -1.4988  1.1308
13354TIP3   OH261552   2.455   4.099   2.282 -0.2133 -0.2523 -0.2046
13354TIP3    H161553   2.468   4.004   2.275  0.7644 -0.2306  1.0545
13354TIP3    H261554   2.361   4.111   2.269 -0.4245 -1.4438  0.0788
13355TIP3   OH261555   0.655   2.680   6.407  0.1016 -0.4354  0.0457
13355TIP3    H161556   0.605   2.599   6.415 -1.1239 -0.0114 -2.2272
13355TIP3    H261557   0.738   2.653   6.369  0.6198 -0.8480  1.4191
13356TIP3   OH261558   5.885   0.905  16.570 -0.1023 -0.0502 -0.5834
13356TIP3    H161559   5.878   1.000  16.556  0.2911  0.3113  1.3264
13356TIP3    H261560   5.801   0.871  16.543 -0.5181  0.9533 -0.6124
13357TIP3   OH261561   6.697   0.175   1.960 -0.3552 -0.1494 -0.1612
13357TIP3    H161562   6.612   0.215   1.939 -1.3788 -2.2059 -0.1971
13357TIP3    H261563   6.707   0.105   1.896  1.1448 -0.2827  0.1826
13358TIP3   OH261564   6.574   5.687  11.593  0.2969  0.3541 -0.2137
13358TIP3    H161565   6.579   5.663  11.685  0.7533  0.4101 -0.2256
13358TIP3    H261566   6.502   5.751  11.589 -1.8650 -1.9144 -0.3774
13359TIP3   OH261567   0.587   6.702   4.424 -0.6758 -0.4019  0.6132
13359TIP3    H161568   0.637   6.696   4.342 -0.9608  0.0120  0.4049
13359TIP3    H261569   0.651   6.730   4.489 -0.9172  1.6494  0.0430
13360TIP3   OH261570   3.568   5.261   2.698  0.7941 -0.6359  0.2032
13360TIP3    H161571   3.657   5.284   2.671  1.3614 -1.2544  1.4313
13360TIP3    H261572   3.576   5.245   2.792 -0.4820 -1.3941  0.1978
13361TIP3   OH261573   4.445   3.991  14.418 -0.4310 -0.0837  0.1294
13361TIP3    H161574   4.439   3.896  14.428  1.1436 -0.6248 -2.7245
13361TIP3    H261575   4.510   4.018  14.482 -0.6600 -0.9845  0.7607
13362TIP3   OH261576   2.914   5.350  12.427 -0.2454  0.4869  0.3032
13362TIP3    H161577   2.878   5.376  12.342  0.8392 -2.1314 -1.0963
13362TIP3    H261578   2.850   5.287  12.461  1.5669 -2.3618 -1.0921
13363TIP3   OH261579   0.074   2.726  11.977 -0.4739 -0.2837  0.0885
13363TIP3    H161580   0.039   2.815  11.975 -0.3070 -0.2248 -0.9488
13363TIP3    H261581   0.142   2.725  11.909 -0.1667 -1.0766  0.3899
13364TIP3   OH261582   3.314   4.130   4.843  0.2123 -0.3319  0.0885
13364TIP3    H161583   3.408   4.147   4.834  0.3820 -1.8759 -1.4781
13364TIP3    H261584   3.274   4.181   4.773  0.2460 -2.2077 -1.3671
13365TIP3   OH261585   6.344   4.465   1.393 -0.0003 -0.1118 -0.2669
13365TIP3    H161586   6.294   4.474   1.474  0.5823 -2.3782  0.4205
13365TIP3    H261587   6.387   4.550   1.382 -0.8391  0.5564  1.2698
13366TIP3   OH261588   1.986   1.706   3.087  0.3232 -0.0657 -0.2979
13366TIP3    H161589   1.927   1.632   3.103  0.7514 -0.7462 -1.7035
13366TIP3    H261590   1.988   1.715   2.992  1.3723  0.8670 -0.2070
13367TIP3   OH261591   2.648   1.741  13.087 -0.6239  0.1874  0.1050
13367TIP3    H161592   2.630   1.774  12.999  0.3789  1.5394  0.3748
13367TIP3    H261593   2.726   1.686  13.077 -1.6154 -1.2361 -0.1423
13368TIP3   OH261594   2.046   0.961  16.923 -0.2993  0.2884 -0.3881
13368TIP3    H161595   2.099   0.954  17.002 -1.9768 -1.8776  0.6711
13368TIP3    H261596   2.028   0.870  16.899 -0.9123  0.9229 -2.5259
13369TIP3   OH261597   1.376   5.893  13.314 -0.6647 -0.2116 -0.2730
13369TIP3    H161598   1.353   5.801  13.301 -1.2283 -0.0628 -0.3620
13369TIP3    H261599   1.460   5.903  13.269 -2.3463  0.1885 -3.6518
13370TIP3   OH261600   2.027   0.503   4.902 -0.4840  0.5098  0.4854
13370TIP3    H161601   2.065   0.428   4.947  1.8913  1.8128  0.8056
13370TIP3    H261602   2.089   0.574   4.917 -2.5972  2.5587  0.1444
13371TIP3   OH261603   2.258   0.205   4.973  0.2564 -0.2940  0.3506
13371TIP3    H161604   2.167   0.194   5.000 -0.1827  2.3904  0.2175
13371TIP3    H261605   2.307   0.208   5.056  0.1493 -1.0873  0.4485
13372TIP3   OH261606   4.640   1.499   2.156  0.5573 -0.1663 -0.1536
13372TIP3    H161607   4.644   1.579   2.104  2.0324 -0.2864 -0.2658
13372TIP3    H261608   4.670   1.430   2.096  0.5718 -0.5910  0.3349
13373TIP3   OH261609   2.994   6.764  13.223 -0.1407  0.5283  0.4766
13373TIP3    H161610   3.062   6.783  13.157 -0.3647 -0.2296  0.0172
13373TIP3    H261611   2.969   6.673  13.206 -0.6268  0.5161  1.2344
13374TIP3   OH261612   5.732   5.470  17.131  0.5874 -0.7064 -0.3003
13374TIP3    H161613   5.739   5.565  17.144  1.1995 -0.3005 -2.9910
13374TIP3    H261614   5.822   5.440  17.121  0.4376 -1.7137  1.0781
13375TIP3   OH261615   5.740   1.085  11.493  0.0316  0.7674 -0.2589
13375TIP3    H161616   5.648   1.069  11.477  0.3178 -1.0248 -0.3045
13375TIP3    H261617   5.743   1.126  11.580 -0.7285 -0.3737  0.3208
13376TIP3   OH261618   3.756   3.234   5.150  0.3231  0.3254  0.1896
13376TIP3    H161619   3.700   3.279   5.086 -0.4796  1.3797  1.5652
13376TIP3    H261620   3.716   3.148   5.160  0.9813 -0.2101 -1.3383
13377TIP3   OH261621   3.593   1.057  13.924 -0.6330  0.3618 -0.2740
13377TIP3    H161622   3.507   1.044  13.964  0.1615 -0.2047  1.3409
13377TIP3    H261623   3.651   1.076  13.998  0.4311  1.8884 -1.4355
13378TIP3   OH261624   0.315   4.617   5.115 -0.5001 -0.3333  0.6944
13378TIP3    H161625   0.282   4.590   5.030  0.3085  1.4708 -0.2340
13378TIP3    H261626   0.249   4.585   5.177 -1.9169 -0.3271 -0.7435
13379TIP3   OH261627   1.598   3.282  14.839 -0.6300 -0.5382 -0.0874
13379TIP3    H161628   1.655   3.207  14.823  0.5141 -0.3730  2.5607
13379TIP3    H261629   1.583   3.280  14.934 -1.2420  2.0936 -0.0488
13380TIP3   OH261630   6.748   6.341   1.762 -0.0547 -0.0358  0.1564
13380TIP3    H161631   6.654   6.352   1.780 -0.0792 -0.1297  0.0908
13380TIP3    H261632   6.788   6.330   1.848  0.0128  0.8492  0.2468
13381TIP3   OH261633   2.453   0.409   4.021  0.3778  0.6780  0.0716
13381TIP3    H161634   2.387   0.443   3.960  1.0271 -1.1823 -1.7898
13381TIP3    H261635   2.411   0.415   4.107 -1.7187  0.7643 -0.8871
13382TIP3   OH261636   5.859   3.254  16.056 -0.3708  0.4417  0.4163
13382TIP3    H161637   5.936   3.311  16.055  0.6529 -0.8095 -2.1585
13382TIP3    H261638   5.865   3.207  16.139  1.5747  0.5039  0.3555
13383TIP3   OH261639   2.556   0.949  13.491  0.5602 -0.4180 -0.3385
13383TIP3    H161640   2.605   0.916  13.416  0.0059 -1.1934 -0.3754
13383TIP3    H261641   2.466   0.919  13.476  0.2400  0.2607  0.1437
13384TIP3   OH261642   0.418   4.482  14.722 -0.0117  0.2076 -0.2390
13384TIP3    H161643   0.378   4.502  14.637  0.7070  0.2969 -0.5615
13384TIP3    H261644   0.349   4.437  14.770 -0.0245 -1.0191 -1.3400
13385TIP3   OH261645   4.805   1.130   0.116  1.0820 -0.6266  0.1422
13385TIP3    H161646   4.726   1.183   0.129  0.9128 -0.0717 -2.5000
13385TIP3    H261647   4.772   1.045   0.087  1.4335 -1.0855  1.0665
13386TIP3   OH261648   4.989   0.853   3.560 -0.1974 -0.0711 -0.7448
13386TIP3    H161649   5.019   0.943   3.541  2.4459 -0.6574  0.1930
13386TIP3    H261650   5.017   0.838   3.650 -0.3717 -1.9184 -0.9792
13387TIP3   OH261651   0.672   2.954  12.586 -0.0028  0.1018 -0.0005
13387TIP3    H161652   0.589   2.990  12.616  0.4491 -0.9563  2.8487
13387TIP3    H261653   0.737   3.020  12.610  0.2548 -0.2387  0.2468
13388TIP3   OH261654   2.247   6.632  11.765  0.5613  0.5882 -0.1422
13388TIP3    H161655   2.268   6.690  11.838 -1.1211 -0.8117  1.6024
13388TIP3    H261656   2.239   6.689  11.689  1.8954  2.1837  0.8581
13389TIP3   OH261657   5.605   3.527  12.744  0.1657  0.2960 -0.1497
13389TIP3    H161658   5.646   3.582  12.676 -0.9625  1.2393 -0.1003
13389TIP3    H261659   5.675   3.512  12.807  0.8734  0.5294 -0.8521
13390TIP3   OH261660   0.488   1.054  12.158 -0.1994  0.8322 -0.5888
13390TIP3    H161661   0.470   0.966  12.191  0.1751  1.8365  2.5876
13390TIP3    H261662   0.407   1.080  12.114 -0.6254 -0.7361 -0.7881
13391TIP3   OH261663   2.893   3.802  16.206 -0.0081 -0.4377  0.0724
13391TIP3    H161664   2.954   3.728  16.208  0.2910 -0.4148 -3.1768
13391TIP3    H261665   2.835   3.784  16.132 -1.2450  1.6227  0.4472
13392TIP3   OH261666   0.163   3.405   5.599 -0.1660  0.4809 -0.5632
13392TIP3    H161667   0.098   3.375   5.662  0.7226 -0.6921 -0.1573
13392TIP3    H261668   0.172   3.333   5.537  2.6062 -0.5923  0.9004
13393TIP3   OH261669   4.289   6.652   4.880  0.7842  0.2988  0.3467
13393TIP3    H161670   4.316   6.655   4.972  0.1279  0.8624  0.5221
13393TIP3    H261671   4.286   6.558   4.859  1.5728  0.1874  0.7036
13394TIP3   OH261672   5.303   6.450  11.299 -0.2953 -0.2408 -1.0425
13394TIP3    H161673   5.346   6.378  11.253 -1.0465 -0.0857 -2.0231
13394TIP3    H261674   5.212   6.421  11.309 -0.0369 -0.5209  0.8928
13395TIP3   OH261675   6.099   4.997   1.547  0.0092 -0.1141 -0.8813
13395TIP3    H161676   6.021   4.942   1.560  1.0561 -1.9417 -1.8496
13395TIP3    H261677   6.158   4.941   1.497  2.2025  0.9670  0.3818
13396TIP3   OH261678   3.569   5.206   3.875  0.7019 -0.2028 -0.4157
13396TIP3    H161679   3.488   5.164   3.904  0.5641  1.1533  1.3448
13396TIP3    H261680   3.549   5.241   3.788 -0.2406 -0.8267 -0.4558
13397TIP3   OH261681   3.869   2.931  16.022  0.3143 -0.6133 -0.7064
13397TIP3    H161682   3.830   2.850  16.056 -0.7641  0.0586 -0.3058
13397TIP3    H261683   3.852   2.996  16.090  2.2915 -0.3058 -0.4318
13398TIP3   OH261684   2.832   0.872   1.829 -0.1283 -0.2600  0.2200
13398TIP3    H161685   2.912   0.900   1.783 -0.9833 -1.3272 -2.0507
13398TIP3    H261686   2.794   0.805   1.773 -2.6577  0.2265  1.2251
13399TIP3   OH261687   6.573   2.011   2.921  0.2704 -0.1783  0.6931
13399TIP3    H161688   6.504   1.960   2.879 -0.1253 -0.9627  2.2305
13399TIP3    H261689   6.528   2.089   2.955  0.6078  0.5074 -0.3880
13400TIP3   OH261690   3.590   4.558   4.045  0.1995  0.0631  0.0179
13400TIP3    H161691   3.627   4.601   3.968  1.7723 -0.5545  0.3875
13400TIP3    H261692   3.495   4.565   4.033  0.3417  3.4154 -0.0024
13401TIP3   OH261693   6.128   6.261   2.328 -0.3440 -0.3563  0.1747
13401TIP3    H161694   6.158   6.211   2.404  0.0567  1.7289  1.4913
13401TIP3    H261695   6.033   6.269   2.341 -0.1475  0.8574  1.0710
13402TIP3   OH261696   4.461   5.301   6.161 -0.3702  0.0461  0.0585
13402TIP3    H161697   4.387   5.352   6.129 -0.1087  0.8352  0.6594
13402TIP3    H261698   4.449   5.299   6.256 -0.3709 -1.0240  0.0470
13403TIP3   OH261699   0.543   6.735   2.570 -0.9738  0.2614  0.0199
13403TIP3    H161700   0.552   6.641   2.583  2.1210  0.5627  0.7121
13403TIP3    H261701   0.514   6.744   2.479 -0.2890 -1.3397 -0.3901
13404TIP3   OH261702   4.301   2.407  13.306  0.0876  0.6859  0.0274
13404TIP3    H161703   4.238   2.388  13.376  0.1615 -0.6873 -0.2462
13404TIP3    H261704   4.383   2.422  13.353  0.0888 -0.0083  0.2708
13405TIP3   OH261705   5.666   6.077  17.271  0.0489  0.5921  0.4542
13405TIP3    H161706   5.610   6.024  17.328 -0.1364 -0.5601 -0.7474
13405TIP3    H261707   5.689   6.018  17.199  2.4287  1.1695  0.6435
13406TIP3   OH261708   4.542   5.726  14.543  0.2817  0.4467  0.0903
13406TIP3    H161709   4.448   5.740  14.542  0.3549  1.0287  1.0236
13406TIP3    H261710   4.553   5.638  14.507 -0.7784 -0.4562  1.8416
13407TIP3   OH261711   4.449   3.665  14.137  0.1009 -0.3537  0.0726
13407TIP3    H161712   4.377   3.712  14.179  0.1475  0.0500 -0.2967
13407TIP3    H261713   4.521   3.669  14.200 -0.4437 -1.4906  0.8173
13408TIP3   OH261714   1.255   5.580   4.105 -0.0918  0.1672  0.1596
13408TIP3    H161715   1.348   5.603   4.102 -0.2848  0.9925  0.4060
13408TIP3    H261716   1.254   5.484   4.095  0.6978  0.2826 -1.4306
13409TIP3   OH261717   0.717   0.845  11.761 -0.5998 -0.3257 -0.3606
13409TIP3    H161718   0.632   0.820  11.726 -0.4619 -1.4609  0.0488
13409TIP3    H261719   0.729   0.788  11.837 -0.4203  1.3040  0.8915
13410TIP3   OH261720   4.260   4.678   1.101  0.0825 -0.8316 -0.0533
13410TIP3    H161721   4.261   4.759   1.050 -0.1728 -0.8908 -0.1518
13410TIP3    H261722   4.168   4.662   1.120 -0.0784 -2.0912 -1.6328
13411TIP3   OH261723   4.015   4.594   1.153 -0.3819 -0.6292  0.0757
13411TIP3    H161724   3.989   4.506   1.181 -1.4037 -0.5405 -0.5461
13411TIP3    H261725   3.933   4.635   1.124  0.5394 -0.6333 -2.8551
13412TIP3   OH261726   1.271   1.230   4.162  0.4807  0.3246  0.1586
13412TIP3    H161727   1.353   1.189   4.189  0.8289  1.4345  0.8710
13412TIP3    H261728   1.214   1.221   4.239  0.2042  0.2737 -0.0496
13413TIP3   OH261729   5.696   0.818   5.894 -0.0034  0.3573  0.4142
13413TIP3    H161730   5.610   0.815   5.934 -0.9988  1.1133 -1.5647
13413TIP3    H261731   5.755   0.786   5.962 -1.7944  0.0396  1.8858
13414TIP3   OH261732   1.715   1.101  16.038  0.1319  0.4066  0.1406
13414TIP3    H161733   1.656   1.162  16.082 -2.6886 -0.5626 -1.9886
13414TIP3    H261734   1.791   1.154  16.013  0.1194  1.7843  2.7449
13415TIP3   OH261735   2.175   2.124   2.792 -0.0846 -0.4335  0.1558
13415TIP3    H161736   2.204   2.196   2.737 -3.5048 -1.3023 -3.1475
13415TIP3    H261737   2.251   2.065   2.796  1.1221  0.9177 -1.4200
13416TIP3   OH261738   5.582   1.942  12.878  0.1509  0.4484 -0.2236
13416TIP3    H161739   5.568   1.883  12.804  1.6005  0.6479 -0.6814
13416TIP3    H261740   5.672   1.926  12.906  0.3740  1.9811  0.0452
13417TIP3   OH261741   5.119   2.358  13.948  0.2441 -0.3587 -0.2702
13417TIP3    H161742   5.136   2.433  13.891  1.7193  0.2749  0.9387
13417TIP3    H261743   5.036   2.379  13.991  1.0165  1.0005  0.6407
13418TIP3   OH261744   5.367   2.072   6.114 -0.3205  0.1687  0.1493
13418TIP3    H161745   5.314   1.992   6.112 -0.5257  0.3016  0.2454
13418TIP3    H261746   5.303   2.142   6.124 -0.0108  0.2252  1.9450
13419TIP3   OH261747   5.329   1.489   3.710 -0.1195  0.2725 -0.3418
13419TIP3    H161748   5.395   1.429   3.674 -0.2820  0.2067 -0.5331
13419TIP3    H261749   5.285   1.525   3.633  0.3099  1.0173 -0.2469
13420TIP3   OH261750   6.363   3.842   0.537 -0.2414 -0.8718  0.1375
13420TIP3    H161751   6.367   3.798   0.452  1.1680 -1.8271  0.6628
13420TIP3    H261752   6.275   3.821   0.570 -0.1545 -1.9954 -0.3100
13421TIP3   OH261753   3.775   3.456  10.429 -0.4515 -0.2987 -0.0340
13421TIP3    H161754   3.839   3.521  10.401 -0.9741  0.5479  0.6507
13421TIP3    H261755   3.764   3.473  10.523 -0.2212 -1.7227  0.2752
13422TIP3   OH261756   6.186   6.028   5.299 -0.3276  0.5862 -0.5621
13422TIP3    H161757   6.167   5.984   5.216  1.3816  1.6075 -1.5566
13422TIP3    H261758   6.187   6.121   5.278  0.4212  0.8535  0.5278
13423TIP3   OH261759   5.203   1.051  16.999 -0.2700 -0.8611  0.2919
13423TIP3    H161760   5.254   1.125  17.031 -1.5868 -0.6562  2.0803
13423TIP3    H261761   5.218   1.051  16.904  0.5366  1.0945  0.3683
13424TIP3   OH261762   2.024   6.564   4.011 -0.2738  0.1667 -0.3164
13424TIP3    H161763   2.097   6.584   4.070  0.0434 -0.3212 -0.5331
13424TIP3    H261764   2.020   6.468   4.010 -0.9813  0.1902 -0.2327
13425TIP3   OH261765   0.656   6.538  15.746  0.2624 -0.8804  0.1617
13425TIP3    H161766   0.713   6.583  15.684 -0.6140  0.5090  0.3196
13425TIP3    H261767   0.595   6.489  15.691 -0.1184 -0.1503 -0.0810
13426TIP3   OH261768   5.125   2.986  12.627 -0.2927 -0.6180 -0.8200
13426TIP3    H161769   5.055   2.920  12.627 -0.4940 -0.4189 -1.7441
13426TIP3    H261770   5.084   3.064  12.591 -0.1197  0.0989  0.4963
13427TIP3   OH261771   6.083   0.800   0.509 -0.2720 -0.1637  0.4363
13427TIP3    H161772   6.000   0.838   0.538 -1.2539 -0.8580 -1.3292
13427TIP3    H261773   6.101   0.731   0.573 -1.8277 -0.9691  0.0448
13428TIP3   OH261774   5.729   3.038  12.802  0.1516  0.0905 -0.3905
13428TIP3    H161775   5.793   2.971  12.778  1.6872  0.3695  2.4805
13428TIP3    H261776   5.656   2.989  12.839  0.6014 -0.1109  0.2627
13429TIP3   OH261777   3.721   2.480   5.077 -0.0901 -0.3605 -0.6089
13429TIP3    H161778   3.722   2.574   5.094  0.6148 -0.8199  2.6009
13429TIP3    H261779   3.629   2.455   5.086  0.1022 -0.4035  2.3110
13430TIP3   OH261780   0.970   0.714  11.647  0.1563 -0.0758  0.1087
13430TIP3    H161781   1.045   0.678  11.696 -0.3528 -0.0711  0.9114
13430TIP3    H261782   0.911   0.747  11.715 -0.4265  0.2163 -0.5313
13431TIP3   OH261783   1.818   3.902  14.268  0.1826  0.2066 -0.1513
13431TIP3    H161784   1.774   3.858  14.341  2.1822 -3.3848 -0.9153
13431TIP3    H261785   1.902   3.930  14.304  0.5614 -0.2311 -0.6848
13432TIP3   OH261786   3.213   1.209   2.923 -0.2888 -0.0239 -0.8095
13432TIP3    H161787   3.151   1.153   2.970  2.3884 -3.4524 -0.9544
13432TIP3    H261788   3.256   1.260   2.992  1.4362 -2.7545  0.3148
13433TIP3   OH261789   1.034   3.703   5.975 -0.0399  0.5927 -0.4875
13433TIP3    H161790   0.958   3.651   5.948  0.7234  0.0677 -1.7010
13433TIP3    H261791   1.098   3.638   6.004 -0.2366  1.0624  1.0537
13434TIP3   OH261792   6.430   3.050  14.529 -0.0686 -0.3855  0.3482
13434TIP3    H161793   6.473   3.125  14.487 -0.3133 -1.1700 -1.3924
13434TIP3    H261794   6.341   3.079  14.545 -0.4781 -0.6062 -1.3186
13435TIP3   OH261795   5.193   0.593  11.592  0.0393  0.8372  0.8199
13435TIP3    H161796   5.130   0.661  11.570  0.0550  0.6183  0.0825
13435TIP3    H261797   5.278   0.636  11.586  0.1169  0.5289 -0.5934
13436TIP3   OH261798   1.827   6.672  14.829  0.2072  0.2676  0.2517
13436TIP3    H161799   1.848   6.639  14.742  0.2851  1.2119 -0.1063
13436TIP3    H261800   1.742   6.634  14.850 -0.3104  0.8530 -0.7019
13437TIP3   OH261801   1.053   3.247   5.994  0.8489  0.4576  0.3482
13437TIP3    H161802   1.049   3.161   5.953  0.7160  0.5457  0.1783
13437TIP3    H261803   0.962   3.275   6.002  0.8924  0.5898  0.3855
13438TIP3   OH261804   3.818   2.610  14.068  0.3012 -0.3923  1.2190
13438TIP3    H161805   3.831   2.662  13.989  3.0224 -0.8746  1.2617
13438TIP3    H261806   3.725   2.585  14.065  0.2113 -0.0525 -1.6030
13439TIP3   OH261807   0.618   6.133  14.338 -0.1548 -0.0494  0.0358
13439TIP3    H161808   0.556   6.124  14.411 -0.4275 -0.5883 -0.2539
13439TIP3    H261809   0.574   6.193  14.277  0.5124  1.2053  0.7635
13440TIP3   OH261810   1.596   4.325  12.965  0.5123 -0.2410 -0.0531
13440TIP3    H161811   1.610   4.386  12.892  2.6780 -0.8681 -0.2237
13440TIP3    H261812   1.574   4.242  12.923  0.5487 -0.3061  0.0556
13441TIP3   OH261813   1.154   4.704   6.363  0.2152  0.1479 -0.2657
13441TIP3    H161814   1.225   4.695   6.426 -1.9390 -0.1170  2.3387
13441TIP3    H261815   1.112   4.618   6.361 -0.3497  0.4224 -1.3767
13442TIP3   OH261816   4.204   1.471  14.658  0.2171  0.8696 -0.3056
13442TIP3    H161817   4.197   1.563  14.685  0.6861  1.2732 -1.5137
13442TIP3    H261818   4.290   1.444  14.690  0.6892  1.2865 -1.2095
13443TIP3   OH261819   5.336   1.423  15.446  0.0722  0.7379  0.1402
13443TIP3    H161820   5.245   1.394  15.442 -0.1092  1.0880  1.3761
13443TIP3    H261821   5.359   1.417  15.539  1.5876 -0.1923 -0.2595
13444TIP3   OH261822   2.152   2.156  15.003  0.2517  0.1494 -0.0869
13444TIP3    H161823   2.061   2.169  15.028  0.5685  0.9211  0.6938
13444TIP3    H261824   2.180   2.240  14.969  0.6149 -0.1505 -0.5435
13445TIP3   OH261825   0.163   2.177   1.613  0.6267  0.2386 -0.1536
13445TIP3    H161826   0.246   2.220   1.635  0.8707  0.4452 -1.3832
13445TIP3    H261827   0.137   2.132   1.693  1.7419  0.4840  0.3645
13446TIP3   OH261828   3.951   3.230   0.909 -0.4219 -0.0122 -0.5171
13446TIP3    H161829   3.880   3.187   0.958 -2.3245  3.4298  0.1014
13446TIP3    H261830   4.009   3.265   0.976 -0.2273  0.3966 -0.8943
13447TIP3   OH261831   1.716   0.343  13.332 -0.2484  0.0353  0.3998
13447TIP3    H161832   1.758   0.317  13.414 -2.4219 -2.4871  0.8840
13447TIP3    H261833   1.645   0.279  13.321 -1.3457  1.5646 -2.3953
13448TIP3   OH261834   2.594   2.916  16.647  0.0941  0.2709  0.2015
13448TIP3    H161835   2.658   2.976  16.610  0.3041 -0.4204 -0.5940
13448TIP3    H261836   2.538   2.971  16.702  1.8971  0.7322  1.6427
13449TIP3   OH261837   5.733   3.159  13.730  0.6807 -0.5695 -0.2201
13449TIP3    H161838   5.644   3.139  13.761 -0.0296  1.4914 -0.7834
13449TIP3    H261839   5.728   3.250  13.700  3.2792 -0.0101  0.7956
13450TIP3   OH261840   2.435   4.065   0.366  0.1403  0.4984 -0.0337
13450TIP3    H161841   2.429   4.107   0.452  1.9839  0.0873  0.3526
13450TIP3    H261842   2.501   3.997   0.378  0.6242  0.6032 -1.8451
13451TIP3   OH261843   3.360   0.773  14.510 -0.0441  0.4096  0.0112
13451TIP3    H161844   3.326   0.840  14.452  0.0876  1.6895  1.3583
13451TIP3    H261845   3.283   0.722  14.535 -0.1369  0.0007 -1.0561
13452TIP3   OH261846   4.941   2.246   0.660 -0.1559  0.8488 -0.1585
13452TIP3    H161847   4.970   2.337   0.659 -0.2543  0.8797 -0.2398
13452TIP3    H261848   5.012   2.197   0.618  0.1740  0.8041  0.4409
13453TIP3   OH261849   1.234   5.768   1.103  0.5916  0.1932 -0.2111
13453TIP3    H161850   1.195   5.775   1.190  0.8018 -0.7552 -0.0249
13453TIP3    H261851   1.324   5.739   1.119  0.9351  0.9507 -0.7061
13454TIP3   OH261852   5.339   6.795  13.225  0.3212 -0.2445 -0.1422
13454TIP3    H161853   5.270   6.730  13.212  1.3814 -1.5191  0.3678
13454TIP3    H261854   5.418   6.753  13.192  1.4507 -0.1346  2.2002
13455TIP3   OH261855   5.111   2.246  15.399 -0.4608  0.1048  0.0374
13455TIP3    H161856   5.204   2.231  15.381 -0.4332  0.1087  0.1697
13455TIP3    H261857   5.109   2.270  15.492 -0.6028  0.0270  0.0548
13456TIP3   OH261858   3.564   6.756   0.798  0.4880  0.0329  0.2285
13456TIP3    H161859   3.588   6.842   0.833 -0.5642 -0.1969  1.6008
13456TIP3    H261860   3.632   6.736   0.734  1.3202  1.4212  0.6440
13457TIP3   OH261861   1.883   0.474  16.137  0.0154  0.6555  0.1340
13457TIP3    H161862   1.933   0.549  16.168  0.4293  0.8410 -0.9589
13457TIP3    H261863   1.843   0.503  16.055  0.9393 -0.6096 -0.8040
13458TIP3   OH261864   3.592   2.496  11.885  0.2221  0.0980 -0.5022
13458TIP3    H161865   3.565   2.513  11.976  0.1181  0.8143 -0.6569
13458TIP3    H261866   3.683   2.468  11.891 -0.1220 -0.9522 -0.0864
13459TIP3   OH261867   0.546   1.839  11.160 -0.1492 -0.0369  0.3302
13459TIP3    H161868   0.630   1.879  11.182  0.0106 -1.0441  1.6697
13459TIP3    H261869   0.535   1.857  11.067 -0.3714  3.5760  0.8985
13460TIP3   OH261870   1.286   0.488  10.784  0.6652  0.0495  0.8383
13460TIP3    H161871   1.298   0.569  10.734 -2.5530 -0.6884 -1.5533
13460TIP3    H261872   1.336   0.423  10.735  1.5460  0.1924  1.5346
13461TIP3   OH261873   0.084   4.776   4.331 -0.3002 -0.4584 -0.2298
13461TIP3    H161874   0.139   4.819   4.266 -0.4261 -0.8370 -0.5928
13461TIP3    H261875   0.138   4.705   4.365 -0.0027  0.1150  0.5455
13462TIP3   OH261876   0.369   6.533   1.458 -0.7596 -0.0200  0.0993
13462TIP3    H161877   0.394   6.623   1.442  1.8578 -0.9404 -1.6144
13462TIP3    H261878   0.306   6.513   1.389 -0.6568  0.2468 -0.0725
13463TIP3   OH261879   6.143   1.578   1.609  0.2682  0.3648 -0.7145
13463TIP3    H161880   6.202   1.509   1.640 -0.6097 -0.0747  0.0283
13463TIP3    H261881   6.107   1.544   1.527  2.0012  1.1958 -1.8935
13464TIP3   OH261882   4.001   6.057   4.146  0.6091  0.7565 -0.2355
13464TIP3    H161883   4.047   5.973   4.135  2.0910  1.3640  0.9669
13464TIP3    H261884   4.014   6.102   4.063  0.0559 -0.0614 -0.7873
13465TIP3   OH261885   1.795   5.701  16.699  0.2725 -0.2805  0.2534
13465TIP3    H161886   1.745   5.781  16.713  0.0736 -0.3614 -0.0115
13465TIP3    H261887   1.753   5.658  16.626  1.5664  0.3426 -0.9147
13466TIP3   OH261888   4.702   2.676   6.805 -0.2759  0.1233 -1.1152
13466TIP3    H161889   4.764   2.630   6.861  1.9499  3.0084 -0.9476
13466TIP3    H261890   4.749   2.687   6.722 -1.8213 -0.2796 -2.0881
13467TIP3   OH261891   3.038   5.332  17.071 -0.3813 -0.0653  0.6037
13467TIP3    H161892   3.117   5.334  17.018  0.0171 -2.7276  0.9913
13467TIP3    H261893   2.967   5.327  17.008  0.0996 -3.5704  0.1607
13468TIP3   OH261894   4.942   2.844   2.005 -0.5234 -0.7026  0.3189
13468TIP3    H161895   4.986   2.923   2.037 -0.6617 -1.3407  2.2425
13468TIP3    H261896   4.974   2.774   2.062 -1.1701 -1.8649 -0.6940
13469TIP3   OH261897   2.019   2.777  11.756 -0.4426 -0.6133  0.1423
13469TIP3    H161898   2.086   2.823  11.705 -2.0640  1.8883  0.1180
13469TIP3    H261899   1.965   2.733  11.689 -0.9402  0.3897 -0.1373
13470TIP3   OH261900   3.335   2.190   0.653  0.1653  0.4760 -0.1714
13470TIP3    H161901   3.284   2.112   0.675 -1.3171  1.6205  0.6013
13470TIP3    H261902   3.309   2.212   0.564 -0.4428  0.8563  0.0965
13471TIP3   OH261903   2.163   5.284   6.475  0.3620 -0.1554  0.0530
13471TIP3    H161904   2.110   5.342   6.529  1.0435 -0.5314  1.1849
13471TIP3    H261905   2.239   5.337   6.450 -0.4995  0.3836 -1.5670
13472TIP3   OH261906   5.696   0.400  11.860  0.1389 -0.4157 -0.0525
13472TIP3    H161907   5.757   0.374  11.928  0.7651 -3.8621 -1.7317
13472TIP3    H261908   5.751   0.434  11.790 -0.2730  0.3337 -0.0318
13473TIP3   OH261909   1.525   4.772   5.186  0.4170 -0.1954 -0.3805
13473TIP3    H161910   1.483   4.688   5.204  0.6972 -0.0878  0.8116
13473TIP3    H261911   1.587   4.785   5.258 -0.0250  1.3039 -0.2334
13474TIP3   OH261912   4.351   0.488   3.229  0.9583  0.1521  0.3009
13474TIP3    H161913   4.257   0.468   3.226  0.1556  3.3607 -2.1164
13474TIP3    H261914   4.376   0.470   3.319 -1.6037 -2.0969  0.7126
13475TIP3   OH261915   1.275   4.131  10.994  0.6089 -0.1440  0.9894
13475TIP3    H161916   1.346   4.172  10.944  1.3094 -3.0599 -0.6980
13475TIP3    H261917   1.195   4.165  10.955  1.1254  0.5209  0.4895
13476TIP3   OH261918   3.717   4.918   4.622  0.2547  0.5318 -0.2778
13476TIP3    H161919   3.737   4.828   4.645 -1.4628 -0.7187 -3.0813
13476TIP3    H261920   3.801   4.956   4.595  1.1345  0.0901  1.7050
13477TIP3   OH261921   6.149   1.348  11.398  0.8592  0.0504 -0.2908
13477TIP3    H161922   6.157   1.294  11.477 -2.4600 -0.9909 -0.5079
13477TIP3    H261923   6.149   1.438  11.430 -1.5415 -0.3753  1.1607
13478TIP3   OH261924   4.532   1.737   6.080 -0.3305  0.1889 -0.1590
13478TIP3    H161925   4.500   1.647   6.075 -1.7455  0.6125  0.7584
13478TIP3    H261926   4.480   1.778   6.149 -0.3866  1.9846 -1.1906
13479TIP3   OH261927   1.699   1.928  12.849 -0.0924 -0.0870  0.2228
13479TIP3    H161928   1.740   1.980  12.779 -0.6066 -0.1767 -0.1534
13479TIP3    H261929   1.698   1.839  12.815  1.0571 -0.4089  0.9935
13480TIP3   OH261930   1.213   6.584   5.378 -0.3741 -0.5160  0.2961
13480TIP3    H161931   1.270   6.661   5.377 -2.5962  1.2363  0.8736
13480TIP3    H261932   1.266   6.516   5.420  0.9505  1.3108  1.7692
13481TIP3   OH261933   1.789   2.725  17.255 -0.0555  0.4739 -0.0065
13481TIP3    H161934   1.789   2.754  17.346 -0.8545 -0.3357  0.2643
13481TIP3    H261935   1.791   2.629  17.261 -3.5892  0.2308 -0.7425
13482TIP3   OH261936   2.877   4.455   1.613 -0.0289  0.0052  0.0173
13482TIP3    H161937   2.847   4.428   1.526 -1.4173  0.6687  0.2560
13482TIP3    H261938   2.895   4.549   1.604 -0.6947  0.1934  0.5515
13483TIP3   OH261939   3.984   4.937  16.144 -0.5917  0.0434 -0.4360
13483TIP3    H161940   3.979   4.866  16.208 -2.4091 -1.8138 -2.4881
13483TIP3    H261941   4.061   4.988  16.171 -0.1861 -1.7260  2.0835
13484TIP3   OH261942   5.154   0.660  13.677  0.0647 -0.4302  0.1423
13484TIP3    H161943   5.085   0.679  13.741  0.5381 -0.1087  0.5658
13484TIP3    H261944   5.115   0.595  13.618 -0.3747 -0.7406  0.7646
13485TIP3   OH261945   5.605   3.540  14.168 -0.1685 -0.1445  0.5478
13485TIP3    H161946   5.617   3.578  14.255  0.6085 -0.5302  0.6104
13485TIP3    H261947   5.685   3.563  14.121 -0.4026 -0.3079  0.0684
13486TIP3   OH261948   5.953   0.063  12.719  0.4704  0.4225 -0.1298
13486TIP3    H161949   5.870   0.029  12.684  1.1111 -0.6398 -0.6566
13486TIP3    H261950   5.971   0.140  12.666 -0.8277  1.4508  0.8476
13487TIP3   OH261951   1.561   6.371   4.865 -0.1882 -0.2659 -0.1794
13487TIP3    H161952   1.638   6.401   4.912 -0.0626 -0.0054 -0.5503
13487TIP3    H261953   1.567   6.413   4.779 -0.8020 -0.1494 -0.1698
13488TIP3   OH261954   0.199   5.628  16.379  0.6653  0.1594  0.3480
13488TIP3    H161955   0.193   5.565  16.451  1.6699  0.6976  0.9163
13488TIP3    H261956   0.279   5.604  16.332  1.3542  1.3123  0.8867
13489TIP3   OH261957   4.654   2.501  12.996  0.5225  0.0432  0.1299
13489TIP3    H161958   4.634   2.426  13.053  0.8244 -0.2251 -0.1151
13489TIP3    H261959   4.737   2.535  13.030  1.1424 -0.6265 -0.6474
13490TIP3   OH261960   0.087   6.253  16.280  0.2733 -0.1323 -0.4373
13490TIP3    H161961   0.167   6.232  16.232  0.8185  0.9255 -0.0289
13490TIP3    H261962   0.084   6.190  16.351  1.2186  0.3625  0.0615
13491TIP3   OH261963   1.845   6.653   1.813  0.0723 -0.5622  0.0762
13491TIP3    H161964   1.757   6.646   1.849  0.0992 -1.6460 -0.0299
13491TIP3    H261965   1.838   6.720   1.744 -0.1921  0.8048  1.3861
13492TIP3   OH261966   4.618   3.865   3.923 -0.5859  0.0100 -0.0863
13492TIP3    H161967   4.683   3.870   3.993  0.7515  1.6083 -1.3435
13492TIP3    H261968   4.560   3.793   3.948  0.9909 -0.7196  1.6674
13493TIP3   OH261969   6.004   6.684  15.330  0.0375  0.1645  0.4340
13493TIP3    H161970   5.949   6.760  15.313  0.1808  0.2440  0.3234
13493TIP3    H261971   5.978   6.620  15.264 -1.2141 -0.4897  1.5092
13494TIP3   OH261972   6.171   2.303   4.924 -0.3372  0.1670 -0.4387
13494TIP3    H161973   6.165   2.289   4.830  1.7413  0.2170 -0.6297
13494TIP3    H261974   6.257   2.267   4.948 -1.1974 -0.6655  1.5972
13495TIP3   OH261975   5.705   0.042   1.449  0.1965 -0.6017 -0.1843
13495TIP3    H161976   5.653  -0.038   1.439 -1.4996  0.2354  1.4445
13495TIP3    H261977   5.702   0.084   1.363 -1.5820 -0.7414 -0.2144
13496TIP3   OH261978   2.889   5.858   5.042 -0.0784 -0.5258  0.0828
13496TIP3    H161979   2.959   5.901   4.993 -1.1465 -0.6246 -1.5999
13496TIP3    H261980   2.875   5.775   4.996 -2.5843  0.3288 -0.8587
13497TIP3   OH261981   2.171   5.827  15.797  0.0949 -0.6919 -0.5077
13497TIP3    H161982   2.086   5.822  15.753  0.2713  1.3851 -1.2098
13497TIP3    H261983   2.156   5.789  15.883 -1.1065 -1.8818 -1.2121
13498TIP3   OH261984   2.623   1.190   0.884  0.2052  0.1348  0.3116
13498TIP3    H161985   2.693   1.233   0.836 -2.0224  1.6800 -1.7438
13498TIP3    H261986   2.543   1.213   0.837 -1.7602 -1.3162  2.6953
13499TIP3   OH261987   2.156   6.815   4.576  0.6370 -0.5745 -0.1210
13499TIP3    H161988   2.166   6.729   4.536  0.1585 -2.0416  2.6601
13499TIP3    H261989   2.237   6.828   4.625  0.8573  0.7697 -0.7974
13500TIP3   OH261990   5.496   4.966  14.371  0.1306 -0.2312 -0.3463
13500TIP3    H161991   5.540   4.974  14.456 -2.6339  0.9703  1.0899
13500TIP3    H261992   5.434   4.895  14.383  0.8432 -1.1817 -1.9725
13501TIP3   OH261993   4.644   3.038   2.161  0.1944 -0.6333  0.2141
13501TIP3    H161994   4.703   3.006   2.093  0.5059 -0.0281  0.1915
13501TIP3    H261995   4.557   3.017   2.129  0.3150  0.0431 -0.5930
13502TIP3   OH261996   6.335   4.553   3.468  0.2353 -0.4725  0.2662
13502TIP3    H161997   6.337   4.468   3.425  0.6644 -0.5961  0.5255
13502TIP3    H261998   6.326   4.533   3.561 -0.1384 -0.2194  0.2890
13503TIP3   OH261999   0.644   3.335  16.848  0.0207 -0.1454 -0.2591
13503TIP3    H162000   0.703   3.328  16.773  0.3297  2.4317 -0.3459
13503TIP3    H262001   0.636   3.429  16.863 -5.0796 -0.1345 -1.1079
13504TIP3   OH262002   2.245   5.741   0.630  0.2072 -0.1093  0.2729
13504TIP3    H162003   2.297   5.682   0.577  1.8585  1.1872  0.3935
13504TIP3    H262004   2.155   5.708   0.621  0.9519 -2.1472 -0.2623
13505TIP3   OH262005   3.462   1.758  15.897  0.0486  0.3516  0.3421
13505TIP3    H162006   3.480   1.676  15.944 -1.2572 -0.5580 -0.6953
13505TIP3    H262007   3.437   1.820  15.966  3.4312  0.7183  1.4830
13506TIP3   OH262008   3.901   5.927   0.305  0.7393  0.2423 -0.0433
13506TIP3    H162009   3.937   5.840   0.290  0.0875  0.0155 -0.3623
13506TIP3    H262010   3.806   5.915   0.296  0.7427  1.3565 -2.1608
13507TIP3   OH262011   0.435   3.942   0.228 -0.5346 -0.0157 -0.0914
13507TIP3    H162012   0.389   3.870   0.186 -0.7738  0.3591 -0.4830
13507TIP3    H262013   0.479   3.902   0.303 -1.3514 -0.4160  0.1878
13508TIP3   OH262014   2.877   3.627   4.622  0.1782 -0.0008 -0.2054
13508TIP3    H162015   2.887   3.693   4.553  0.5146  0.4036  0.2240
13508TIP3    H262016   2.838   3.552   4.578  1.6710 -0.2712 -1.1625
13509TIP3   OH262017   2.788   2.930   4.741  0.3213  0.4228 -0.3607
13509TIP3    H162018   2.731   2.894   4.809  0.7796 -1.4681 -0.9189
13509TIP3    H262019   2.820   3.013   4.778 -1.4146  0.6839  0.6487
13510TIP3   OH262020   5.628   0.655  13.549 -0.0430  0.6269  0.2841
13510TIP3    H162021   5.596   0.741  13.521  0.0838  0.4214 -0.5238
13510TIP3    H262022   5.691   0.630  13.481  0.8233  0.4253  1.1460
13511TIP3   OH262023   1.066   2.716  16.077  0.0338  0.0061  0.2177
13511TIP3    H162024   1.064   2.636  16.024  1.0262 -0.4568  0.8494
13511TIP3    H262025   1.065   2.685  16.168 -0.9882  0.7679  0.4876
13512TIP3   OH262026   2.672   3.592   1.404 -0.2203  0.4514  0.2255
13512TIP3    H162027   2.631   3.539   1.335 -0.5909  0.4988  0.4061
13512TIP3    H262028   2.607   3.594   1.474 -2.2928  4.8703 -1.4243
13513TIP3   OH262029   1.534   3.725  14.718  0.0260 -0.3768 -0.0036
13513TIP3    H162030   1.443   3.753  14.732  0.2876  0.2833  0.4542
13513TIP3    H262031   1.529   3.630  14.710 -0.6284 -0.4159  0.7267
13514TIP3   OH262032   3.582   3.060  12.871 -1.0854  0.0600 -0.1149
13514TIP3    H162033   3.670   3.096  12.861 -0.5151 -1.2827 -0.2379
13514TIP3    H262034   3.554   3.089  12.958  0.5924 -1.6608  1.0894
13515TIP3   OH262035   6.405   5.309  14.012 -0.2884 -0.2830  0.2146
13515TIP3    H162036   6.463   5.233  13.999 -0.1676 -0.6773  2.6785
13515TIP3    H262037   6.419   5.334  14.103 -1.7646  1.5354 -0.0202
13516TIP3   OH262038   5.747   1.305  13.435  0.3417 -0.0288  0.4841
13516TIP3    H162039   5.725   1.225  13.484  1.5958 -1.4744 -1.1448
13516TIP3    H262040   5.836   1.326  13.463  0.4915  0.0303 -0.0234
13517TIP3   OH262041   5.137   0.519   1.124  0.7715 -0.2267 -0.1429
13517TIP3    H162042   5.214   0.575   1.112  1.2958 -1.0542 -0.6799
13517TIP3    H262043   5.082   0.537   1.049  0.0532  0.9391  0.6250
13518TIP3   OH262044   4.750   5.089   2.143  0.2652 -0.4462  0.0972
13518TIP3    H162045   4.728   5.171   2.188  0.1273 -0.1759 -0.4645
13518TIP3    H262046   4.716   5.100   2.055  1.2108 -0.6730 -0.3053
13519TIP3   OH262047   1.661   5.790   0.749 -0.0666  0.1433 -0.3448
13519TIP3    H162048   1.693   5.733   0.818  1.7062  0.2639 -0.9927
13519TIP3    H262049   1.603   5.735   0.696  1.9920 -1.2961 -1.2504
13520TIP3   OH262050   0.994   6.589   5.691  0.3359 -0.4312  0.0115
13520TIP3    H162051   0.945   6.650   5.746  0.1748  0.4932 -1.1315
13520TIP3    H262052   1.069   6.563   5.744 -1.7081 -2.5283  2.1661
13521TIP3   OH262053   5.468   0.866   2.290 -0.1297  0.1005 -0.1427
13521TIP3    H162054   5.408   0.869   2.365 -0.0041 -1.4143  0.0406
13521TIP3    H262055   5.430   0.926   2.227 -1.6407 -0.5371  0.1244
13522TIP3   OH262056   6.784   2.602  13.880  0.4234  0.2368 -0.2903
13522TIP3    H162057   6.743   2.574  13.962  3.7161 -0.1457  1.3969
13522TIP3    H262058   6.873   2.626  13.905  1.7228 -0.3222 -3.8508
13523TIP3   OH262059   5.246   2.889   1.741 -0.4081  0.1164 -0.2053
13523TIP3    H162060   5.229   2.803   1.779 -0.9747  0.9049  1.4670
13523TIP3    H262061   5.186   2.948   1.788  2.1359  1.9408  1.0545
13524TIP3   OH262062   3.846   3.831  16.722 -0.2435  0.0983 -0.0463
13524TIP3    H162063   3.799   3.767  16.776  1.0545 -0.1731  0.8119
13524TIP3    H262064   3.908   3.778  16.672  1.0188  0.6678  0.8545
13525TIP3   OH262065   1.973   4.133   2.520  0.6881 -0.6612 -0.3446
13525TIP3    H162066   1.958   4.142   2.426 -1.6506 -1.5442 -0.1263
13525TIP3    H262067   2.062   4.166   2.534  0.6253  0.6694 -2.6596
13526TIP3   OH262068   6.216   3.281   3.681  0.0463  0.1972  0.3683
13526TIP3    H162069   6.185   3.368   3.708 -0.4955  0.1241 -0.0124
13526TIP3    H262070   6.192   3.223   3.754  0.0274  0.2860  0.4331
13527TIP3   OH262071   5.449   1.401   5.998 -0.2196 -0.4957 -0.6610
13527TIP3    H162072   5.523   1.341   6.003  0.0770 -0.1373 -0.7099
13527TIP3    H262073   5.468   1.469   6.062 -0.7168 -0.6288 -0.3653
13528TIP3   OH262074   1.060   1.324   5.676 -0.2326  0.5207 -0.1091
13528TIP3    H162075   1.091   1.234   5.670 -0.4642  0.4545 -0.3516
13528TIP3    H262076   1.011   1.328   5.758  1.0321  0.8226  0.6553
13529TIP3   OH262077   3.962   4.607   5.002  0.8211  0.5494  0.8534
13529TIP3    H162078   3.946   4.646   5.088 -0.9203  0.6495  0.5230
13529TIP3    H262079   4.016   4.672   4.956  0.1046  1.4144  1.1953
13530TIP3   OH262080   6.558   3.381   3.213  0.3275 -0.3636 -0.2214
13530TIP3    H162081   6.472   3.339   3.221 -0.1454  0.5020 -0.5974
13530TIP3    H262082   6.619   3.309   3.200 -0.5856 -0.8877 -1.8474
13531TIP3   OH262083   2.154   3.783  16.982  0.7651 -0.0658  0.4252
13531TIP3    H162084   2.108   3.718  16.929 -0.2524  0.8244  0.1768
13531TIP3    H262085   2.086   3.824  17.035  1.0415  2.0533 -0.7532
13532TIP3   OH262086   5.646   6.719  15.706  0.4269 -0.5959  0.5073
13532TIP3    H162087   5.596   6.767  15.640  1.3590  1.2540  1.0760
13532TIP3    H262088   5.736   6.719  15.673  1.0323  0.8946  1.9622
13533TIP3   OH262089   0.423   3.569   0.585 -0.6935 -0.0509 -0.0854
13533TIP3    H162090   0.446   3.581   0.677  0.4838 -0.8547 -0.2394
13533TIP3    H262091   0.369   3.490   0.584  0.2402 -0.7142 -0.1765
13534TIP3   OH262092   2.755   4.952   0.375  0.2274  0.0979  0.0623
13534TIP3    H162093   2.792   4.893   0.309 -1.6807 -1.7159  0.5476
13534TIP3    H262094   2.742   5.034   0.327 -0.2590 -0.8931 -1.6030
13535TIP3   OH262095   2.417   2.000   5.535 -0.7255 -0.2598 -0.0009
13535TIP3    H162096   2.509   1.998   5.562 -1.0743  1.7798  1.6076
13535TIP3    H262097   2.420   2.030   5.444  0.1615  1.7881  0.6496
13536TIP3   OH262098   0.294   3.913   3.912 -0.4188 -0.1866  0.3943
13536TIP3    H162099   0.373   3.926   3.860 -0.3766  1.7626  0.8628
13536TIP3    H262100   0.223   3.944   3.856 -0.7086 -0.7278  0.4543
13537TIP3   OH262101   6.537   4.682   1.349 -0.3217 -0.3819 -0.6277
13537TIP3    H162102   6.593   4.629   1.293  0.5862 -0.9685  0.7642
13537TIP3    H262103   6.588   4.694   1.429 -1.2530  1.0662 -0.2080
13538TIP3   OH262104   1.428   6.020   4.182  0.6641  0.2209  0.0918
13538TIP3    H162105   1.339   6.026   4.148  0.8208 -0.4505 -0.4527
13538TIP3    H262106   1.445   6.106   4.221 -0.7054 -0.0550  1.4147
13539TIP3   OH262107   0.939   0.733   4.160 -0.3360 -0.2965  0.0921
13539TIP3    H162108   0.892   0.798   4.108 -0.7024  0.1471  0.9614
13539TIP3    H262109   0.897   0.736   4.246  0.4095 -0.8480  0.4872
13540TIP3   OH262110   4.738   2.429  12.072 -0.0336 -0.5425 -0.2498
13540TIP3    H162111   4.737   2.522  12.093 -4.0362 -0.0738 -1.6510
13540TIP3    H262112   4.674   2.390  12.131  1.3168 -2.4078  0.0740
13541TIP3   OH262113   0.239   4.922  14.274 -0.1626 -0.6633 -0.2453
13541TIP3    H162114   0.328   4.955  14.288 -0.9792  1.9111 -0.6170
13541TIP3    H262115   0.207   4.901  14.362 -0.3361  1.7272  0.3207
13542TIP3   OH262116   2.417   4.982  15.621 -0.4761 -0.2665  0.3001
13542TIP3    H162117   2.361   5.054  15.652  0.7131  0.7547  0.1637
13542TIP3    H262118   2.365   4.939  15.553 -0.5113  1.6761 -0.9978
13543TIP3   OH262119   5.507   3.493  11.129 -0.6949  0.0140 -0.5048
13543TIP3    H162120   5.454   3.566  11.160 -0.5303  0.4222 -1.1862
13543TIP3    H262121   5.546   3.523  11.048 -0.7810 -0.9047 -0.9030
13544TIP3   OH262122   0.012   4.368   5.832 -0.9928  0.1500  0.0084
13544TIP3    H162123   0.037   4.458   5.810  0.2496  0.0599  0.9767
13544TIP3    H262124  -0.040   4.376   5.912  0.5946 -0.0928  1.1185
13545TIP3   OH262125   2.034   2.469  13.652 -0.2667 -0.5412  1.4521
13545TIP3    H162126   2.116   2.506  13.619 -0.5978 -0.7107  0.4034
13545TIP3    H262127   1.966   2.529  13.621 -0.9755 -2.6868 -1.5640
13546TIP3   OH262128   5.452   2.317  14.906  0.1665  0.2172 -0.0921
13546TIP3    H162129   5.415   2.383  14.847 -1.9465 -0.3354  0.5344
13546TIP3    H262130   5.546   2.319  14.888 -0.1886  1.3772 -2.1045
13547TIP3   OH262131   4.501   6.420   6.502 -0.0009 -0.5011 -0.1064
13547TIP3    H162132   4.519   6.510   6.473 -0.5291 -0.6610 -0.9929
13547TIP3    H262133   4.573   6.399   6.560  0.5736  0.2145 -0.5356
13548TIP3   OH262134   6.577   1.027  11.790 -0.3048  0.1892 -0.8051
13548TIP3    H162135   6.646   0.987  11.843  1.1221 -0.8885 -3.2577
13548TIP3    H262136   6.503   0.967  11.798 -0.3566  0.3999  0.4540
13549TIP3   OH262137   0.965   4.149  11.301  0.4582 -0.6332  0.3694
13549TIP3    H162138   0.982   4.221  11.241  1.2512 -1.5318 -0.5237
13549TIP3    H262139   0.936   4.077  11.245  2.5879 -1.9519  0.8387
13550TIP3   OH262140   3.509   1.983  12.255 -0.2416  0.6016  0.1657
13550TIP3    H162141   3.437   1.928  12.288 -1.0335  2.4750  1.7301
13550TIP3    H262142   3.584   1.959  12.310 -0.2024  0.0806 -0.1110
13551TIP3   OH262143   2.867   3.182   4.659  0.4360 -0.9416  0.5056
13551TIP3    H162144   2.849   3.102   4.610 -0.6425 -0.0335 -0.6329
13551TIP3    H262145   2.955   3.170   4.693  1.2105 -1.6366 -1.6169
13552TIP3   OH262146   3.890   0.334  14.054  0.1271 -0.1305  0.1692
13552TIP3    H162147   3.927   0.249  14.077  0.1534  0.3423  2.0690
13552TIP3    H262148   3.798   0.317  14.037 -0.2141 -0.3627  2.0512
13553TIP3   OH262149   3.186   4.757  12.022  0.0159  0.5524  0.3819
13553TIP3    H162150   3.192   4.813  11.944 -0.1663  0.4344  0.2846
13553TIP3    H262151   3.272   4.765  12.062  0.5573 -0.4239 -0.5430
13554TIP3   OH262152   0.563   0.248  12.863 -0.0675 -0.1503 -0.4045
13554TIP3    H162153   0.590   0.233  12.954  0.9850 -0.9685 -0.8324
13554TIP3    H262154   0.535   0.340  12.861 -1.5143 -0.5090  1.0655
13555TIP3   OH262155   0.454   3.956  12.775 -0.3137  0.1850  0.3775
13555TIP3    H162156   0.455   3.892  12.846  0.5441 -0.6283 -0.3379
13555TIP3    H262157   0.547   3.969  12.753 -0.4901  1.4902  0.3464
13556TIP3   OH262158   2.477   5.494  17.087  0.1402 -0.2257  0.2505
13556TIP3    H162159   2.405   5.540  17.130  2.1566  1.5339  1.9379
13556TIP3    H262160   2.464   5.402  17.111 -1.1979  0.1244  0.9888
13557TIP3   OH262161   4.277   5.717  15.350 -0.0505 -0.0596 -0.2338
13557TIP3    H162162   4.232   5.795  15.317  0.1558  0.4396  0.6237
13557TIP3    H262163   4.207   5.652  15.360 -0.2010 -0.0451 -1.0893
13558TIP3   OH262164   0.842   3.790  16.541 -0.6905  0.4053  0.6180
13558TIP3    H162165   0.845   3.752  16.454 -0.5988 -0.0398  0.8135
13558TIP3    H262166   0.749   3.788  16.565 -0.6731  0.1911  0.6736
13559TIP3   OH262167   3.262   1.033   3.186  0.6606  0.0863 -0.2238
13559TIP3    H162168   3.282   1.126   3.189  0.5743  0.1361 -1.0289
13559TIP3    H262169   3.343   0.990   3.212  0.2621  0.4071  1.6788
13560TIP3   OH262170   5.468   0.686  11.605  0.1804  0.3883  0.6883
13560TIP3    H162171   5.530   0.712  11.673  0.7746  0.9208 -0.0336
13560TIP3    H262172   5.450   0.767  11.556 -1.1137  0.2510  0.8951
13561TIP3   OH262173   0.127   4.192  14.035  0.0763 -0.0071  0.2726
13561TIP3    H162174   0.183   4.270  14.034 -1.0076  0.7878 -0.2413
13561TIP3    H262175   0.169   4.131  13.974 -1.1025  1.6855 -2.4145
13562TIP3   OH262176   5.456   0.631  12.083  0.0531 -0.1889 -0.2644
13562TIP3    H162177   5.424   0.695  12.147 -1.7682 -0.0293 -1.2666
13562TIP3    H262178   5.520   0.579  12.131 -0.6406  0.4600  1.4411
13563TIP3   OH262179   1.091   3.988  15.812  0.3798 -0.0740 -0.3138
13563TIP3    H162180   1.123   3.913  15.762  2.7808  0.7163 -0.1291
13563TIP3    H262181   1.138   3.981  15.896 -1.0142  0.4648  0.5376
13564TIP3   OH262182   4.489   5.892   1.906 -0.1206 -0.1915 -0.4317
13564TIP3    H162183   4.482   5.952   1.979  0.9786 -0.1049 -0.3674
13564TIP3    H262184   4.415   5.832   1.916 -0.0163 -0.1519  0.7202
13565TIP3   OH262185   3.854   4.142  12.850  0.0089 -0.1198 -0.5236
13565TIP3    H162186   3.945   4.112  12.845 -0.1935 -2.1042  3.4328
13565TIP3    H262187   3.811   4.097  12.777  1.8130 -0.6810 -1.3261
13566TIP3   OH262188   0.290   5.458   6.072 -0.2145  0.1222  0.3055
13566TIP3    H162189   0.217   5.399   6.053  0.9958 -1.5551  0.6457
13566TIP3    H262190   0.286   5.470   6.167  0.7636 -1.1284  0.5242
13567TIP3   OH262191   4.082   0.915   1.608  0.2817  0.4103 -0.2958
13567TIP3    H162192   4.058   0.843   1.665 -0.0461  0.9239  0.2226
13567TIP3    H262193   4.004   0.932   1.555  0.8107 -0.5387 -1.4304
13568TIP3   OH262194   1.464   4.682   3.053 -0.5677  0.4184  0.0410
13568TIP3    H162195   1.382   4.646   3.021  0.2234 -0.5584 -0.9527
13568TIP3    H262196   1.496   4.737   2.982 -1.2146  2.2785  1.1162
13569TIP3   OH262197   4.821   3.702   1.306 -0.0576 -0.0378  0.4169
13569TIP3    H162198   4.745   3.758   1.291 -0.2531 -0.3394  0.2730
13569TIP3    H262199   4.801   3.621   1.258  0.5901  0.0846 -0.0793
13570TIP3   OH262200   0.009   3.827  12.156 -0.0228  0.0769 -0.3813
13570TIP3    H162201   0.031   3.777  12.234  0.0785  1.8343  0.7807
13570TIP3    H262202   0.078   3.893  12.149  0.5743 -0.6760 -2.6003
13571TIP3   OH262203   6.507   4.908   1.105  0.2330  0.3039 -0.3835
13571TIP3    H162204   6.564   4.866   1.042  0.0518  0.6037 -0.7550
13571TIP3    H262205   6.439   4.843   1.125 -0.9155  0.9097 -2.0987
13572TIP3   OH262206   3.562   1.777  14.811 -0.0327 -0.1243  0.1038
13572TIP3    H162207   3.534   1.818  14.892 -1.6497 -1.7832  0.4647
13572TIP3    H262208   3.510   1.819  14.743  1.2852  1.2298 -0.1189
13573TIP3   OH262209   5.486   2.905  12.807 -0.0498 -0.3244 -0.3213
13573TIP3    H162210   5.474   2.840  12.738  0.1985 -0.0971 -0.5833
13573TIP3    H262211   5.476   2.856  12.889  0.9937 -0.8749 -0.4975
13574TIP3   OH262212   3.558   3.708  16.174 -0.1875  0.0054  0.5832
13574TIP3    H162213   3.513   3.632  16.210 -0.0514 -0.6664 -0.5978
13574TIP3    H262214   3.575   3.685  16.083  1.7083  0.6117  0.7331
13575TIP3   OH262215   1.488   4.801  13.556 -0.0522  0.1659  0.1554
13575TIP3    H162216   1.452   4.810  13.644  0.1749  1.2072  0.1559
13575TIP3    H262217   1.472   4.886  13.515 -0.4710 -0.4176 -0.9365
13576TIP3   OH262218   1.135   1.826  13.322  0.1561 -0.3825 -0.5195
13576TIP3    H162219   1.195   1.761  13.358 -0.5553 -0.3310  0.8050
13576TIP3    H262220   1.190   1.879  13.264  1.6828  0.4032  1.5293
13577TIP3   OH262221   4.680   1.973   4.516 -0.6010 -0.3710 -0.1639
13577TIP3    H162222   4.664   2.048   4.458 -0.4843 -1.3883 -1.5517
13577TIP3    H262223   4.767   1.991   4.553 -0.0837 -0.3401 -1.3421
13578TIP3   OH262224   2.305   3.122   2.239  0.3197  0.6007 -0.3111
13578TIP3    H162225   2.307   3.209   2.278  4.1810  0.8988 -0.8382
13578TIP3    H262226   2.384   3.118   2.185 -0.2887 -2.8891 -1.1739
13579TIP3   OH262227   2.988   5.221   4.204 -0.4462 -0.5717 -0.2809
13579TIP3    H162228   2.955   5.135   4.177  0.7690 -0.9496 -0.6146
13579TIP3    H262229   3.069   5.203   4.250  0.5728  0.4611 -1.5737
13580TIP3   OH262230   5.306   0.162   2.608  0.0877  0.1571  0.1683
13580TIP3    H162231   5.364   0.144   2.534  1.5408  0.7333  1.1249
13580TIP3    H262232   5.322   0.091   2.669 -2.0907 -1.0639 -0.5622
13581TIP3   OH262233   4.743   2.118  16.193 -0.2980  0.0119 -0.0247
13581TIP3    H162234   4.664   2.064  16.194 -0.7796  0.7034  0.3126
13581TIP3    H262235   4.806   2.071  16.247 -1.5445  0.9634  2.3891
13582TIP3   OH262236   4.474   5.545  12.231  0.8785 -0.6434 -0.1210
13582TIP3    H162237   4.398   5.499  12.265  0.9727 -1.1193 -0.5376
13582TIP3    H262238   4.473   5.630  12.276  0.5555 -0.9471  0.4601
13583TIP3   OH262239   3.250   4.067   2.683  0.2777 -0.9022 -0.3860
13583TIP3    H162240   3.163   4.105   2.672 -0.3518 -2.2821 -0.4248
13583TIP3    H262241   3.246   3.984   2.637  1.4436 -1.2525  0.0922
13584TIP3   OH262242   6.449   6.480   4.036 -0.4592  0.2456 -0.2077
13584TIP3    H162243   6.459   6.470   4.131 -0.0014 -0.5345 -0.3325
13584TIP3    H262244   6.448   6.575   4.022 -0.3830  0.3630  0.5636
13585TIP3   OH262245   2.113   0.426  12.797  0.1420  0.1595 -0.5715
13585TIP3    H162246   2.044   0.362  12.779  0.5491 -0.0827 -1.3024
13585TIP3    H262247   2.076   0.509  12.768 -0.3041  0.2251  0.1729
13586TIP3   OH262248   6.241   2.196  13.817  0.3562 -0.5187  0.2972
13586TIP3    H162249   6.328   2.207  13.779  1.0157 -0.5410  1.7405
13586TIP3    H262250   6.219   2.282  13.853 -0.7437 -0.1997 -1.0704
13587TIP3   OH262251   2.165   1.474   1.482  0.2944  0.0937 -0.7628
13587TIP3    H162252   2.159   1.418   1.560 -1.7661  1.0429 -0.1665
13587TIP3    H262253   2.234   1.434   1.429 -0.5274 -2.5425 -0.0078
13588TIP3   OH262254   4.660   5.406   1.307  0.9868 -0.0789  0.4273
13588TIP3    H162255   4.623   5.426   1.221 -0.5545 -2.8575  0.2991
13588TIP3    H262256   4.748   5.441   1.305  1.2357 -0.6352 -2.5764
13589TIP3   OH262257   2.741   1.888   2.274  0.1391 -0.3814  0.1049
13589TIP3    H162258   2.759   1.819   2.337 -1.2417 -0.8835 -0.0230
13589TIP3    H262259   2.819   1.890   2.217  0.2311 -1.7745  0.1515
13590TIP3   OH262260   2.062   3.176   2.514 -0.2294 -0.3332 -0.5370
13590TIP3    H162261   2.119   3.251   2.530  0.5663 -1.3406  1.6552
13590TIP3    H262262   1.974   3.212   2.513  0.1220  0.6116  0.7118
13591TIP3   OH262263   4.767   0.923  13.977 -0.3491  1.0092 -0.4596
13591TIP3    H162264   4.674   0.939  13.994 -0.8566 -0.3630 -1.7053
13591TIP3    H262265   4.794   0.994  13.919 -0.9799  0.6742 -1.1694
13592TIP3   OH262266   4.869   6.808   0.029 -0.0845 -0.5674 -0.1369
13592TIP3    H162267   4.939   6.845   0.082  0.1608 -0.7951 -0.3016
13592TIP3    H262268   4.800   6.786   0.092 -0.0462 -0.2634  0.0144
13593TIP3   OH262269   1.303   4.250  12.685 -0.3221  0.3786  0.2171
13593TIP3    H162270   1.260   4.176  12.642 -0.5073  0.9183 -0.5534
13593TIP3    H262271   1.308   4.225  12.777 -1.2964 -0.1681  0.1338
13594TIP3   OH262272   0.350   2.894  10.116 -0.0105 -0.2728 -0.0701
13594TIP3    H162273   0.389   2.864  10.198 -2.0901 -1.0922  0.7131
13594TIP3    H262274   0.322   2.983  10.133 -0.3765 -0.4180  0.0990
13595TIP3   OH262275   1.369   5.783  15.373  0.1090  0.0177 -0.2435
13595TIP3    H162276   1.372   5.877  15.352 -0.9265  0.4274  1.2774
13595TIP3    H262277   1.292   5.750  15.328  0.4187 -0.0865 -0.7004
13596TIP3   OH262278   4.241   5.183   2.788  0.1151  0.6886 -0.4476
13596TIP3    H162279   4.275   5.144   2.707  0.7752  1.0235 -0.3306
13596TIP3    H262280   4.234   5.276   2.768 -0.3069  0.6846 -0.3184
13597TIP3   OH262281   2.509   6.161   1.947  0.3474 -0.2205 -0.4323
13597TIP3    H162282   2.468   6.088   1.901 -1.4761 -0.3458  1.2565
13597TIP3    H262283   2.500   6.139   2.040  0.5719  1.7158  0.1044
13598TIP3   OH262284   3.898   6.817   1.777  0.0139 -0.0176 -0.5704
13598TIP3    H162285   3.967   6.878   1.805  1.0513 -0.8852 -1.1853
13598TIP3    H262286   3.937   6.730   1.785 -1.3778 -0.6195  0.0882
13599TIP3   OH262287   0.489   2.855  14.253  0.0524  0.3527 -0.5382
13599TIP3    H162288   0.415   2.911  14.276 -1.6659 -2.0117  0.1068
13599TIP3    H262289   0.487   2.850  14.157  1.2451  2.5552 -0.7485
13600TIP3   OH262290   2.320   0.120   4.116  0.8185 -0.1351 -0.1873
13600TIP3    H162291   2.412   0.144   4.103  0.8235 -0.6837 -1.2359
13600TIP3    H262292   2.276   0.151   4.037 -0.3630  2.2908  1.2967
13601TIP3   OH262293   5.907   3.514   3.909  0.1307 -0.6001  0.2265
13601TIP3    H162294   5.972   3.517   3.979 -0.6693  2.3627  0.9792
13601TIP3    H262295   5.823   3.509   3.955 -0.3342 -0.9878 -0.6415
13602TIP3   OH262296   2.279   5.251  14.891 -0.3410 -0.2934 -0.5142
13602TIP3    H162297   2.283   5.197  14.970 -0.6320  1.1791  0.5701
13602TIP3    H262298   2.187   5.251  14.866 -0.5668  0.6577  0.2335
13603TIP3   OH262299   4.082   1.378   4.021  0.0548 -0.3356  0.4241
13603TIP3    H162300   4.039   1.328   4.091 -2.2095  0.5989 -0.2223
13603TIP3    H262301   4.036   1.462   4.019  1.3626  0.4034 -0.9329
13604TIP3   OH262302   4.732   5.930   3.108  0.0275 -0.2876  0.1845
13604TIP3    H162303   4.735   5.972   3.021  0.7582  0.6128  0.6234
13604TIP3    H262304   4.731   5.836   3.089  1.1545 -0.1297 -0.8111
13605TIP3   OH262305   5.786   1.652  14.551 -0.3622  0.1072 -0.1763
13605TIP3    H162306   5.730   1.729  14.561  1.0909  1.1218  0.5106
13605TIP3    H262307   5.727   1.582  14.521 -2.7866  0.0912  3.9338
13606TIP3   OH262308   1.817   5.369  16.332  0.5772 -0.9339  0.1202
13606TIP3    H162309   1.792   5.278  16.321 -0.4614 -0.6301 -0.1588
13606TIP3    H262310   1.735   5.414  16.354  0.8683  0.0941 -0.8166
13607TIP3   OH262311   6.288   3.380  11.294  0.1691  0.0038  0.2460
13607TIP3    H162312   6.280   3.347  11.205 -1.6186 -0.3871  0.5190
13607TIP3    H262313   6.340   3.314  11.340 -1.1371 -1.1564  0.1247
13608TIP3   OH262314   3.720   0.846  16.911  0.0172 -0.2729  0.1588
13608TIP3    H162315   3.795   0.858  16.852  0.2662 -1.5241  0.1937
13608TIP3    H262316   3.754   0.790  16.981 -1.1007 -1.3304 -0.1188
13609TIP3   OH262317   5.569   2.942  11.384 -0.8363 -0.0317  0.7722
13609TIP3    H162318   5.581   3.000  11.459 -3.1912  1.5670  0.0048
13609TIP3    H262319   5.521   2.994  11.320 -1.7063 -2.3511 -0.5996
13610TIP3   OH262320   0.663   2.257   1.785  0.2401  0.0691 -0.1826
13610TIP3    H162321   0.749   2.296   1.773  0.3721 -0.1937 -0.1117
13610TIP3    H262322   0.669   2.173   1.739 -0.7031  0.9996 -2.1518
13611TIP3   OH262323   5.924   1.083  14.774 -0.1236 -0.2429 -0.0100
13611TIP3    H162324   5.872   1.075  14.854 -1.7624 -0.7727 -1.0494
13611TIP3    H262325   5.990   1.014  14.781 -0.4100 -0.4496  0.7629
13612TIP3   OH262326   1.828   6.597   0.522  0.2183  0.0384 -0.0934
13612TIP3    H162327   1.893   6.530   0.544  0.5016  0.0772 -0.7789
13612TIP3    H262328   1.747   6.548   0.507 -0.0970  0.0528  1.4340
13613TIP3   OH262329   3.938   1.870   3.466 -0.4019 -0.0858  0.7506
13613TIP3    H162330   3.941   1.831   3.553 -2.1896  1.0641  1.3786
13613TIP3    H262331   3.890   1.807   3.412 -1.1183  0.1110  1.1448
13614TIP3   OH262332   0.145   2.495   3.862 -1.0723  0.1125  0.5929
13614TIP3    H162333   0.234   2.467   3.882 -0.6130 -0.6929 -2.1018
13614TIP3    H262334   0.155   2.583   3.825 -1.1008 -0.6812 -1.4175
13615TIP3   OH262335   5.069   6.622  15.100 -0.0729 -0.1056 -0.5738
13615TIP3    H162336   5.063   6.530  15.126 -1.8126  0.0127 -0.4025
13615TIP3    H262337   5.123   6.662  15.168 -3.1615 -0.1369  2.2070
13616TIP3   OH262338   0.366   5.859  12.153  0.2565 -0.2014 -0.0207
13616TIP3    H162339   0.293   5.801  12.134  0.1611 -0.0063 -0.2497
13616TIP3    H262340   0.383   5.905  12.071 -0.7109  1.2594  0.5519
13617TIP3   OH262341   4.206   6.609  12.581 -0.4451 -0.1183 -0.6488
13617TIP3    H162342   4.298   6.635  12.574 -0.5489  0.4895  0.0870
13617TIP3    H262343   4.202   6.522  12.541  0.8306 -0.9588  0.9221
13618TIP3   OH262344   2.888   2.195   4.385 -0.4065 -0.1570 -0.5855
13618TIP3    H162345   2.873   2.122   4.445 -0.2241  0.0039 -0.3445
13618TIP3    H262346   2.852   2.271   4.430 -2.0578 -0.3385 -1.5101
13619TIP3   OH262347   6.330   4.550  15.746  0.4400 -0.4893  0.1792
13619TIP3    H162348   6.407   4.543  15.803 -0.2391 -0.4546  1.1245
13619TIP3    H262349   6.257   4.566  15.806 -0.0761  1.1528 -0.8312
13620TIP3   OH262350   0.573   4.566   3.666  1.0167 -0.1307 -0.1724
13620TIP3    H162351   0.597   4.486   3.713 -0.1087  0.3306  1.2784
13620TIP3    H262352   0.652   4.620   3.669  0.9949 -0.1310  1.2092
13621TIP3   OH262353   3.265   5.587   2.093 -0.0820  0.3164  0.2616
13621TIP3    H162354   3.266   5.664   2.150  2.9292  0.2912  0.4024
13621TIP3    H262355   3.324   5.525   2.136  1.1934 -0.2387 -2.1022
13622TIP3   OH262356   5.462   5.410   4.900  0.1567 -0.6034 -0.2460
13622TIP3    H162357   5.503   5.354   4.834 -1.0153 -1.8590  0.0305
13622TIP3    H262358   5.436   5.489   4.853  0.0711 -1.1367 -1.1129
13623TIP3   OH262359   3.482   6.234   4.105 -0.7494  0.5276 -0.9054
13623TIP3    H162360   3.506   6.146   4.075 -0.1605  0.6244 -0.7411
13623TIP3    H262361   3.540   6.250   4.180 -2.7038 -0.0247  0.7963
13624TIP3   OH262362   2.576   1.487  13.216  0.2091 -0.5374 -0.6264
13624TIP3    H162363   2.570   1.459  13.125  1.2344 -0.0731 -0.8567
13624TIP3    H262364   2.603   1.578  13.211  0.7663 -0.6474  0.1367
13625TIP3   OH262365   1.800   4.888   2.082  0.2265  0.1609  0.3200
13625TIP3    H162366   1.882   4.863   2.124  1.8988  3.8324 -0.4417
13625TIP3    H262367   1.741   4.908   2.155 -0.1209 -2.4287  0.8705
13626TIP3   OH262368   4.205   5.155   4.901 -0.7882 -0.0545 -0.7453
13626TIP3    H162369   4.234   5.244   4.881  0.0642 -0.1687 -0.0881
13626TIP3    H262370   4.118   5.166   4.940  0.1978  0.7199  1.3754
13627TIP3   OH262371   4.590   2.726   0.096 -0.5979 -0.3976 -0.0432
13627TIP3    H162372   4.523   2.776   0.049 -0.7425 -0.5391  0.0105
13627TIP3    H262373   4.565   2.635   0.083 -0.3715 -0.4530 -0.0857
13628TIP3   OH262374   2.529   3.526   5.131 -0.1913  0.8113 -0.0199
13628TIP3    H162375   2.474   3.458   5.091 -0.6832  0.0041  1.9057
13628TIP3    H262376   2.469   3.600   5.144 -0.0047  1.1140 -0.8256
13629TIP3   OH262377   3.136   1.445   5.621  0.4375 -0.9221  0.3025
13629TIP3    H162378   3.151   1.399   5.703 -0.5209 -0.8934  0.5037
13629TIP3    H262379   3.213   1.424   5.567  2.0170  0.5818  1.8552
13630TIP3   OH262380   1.499   0.262  12.607 -0.3077 -0.4552  0.3897
13630TIP3    H162381   1.429   0.293  12.549  0.8340 -0.1237 -0.8729
13630TIP3    H262382   1.560   0.216  12.548  0.6606 -0.5204  1.4040
13631TIP3   OH262383   2.296   5.983  13.625  0.2783 -0.1705  0.5807
13631TIP3    H162384   2.229   6.030  13.675  1.3582 -1.1708  3.1763
13631TIP3    H262385   2.334   6.049  13.567 -0.5552  1.2833  1.6272
13632TIP3   OH262386   6.156   4.304  13.514 -0.0796 -0.4970  0.8055
13632TIP3    H162387   6.221   4.359  13.470  0.0658 -0.7726  0.6689
13632TIP3    H262388   6.151   4.339  13.603  0.8880 -0.9912  1.0716
13633TIP3   OH262389   5.505   3.076   5.059  0.8739  0.3633 -1.0911
13633TIP3    H162390   5.567   3.064   5.131  2.7965 -0.8396 -2.8441
13633TIP3    H262391   5.497   3.171   5.049  3.5326  0.6177 -1.6286
13634TIP3   OH262392   3.166   5.249  11.930  0.3269 -0.5719 -0.0712
13634TIP3    H162393   3.202   5.319  11.984 -0.4990 -2.3470  2.9932
13634TIP3    H262394   3.243   5.202  11.898  0.8280 -0.0183  0.2931
13635TIP3   OH262395   3.002   2.772   2.108 -0.4463 -0.8282 -0.5069
13635TIP3    H162396   3.051   2.823   2.173  0.0694 -2.3926  0.3799
13635TIP3    H262397   2.932   2.730   2.157 -1.2809 -0.4638 -1.3478
13636TIP3   OH262398   4.676   5.585   2.396 -0.0213 -0.4001  0.1607
13636TIP3    H162399   4.597   5.622   2.356 -0.7421 -1.3360  0.6851
13636TIP3    H262400   4.718   5.659   2.440 -1.1759 -0.0931  0.7730
13637TIP3   OH262401   1.234   2.120   3.443  0.1060 -0.4614 -0.1494
13637TIP3    H162402   1.158   2.063   3.455 -0.3144  0.1850  0.3122
13637TIP3    H262403   1.198   2.200   3.405  0.3796  0.3149  1.1863
13638TIP3   OH262404   3.860   3.466  14.416 -0.0348  0.3460 -0.1116
13638TIP3    H162405   3.905   3.476  14.500  1.1772 -1.7802 -0.4498
13638TIP3    H262406   3.781   3.416  14.438  0.5510 -0.6867 -0.2599
13639TIP3   OH262407   4.055   1.791   3.234 -0.3106 -0.2117 -0.5994
13639TIP3    H162408   4.133   1.801   3.180  0.0936 -1.4953 -0.2918
13639TIP3    H262409   4.053   1.870   3.288  0.6195 -0.0197 -0.8224
13640TIP3   OH262410   4.877   5.318  16.610  0.6867  0.0968  0.6887
13640TIP3    H162411   4.923   5.250  16.659  0.5225  0.9806  2.1457
13640TIP3    H262412   4.806   5.273  16.567 -0.5433 -0.4489  3.0917
13641TIP3   OH262413   0.172   3.025  13.771 -0.0100  0.3423 -0.2950
13641TIP3    H162414   0.079   3.044  13.779 -0.4232 -1.8463  0.8341
13641TIP3    H262415   0.205   3.024  13.861  0.9618  0.3669 -0.6294
13642TIP3   OH262416   4.351   2.863   3.234 -0.1298 -0.8862 -1.1384
13642TIP3    H162417   4.405   2.932   3.273 -1.2805 -0.3771 -0.3960
13642TIP3    H262418   4.375   2.865   3.141  0.3190  0.0839 -1.0199
13643TIP3   OH262419   6.592   3.880  12.005  0.0835  0.8515 -0.2144
13643TIP3    H162420   6.658   3.831  12.055 -0.8862 -1.3776 -0.9981
13643TIP3    H262421   6.564   3.819  11.937 -2.6380  1.8009 -0.0465
13644TIP3   OH262422   1.793   5.317   4.894 -0.6263  1.0868 -0.1734
13644TIP3    H162423   1.856   5.329   4.965  1.1263  1.2357 -1.6823
13644TIP3    H262424   1.788   5.403   4.852 -1.3923  0.9164 -0.4438
13645TIP3   OH262425   2.169   0.526  15.696  0.3262 -0.0950 -0.9153
13645TIP3    H162426   2.173   0.508  15.602 -0.3996 -3.6048 -0.4063
13645TIP3    H262427   2.077   0.549  15.712  0.9379  3.0770 -1.3194
13646TIP3   OH262428   6.757   4.424   4.160  0.2653 -0.2132  0.1882
13646TIP3    H162429   6.844   4.436   4.199  0.6822  1.7178 -1.2093
13646TIP3    H262430   6.702   4.489   4.203  0.4281  1.0565 -1.4278
13647TIP3   OH262431   3.313   0.392  17.051 -0.5642 -0.2535 -0.0663
13647TIP3    H162432   3.279   0.376  17.139 -0.5978  0.7061  0.1061
13647TIP3    H262433   3.235   0.400  16.996 -0.5995  0.6391  0.0950
13648TIP3   OH262434   0.039   1.664  14.704 -0.1601  0.3233 -0.2761
13648TIP3    H162435  -0.026   1.713  14.753  0.7810  1.2286  0.0884
13648TIP3    H262436   0.123   1.693  14.739  0.4572 -0.6637 -0.8886
13649TIP3   OH262437   4.948   0.996   2.968 -0.1858 -0.2148 -0.4002
13649TIP3    H162438   4.917   0.908   2.946 -0.2608 -0.2247 -0.2559
13649TIP3    H262439   4.878   1.034   3.021 -0.2892  0.0446 -0.7143
13650TIP3   OH262440   1.017   0.776  15.970 -0.0709  0.1265  0.9665
13650TIP3    H162441   1.001   0.857  15.921  0.6024  0.1605  0.7953
13650TIP3    H262442   0.940   0.722  15.953  0.0126  0.2639  0.1211
13651TIP3   OH262443   4.704   4.867  14.639  0.1291 -0.0750 -0.3829
13651TIP3    H162444   4.772   4.853  14.705 -1.0501  1.1683  1.1838
13651TIP3    H262445   4.711   4.961  14.618 -0.7762 -0.0431 -0.5658
13652TIP3   OH262446   2.697   6.712   1.575  0.0433 -0.6534  0.3236
13652TIP3    H162447   2.706   6.721   1.670 -0.2290  2.1592  0.1729
13652TIP3    H262448   2.787   6.700   1.544  0.4006  0.5708  0.8126
13653TIP3   OH262449   2.799   3.947  14.309  0.4527 -0.2202 -0.2008
13653TIP3    H162450   2.784   3.895  14.388  0.0069 -0.7650 -0.6389
13653TIP3    H262451   2.883   3.915  14.276  0.6024 -0.0458  0.0090
13654TIP3   OH262452   0.366   4.011  11.531  0.6215  0.1818 -0.0536
13654TIP3    H162453   0.313   4.034  11.607  1.2412  0.0097  0.4355
13654TIP3    H262454   0.320   3.936  11.492  0.5020  0.0378  0.3608
13655TIP3   OH262455   5.568   0.949   3.173  0.1200  0.2814  0.0140
13655TIP3    H162456   5.499   0.967   3.237 -1.1788 -0.8914 -1.0115
13655TIP3    H262457   5.645   0.930   3.227 -0.2636  1.8545  1.1727
13656TIP3   OH262458   2.715   1.620  12.631  0.1151 -0.5684  0.3680
13656TIP3    H162459   2.783   1.582  12.576 -0.6627 -0.2584 -0.8405
13656TIP3    H262460   2.633   1.597  12.588 -0.5448 -0.6919  1.6453
13657TIP3   OH262461   4.898   3.409  16.401  0.1786 -0.3336 -0.2554
13657TIP3    H162462   4.983   3.401  16.358  0.4052 -1.1924  0.3094
13657TIP3    H262463   4.914   3.378  16.491 -0.3010  1.2755  0.4247
13658TIP3   OH262464   2.924   1.157   3.668  0.0707 -0.4763  0.1167
13658TIP3    H162465   2.883   1.194   3.746  0.2335  1.3919 -0.6246
13658TIP3    H262466   2.862   1.177   3.597  0.8216 -0.3546 -0.5244
13659TIP3   OH262467   1.702   4.239  14.397 -0.0376  0.7961  0.3521
13659TIP3    H162468   1.650   4.231  14.317  0.4464  0.0050  0.1080
13659TIP3    H262469   1.776   4.294  14.373  1.3594 -1.3013 -0.4217
13660TIP3   OH262470   0.296   1.900  16.048  0.0144 -0.0615  0.5444
13660TIP3    H162471   0.335   1.876  16.132  1.1432  1.1606  0.3907
13660TIP3    H262472   0.294   1.995  16.048 -0.4911 -0.0563 -0.5863
13661TIP3   OH262473   4.268   1.317  15.908 -0.1497  0.1102  0.1312
13661TIP3    H162474   4.260   1.399  15.859 -0.7616  0.0463  0.1198
13661TIP3    H262475   4.187   1.269  15.888  0.3399 -0.6337 -0.1152
13662TIP3   OH262476   6.194   5.155  16.035 -0.4112 -0.7668 -0.3148
13662TIP3    H162477   6.279   5.188  16.007 -0.5479 -0.1494 -0.0130
13662TIP3    H262478   6.148   5.231  16.070 -0.9172 -1.1808 -0.0530
13663TIP3   OH262479   4.849   1.983   6.303  0.6211 -0.0591  0.5527
13663TIP3    H162480   4.860   1.888   6.310 -1.1709 -0.3065  0.4878
13663TIP3    H262481   4.785   2.004   6.371  1.3331  1.1838  0.8629
13664TIP3   OH262482   2.737   5.955   4.274  0.3144  0.1107 -0.2049
13664TIP3    H162483   2.666   6.013   4.302 -1.1615 -2.0436  0.8773
13664TIP3    H262484   2.707   5.867   4.298  1.7888 -1.3078 -2.9992
13665TIP3   OH262485   3.639   1.658  13.031  0.1574 -0.4340 -0.8139
13665TIP3    H162486   3.599   1.628  13.113 -0.2036  1.6078 -0.1824
13665TIP3    H262487   3.579   1.629  12.963  0.0424 -1.4539 -0.2891
13666TIP3   OH262488   3.562   5.207   1.466 -0.5068 -0.2889 -0.6322
13666TIP3    H162489   3.626   5.136   1.473  2.0046  1.7288 -1.8197
13666TIP3    H262490   3.581   5.264   1.541 -0.1526  0.8616 -1.5688
13667TIP3   OH262491   3.411   1.952  16.057 -0.2349 -0.2413 -0.7221
13667TIP3    H162492   3.488   1.959  16.114 -2.0228  0.1621  1.7565
13667TIP3    H262493   3.421   2.024  15.995  0.5365  0.9025  0.6705
13668TIP3   OH262494   1.258   4.455   1.210  0.0518  0.0022 -0.2240
13668TIP3    H162495   1.267   4.495   1.124  1.7967 -0.8941 -0.4939
13668TIP3    H262496   1.173   4.410   1.206 -0.1772  0.4944 -1.2404
13669TIP3   OH262497   1.892   0.358   6.059  0.2253  0.3528  0.1894
13669TIP3    H162498   1.818   0.297   6.056  0.7186 -0.5703  3.2621
13669TIP3    H262499   1.852   0.443   6.081 -0.1190  0.3578 -0.4337
13670TIP3   OH262500   3.977   2.188   1.190 -0.1053  0.4758  0.4661
13670TIP3    H162501   3.968   2.198   1.095 -1.8304  0.5928  0.6019
13670TIP3    H262502   3.988   2.094   1.203  1.1644  0.5566  0.1092
13671TIP3   OH262503   6.204   2.143  17.074 -0.2876 -0.2020  0.1784
13671TIP3    H162504   6.194   2.151  17.169  2.7688 -2.9079  0.9115
13671TIP3    H262505   6.169   2.057  17.052  3.4227 -1.8572 -0.0966
13672TIP3   OH262506   1.960   3.985  13.596  0.6098  0.7885 -0.1474
13672TIP3    H162507   2.010   4.063  13.568 -1.1367  0.6750 -4.4080
13672TIP3    H262508   1.869   4.007  13.576 -0.6316 -0.6571  3.2311
13673TIP3   OH262509   1.040   4.477   1.754 -0.0348  0.4511  0.8272
13673TIP3    H162510   1.128   4.514   1.758  0.5627 -0.8177  0.1019
13673TIP3    H262511   0.989   4.532   1.813  0.9241  2.0212  0.2629
13674TIP3   OH262512   6.793   3.770  15.718 -0.1523 -0.1087 -0.1061
13674TIP3    H162513   6.786   3.675  15.707 -2.7202 -0.6037  3.7832
13674TIP3    H262514   6.860   3.782  15.785 -0.2475  0.7730 -0.1498
13675TIP3   OH262515   4.152   1.885   1.531 -0.3512 -0.2637  0.1174
13675TIP3    H162516   4.184   1.966   1.572 -2.0511  0.0428  0.9269
13675TIP3    H262517   4.230   1.831   1.521  0.6566  1.0470  0.5714
13676TIP3   OH262518   3.182   4.104  13.875  0.5563  0.0358 -0.1003
13676TIP3    H162519   3.094   4.068  13.880  0.8027 -0.4619  1.8935
13676TIP3    H262520   3.175   4.178  13.815 -0.2958 -2.3268 -3.1531
13677TIP3   OH262521   2.314   4.349  14.273 -0.3711  0.0275 -0.1468
13677TIP3    H162522   2.359   4.379  14.195  1.0975 -1.0006  0.2566
13677TIP3    H262523   2.315   4.253  14.266  1.2152 -0.1797  1.8249
13678TIP3   OH262524   3.864   5.671  17.137  0.1067 -0.4140 -0.2752
13678TIP3    H162525   3.817   5.591  17.160  1.0315 -1.1669 -0.9379
13678TIP3    H262526   3.910   5.695  17.218  1.4016 -1.6869 -0.5822
13679TIP3   OH262527   3.085   3.849  11.681 -0.2968 -0.3577 -0.9541
13679TIP3    H162528   3.152   3.806  11.733 -2.4225 -2.1187  0.5426
13679TIP3    H262529   3.119   3.848  11.591  1.9128 -0.5468 -0.1625
13680TIP3   OH262530   1.666   0.669  14.249 -0.1434  0.4154 -0.2955
13680TIP3    H162531   1.685   0.582  14.284  0.7158 -0.1529 -2.0476
13680TIP3    H262532   1.590   0.656  14.192 -2.8127  1.7020  2.6705
13681TIP3   OH262533   4.436   5.831   4.934 -0.1677 -0.0395 -0.2672
13681TIP3    H162534   4.352   5.809   4.974  0.2966 -0.6595  0.3776
13681TIP3    H262535   4.444   5.772   4.859 -1.1703  1.3179 -1.4955
13682TIP3   OH262536   4.695   5.744  11.585  0.3875 -0.2879 -0.0929
13682TIP3    H162537   4.709   5.674  11.521  0.7202 -0.4280  0.1300
13682TIP3    H262538   4.759   5.811  11.562  1.0169 -0.6642  0.5550
13683TIP3   OH262539   2.521   5.727  13.853  0.3220 -0.1949  0.3823
13683TIP3    H162540   2.590   5.713  13.917  1.2085  0.5984 -0.3728
13683TIP3    H262541   2.567   5.749  13.772 -0.7952 -0.2951 -0.3020
13684TIP3   OH262542   4.127   4.090   2.907  0.0754  0.1433  0.4218
13684TIP3    H162543   4.158   4.036   2.834  2.7649  1.1782  0.6869
13684TIP3    H262544   4.048   4.133   2.873  1.2337  0.5968 -1.9213
13685TIP3   OH262545   3.759   1.278  12.138 -0.0819 -0.3697 -0.2163
13685TIP3    H162546   3.693   1.327  12.188 -0.6775 -3.1922  1.9894
13685TIP3    H262547   3.843   1.314  12.168 -0.4979  1.0646 -0.6751
13686TIP3   OH262548   5.109   1.034  12.257 -0.4427 -0.3612 -0.3817
13686TIP3    H162549   5.199   1.032  12.291 -1.0342  2.3478  1.6469
13686TIP3    H262550   5.115   1.090  12.179 -0.3228 -0.3147 -0.3400
13687TIP3   OH262551   5.021   0.755  15.669 -0.3327 -0.0164  0.0425
13687TIP3    H162552   4.989   0.807  15.595 -2.3804  0.3639  1.1172
13687TIP3    H262553   5.021   0.665  15.637  1.9761  0.4082 -1.4138
13688TIP3   OH262554   0.015   0.137  13.865  0.5084 -0.5030 -0.8672
13688TIP3    H162555  -0.048   0.208  13.856 -0.7252 -1.5157 -0.5269
13688TIP3    H262556   0.001   0.103  13.953  1.5344 -0.7561 -0.7876
13689TIP3   OH262557   0.974   0.121   3.316 -0.2004  0.1773 -0.5150
13689TIP3    H162558   1.010   0.209   3.310 -0.5645  0.3678  0.0626
13689TIP3    H262559   0.932   0.106   3.232  0.6697  0.1908 -0.9701
13690TIP3   OH262560   6.072   2.949  12.189  0.6211 -0.1511  0.1371
13690TIP3    H162561   6.065   3.008  12.264  0.3515  1.1645 -0.8805
13690TIP3    H262562   6.162   2.958  12.159  0.4941  0.0136 -0.2127
13691TIP3   OH262563   2.449   4.206  13.894  0.0253  0.0873  0.1127
13691TIP3    H162564   2.514   4.222  13.826 -0.2755 -1.5649 -0.6074
13691TIP3    H262565   2.499   4.212  13.976  0.7978  0.2138 -0.3524
13692TIP3   OH262566   1.398   2.728  15.185  0.1049  0.5276 -0.5826
13692TIP3    H162567   1.452   2.648  15.188  1.8624  1.6846  0.3613
13692TIP3    H262568   1.415   2.771  15.269 -0.8931  1.8607 -1.0353
13693TIP3   OH262569   2.726   3.338   0.182  0.0140 -0.2291 -0.1246
13693TIP3    H162570   2.652   3.279   0.171  0.6253 -0.9476 -0.4635
13693TIP3    H262571   2.803   3.281   0.185  0.4351  0.3776  1.7848
13694TIP3   OH262572   0.729   6.242   2.494  0.4164 -0.2236  0.6151
13694TIP3    H162573   0.723   6.184   2.570  1.5378 -0.5596  0.4738
13694TIP3    H262574   0.662   6.211   2.434  0.6935 -1.0793  0.7393
13695TIP3   OH262575   5.077   6.145  11.330  0.1381 -0.0922 -0.2197
13695TIP3    H162576   5.104   6.156  11.239  1.2250 -0.9353 -0.0160
13695TIP3    H262577   5.051   6.233  11.358 -0.6553  0.1005 -1.4644
13696TIP3   OH262578   1.053   2.959   1.651  0.4324  0.2871  0.3062
13696TIP3    H162579   1.116   2.891   1.628  1.2048  0.7155  1.0641
13696TIP3    H262580   1.041   2.949   1.745 -1.3843 -0.3919  0.0317
13697TIP3   OH262581   5.689   5.845   1.650 -0.2373  0.1867  0.1743
13697TIP3    H162582   5.769   5.897   1.657 -0.2474  0.3259 -0.6592
13697TIP3    H262583   5.672   5.839   1.556 -2.3197  1.8885  0.3597
13698TIP3   OH262584   2.097   5.439  15.420  0.3621 -0.3545  0.2066
13698TIP3    H162585   2.052   5.354  15.424  0.3344 -0.3954 -0.6753
13698TIP3    H262586   2.147   5.444  15.501  0.5054 -1.2985  0.1916
13699TIP3   OH262587   1.749   4.101  16.457 -0.5856  0.0569  0.1484
13699TIP3    H162588   1.670   4.112  16.510 -0.5020 -1.6393  0.6772
13699TIP3    H262589   1.800   4.035  16.503  0.4426  0.0157 -0.9993
13700TIP3   OH262590   5.614   2.743  11.725 -0.6143  0.8981 -0.5677
13700TIP3    H162591   5.580   2.708  11.643  0.6962  1.3552 -1.3301
13700TIP3    H262592   5.630   2.835  11.707 -0.6516  1.0914  0.3258
13701TIP3   OH262593   6.124   3.542   3.744 -0.0277 -0.1930  0.1492
13701TIP3    H162594   6.054   3.505   3.797  0.1295 -0.7179 -0.0042
13701TIP3    H262595   6.192   3.565   3.807 -0.5657  0.8519  0.3593
13702TIP3   OH262596   0.213   5.798  12.457 -0.5152 -0.2689  0.2226
13702TIP3    H162597   0.306   5.781  12.465 -0.0648  1.5146 -0.6836
13702TIP3    H262598   0.188   5.836  12.541 -0.5400 -1.1470  0.6215
13703TIP3   OH262599   0.410   4.157  12.605 -0.2401  0.1264 -0.5369
13703TIP3    H162600   0.414   4.101  12.682  1.9181  1.7863  0.6662
13703TIP3    H262601   0.338   4.218  12.624 -0.5636 -0.2691 -0.4675
13704TIP3   OH262602   3.157   3.832   2.598  0.3784 -0.4456  0.5167
13704TIP3    H162603   3.067   3.815   2.572  0.3098  1.2998 -0.5401
13704TIP3    H262604   3.211   3.794   2.528  0.3419  0.7013 -0.1591
13705TIP3   OH262605   0.625   6.727   5.031 -0.2341  0.5066 -0.2036
13705TIP3    H162606   0.655   6.642   5.062 -1.3778  0.2902  0.3618
13705TIP3    H262607   0.622   6.781   5.109 -1.4674  0.4652 -0.2038
13706TIP3   OH262608   1.608   5.689  15.017 -0.2344  0.1805  0.4346
13706TIP3    H162609   1.659   5.675  15.097 -0.5174 -0.9510  0.4238
13706TIP3    H262610   1.664   5.655  14.947 -0.1217  0.8772  0.1754
13707TIP3   OH262611   1.956   5.384  16.089  0.1341  0.0288  0.7811
13707TIP3    H162612   1.990   5.297  16.111  0.6912  0.4542  1.6779
13707TIP3    H262613   1.894   5.404  16.159 -0.7661 -0.0661  0.0200
13708TIP3   OH262614   1.881   4.758   3.580  0.1870 -0.2328  0.6333
13708TIP3    H162615   1.970   4.736   3.554  0.0831  0.9634 -0.8779
13708TIP3    H262616   1.888   4.784   3.672  1.7934  1.7633  0.0338
13709TIP3   OH262617   0.348   6.200   4.174  0.3176 -0.0999  0.1694
13709TIP3    H162618   0.385   6.209   4.261  1.0437 -1.8510  0.0820
13709TIP3    H262619   0.341   6.290   4.141 -1.2979  0.7387  2.5217
13710TIP3   OH262620   5.205   4.378   0.145  0.7667 -0.1204  0.1335
13710TIP3    H162621   5.192   4.399   0.053  0.1683  1.6604  0.5867
13710TIP3    H262622   5.276   4.314   0.145  2.3885  1.5591 -1.4528
13711TIP3   OH262623   6.631   1.211   2.891  0.2455 -0.4141  0.7226
13711TIP3    H162624   6.673   1.126   2.875  1.4050 -0.0102  1.4807
13711TIP3    H262625   6.552   1.190   2.940  1.2388 -0.9811  2.1636
13712TIP3   OH262626   2.322   5.217  10.770 -0.0039  0.3276  0.0469
13712TIP3    H162627   2.294   5.240  10.682  0.2909  0.9661  0.1151
13712TIP3    H262628   2.246   5.235  10.825  0.5622  2.2910  0.2690
13713TIP3   OH262629   2.251   2.436   4.170 -0.1289 -0.6984 -0.1297
13713TIP3    H162630   2.185   2.505   4.159  0.7886 -0.0642 -2.0432
13713TIP3    H262631   2.208   2.356   4.140 -0.4029 -0.5147 -0.2326
13714TIP3   OH262632   5.946   3.207  14.669  0.1364 -0.3925 -0.6403
13714TIP3    H162633   5.962   3.234  14.579  0.6687 -1.9383 -1.0349
13714TIP3    H262634   5.867   3.256  14.695  0.5451  0.8128 -1.5822
13715TIP3   OH262635   2.829   3.386  13.892  0.8211 -0.6035 -0.9701
13715TIP3    H162636   2.761   3.425  13.838 -0.0047 -0.5260  0.0880
13715TIP3    H262637   2.792   3.303  13.922  1.4146 -0.8325 -0.8475
13716TIP3   OH262638   2.341   6.823   4.789  0.0075 -0.1486  0.4553
13716TIP3    H162639   2.333   6.910   4.830  1.2976  0.8573 -1.2677
13716TIP3    H262640   2.409   6.779   4.839  2.6777  1.6457 -1.3447
13717TIP3   OH262641   5.187   6.550  12.240  1.1278 -0.3159 -0.7180
13717TIP3    H162642   5.099   6.574  12.270  2.1218  1.8942  0.7176
13717TIP3    H262643   5.189   6.455  12.244 -0.8387 -0.3561  0.3139
13718TIP3   OH262644   3.379   1.200  16.549  0.0035 -0.2149  0.3051
13718TIP3    H162645   3.424   1.119  16.575  1.7128  0.5958  0.0520
13718TIP3    H262646   3.289   1.187  16.577  0.7097 -1.2796  2.3452
13719TIP3   OH262647   2.209   3.399   2.250  0.1412 -0.0693  0.1449
13719TIP3    H162648   2.118   3.424   2.235  0.4828  0.0501 -2.0548
13719TIP3    H262649   2.248   3.476   2.293 -0.1364  1.0517 -1.5310
13720TIP3   OH262650   5.665   2.159   0.767  0.7559  0.0162 -0.7423
13720TIP3    H162651   5.690   2.069   0.784  0.1978  0.1279  0.8966
13720TIP3    H262652   5.707   2.209   0.837 -1.2873  0.6164  0.1487
13721TIP3   OH262653   4.860   1.451  16.878  0.1501 -0.4129 -0.4722
13721TIP3    H162654   4.840   1.393  16.951 -0.2634 -1.8998 -1.6960
13721TIP3    H262655   4.904   1.394  16.814 -0.2242  0.6305 -1.7130
13722TIP3   OH262656   4.286   0.964   2.446 -0.4596  0.6249  0.0073
13722TIP3    H162657   4.301   0.971   2.540 -0.8466 -1.4914  0.2742
13722TIP3    H262658   4.370   0.934   2.411 -0.7852 -0.1859 -0.0858
13723TIP3   OH262659   0.004   5.937   6.624 -0.2252  0.3439 -0.0146
13723TIP3    H162660   0.038   5.990   6.552 -1.3397 -0.2374 -1.0146
13723TIP3    H262661  -0.006   5.998   6.696  0.7630  0.9768 -0.3954
13724TIP3   OH262662   1.537   6.268  13.070 -0.5003  0.1486 -0.1216
13724TIP3    H162663   1.525   6.174  13.057  0.0899 -0.0343  0.6051
13724TIP3    H262664   1.496   6.286  13.155 -0.0053  0.4160  0.0631
13725TIP3   OH262665   2.294   2.017  12.569  0.0468 -0.4942 -0.0702
13725TIP3    H162666   2.360   2.043  12.505 -0.3079  1.7646  0.3771
13725TIP3    H262667   2.317   2.066  12.648 -1.8818  0.0301  0.2211
13726TIP3   OH262668   2.405   1.950   2.809  0.8778 -0.2694 -0.2766
13726TIP3    H162669   2.430   1.900   2.887  0.8545 -0.5843 -0.4674
13726TIP3    H262670   2.465   2.024   2.807 -1.8314  2.2611  2.4780
13727TIP3   OH262671   1.104   5.466   1.426  0.2727 -0.0202 -0.9621
13727TIP3    H162672   1.052   5.387   1.409  1.3806 -0.7091 -1.2042
13727TIP3    H262673   1.150   5.483   1.344 -1.0389  1.7481 -1.4060
13728TIP3   OH262674   5.816   3.809  15.068  0.5416  0.2380 -0.2175
13728TIP3    H162675   5.728   3.774  15.053  1.6562 -2.4839 -1.0896
13728TIP3    H262676   5.815   3.842  15.158 -0.8954 -1.3676  0.3986
13729TIP3   OH262677   5.638   2.829  11.101 -0.3351  0.6071  0.2057
13729TIP3    H162678   5.635   2.856  11.192 -0.3256 -0.5506  0.5661
13729TIP3    H262679   5.558   2.866  11.062 -1.0582 -0.0567  1.0280
13730TIP3   OH262680   5.775   3.462   4.314  0.0570  0.3790  0.3003
13730TIP3    H162681   5.712   3.400   4.350  0.4001 -1.1354 -1.5371
13730TIP3    H262682   5.750   3.470   4.222  1.0094  1.7521  0.1351
13731TIP3   OH262683   1.478   4.989   1.632 -0.6454 -0.6126 -0.1664
13731TIP3    H162684   1.476   5.082   1.611 -1.8391 -0.7868 -0.9686
13731TIP3    H262685   1.515   4.984   1.720  0.1112  0.5496 -0.4035
13732TIP3   OH262686   4.353   6.726  15.127  1.0014 -0.0219 -0.0187
13732TIP3    H162687   4.441   6.754  15.101  1.6989 -0.9824  1.2126
13732TIP3    H262688   4.298   6.750  15.052  2.4812 -0.3961 -1.2918
13733TIP3   OH262689   4.172   4.163   4.571 -0.3293 -0.3245 -0.6776
13733TIP3    H162690   4.162   4.169   4.476  1.7536  1.2281 -0.8821
13733TIP3    H262691   4.217   4.080   4.585  2.8830  1.1003 -1.5416
13734TIP3   OH262692   0.202   6.088   1.660 -0.5521  0.0320 -0.1824
13734TIP3    H162693   0.188   6.036   1.581 -1.2089 -0.7375  0.4244
13734TIP3    H262694   0.148   6.165   1.648  0.9794  0.9891 -1.4190
13735TIP3   OH262695   0.266   2.324   0.889  0.2648 -0.2081  0.1812
13735TIP3    H162696   0.180   2.299   0.921  1.2203 -2.0440  1.4823
13735TIP3    H262697   0.302   2.381   0.957  0.8455 -1.1129  0.6600
13736TIP3   OH262698   6.658   4.691  12.520  0.1231 -0.0879 -0.4418
13736TIP3    H162699   6.645   4.776  12.560  0.3172  0.1573 -0.8859
13736TIP3    H262700   6.751   4.690  12.495  0.2028 -0.5577 -0.1499
13737TIP3   OH262701   0.401   0.305   4.941  0.1761 -0.1254  0.2953
13737TIP3    H162702   0.320   0.353   4.955  0.7952  0.8563  0.6628
13737TIP3    H262703   0.431   0.281   5.028 -0.0239 -1.0121  0.1240
13738TIP3   OH262704   0.187   3.407  13.754 -0.1391 -0.1623  0.2842
13738TIP3    H162705   0.190   3.351  13.676 -0.5997 -0.3089  0.3674
13738TIP3    H262706   0.159   3.492  13.721  0.7029  0.0615  0.1353
13739TIP3   OH262707   4.797   1.420   6.007 -0.3554  0.4959  0.5180
13739TIP3    H162708   4.795   1.463   6.092 -0.3654  1.2808  0.1341
13739TIP3    H262709   4.801   1.492   5.944  0.4609 -0.0785 -0.1183
13740TIP3   OH262710   5.439   6.242  17.123  0.1387 -0.3117  0.4923
13740TIP3    H162711   5.474   6.240  17.212  0.9832 -0.0569  0.1764
13740TIP3    H262712   5.510   6.209  17.069 -0.2271 -0.0872 -0.1361
13741TIP3   OH262713   4.832   2.383   1.330 -0.5342  0.8294 -0.4718
13741TIP3    H162714   4.868   2.356   1.414 -0.1827  2.3156 -0.1090
13741TIP3    H262715   4.906   2.420   1.282 -0.7173 -0.0579 -1.4748
13742TIP3   OH262716   0.882   1.141   3.116 -0.1716  0.7682 -0.1733
13742TIP3    H162717   0.951   1.140   3.049  0.8381  3.5295  0.6851
13742TIP3    H262718   0.809   1.186   3.074 -0.6787 -0.1763 -0.3428
13743TIP3   OH262719   0.925   5.110  13.647  0.3488 -0.0361 -0.7949
13743TIP3    H162720   0.969   5.026  13.642  1.9040  0.7312 -0.7515
13743TIP3    H262721   0.994   5.172  13.671 -0.7529  1.2488 -0.7868
13744TIP3   OH262722   3.146   5.729   5.397 -0.3354 -0.0124 -0.2455
13744TIP3    H162723   3.130   5.803   5.339 -1.1862  0.0555  0.0485
13744TIP3    H262724   3.100   5.752   5.478 -0.7308 -0.9171 -0.1983
13745TIP3   OH262725   5.356   5.622  12.912 -0.0782 -0.2682  0.3766
13745TIP3    H162726   5.319   5.598  12.827 -1.3073 -0.6712  0.9999
13745TIP3    H262727   5.440   5.576  12.916 -0.0460 -0.3146 -0.5727
13746TIP3   OH262728   6.254   4.080  14.710  0.2870 -0.2334 -0.0659
13746TIP3    H162729   6.243   4.045  14.799 -2.5745  1.7902  0.5340
13746TIP3    H262730   6.204   4.019  14.655  1.3519 -1.0124 -0.2051
13747TIP3   OH262731   6.074   1.584  14.045 -0.3297 -0.3999  0.1747
13747TIP3    H162732   6.163   1.600  14.013 -0.2971 -1.0673 -0.0824
13747TIP3    H262733   6.077   1.611  14.137 -0.8090  2.8567 -0.6493
13748TIP3   OH262734   0.950   3.363  11.699  1.3162  0.0605 -0.5176
13748TIP3    H162735   0.955   3.365  11.603 -0.2702  2.1679 -0.6336
13748TIP3    H262736   0.955   3.455  11.725 -0.9750 -0.2163  1.2007
13749TIP3   OH262737   2.656   3.974  15.221  0.8689 -0.8205  0.4875
13749TIP3    H162738   2.634   3.960  15.313 -1.3253 -0.7917  0.0116
13749TIP3    H262739   2.599   3.915  15.173 -0.1705  1.2406 -0.9726
13750TIP3   OH262740   5.799   2.892  13.282 -0.3663 -0.1131 -0.3157
13750TIP3    H162741   5.820   2.947  13.357 -1.1593  0.3309 -0.4049
13750TIP3    H262742   5.714   2.853  13.305 -0.0608 -0.9067 -0.4750
13751TIP3   OH262743   4.784   1.492   1.158  0.3232 -0.4527  0.5877
13751TIP3    H162744   4.789   1.457   1.247 -0.9852  0.7036  1.1444
13751TIP3    H262745   4.724   1.565   1.164 -0.4503 -0.8527 -1.4329
13752TIP3   OH262746   5.930   3.156   5.149  0.4249 -0.8104 -0.0616
13752TIP3    H162747   5.907   3.128   5.238 -0.6886 -0.4713 -0.2285
13752TIP3    H262748   6.024   3.172   5.153  0.0549  1.3159  1.6443
13753TIP3   OH262749   6.332   3.892  12.397 -0.2746  0.5898 -0.0559
13753TIP3    H162750   6.290   3.817  12.356 -0.4155  0.4491  0.3370
13753TIP3    H262751   6.287   3.901  12.482  0.4035  0.5114  0.3192
13754TIP3   OH262752   2.748   2.734   1.433  0.3179 -0.1322 -0.2618
13754TIP3    H162753   2.701   2.719   1.351  2.9361  1.0682 -2.1382
13754TIP3    H262754   2.800   2.654   1.445  0.0615 -0.2391  0.1357
13755TIP3   OH262755   6.608   0.628  12.230 -0.6785  0.8941  0.5023
13755TIP3    H162756   6.547   0.690  12.270  0.3188  1.1916  1.6345
13755TIP3    H262757   6.681   0.683  12.201  0.0523  0.3122  1.1959
13756TIP3   OH262758   3.466   1.856  15.084  0.1727 -0.4567  0.6669
13756TIP3    H162759   3.429   1.794  15.146  1.3764 -2.5164 -0.5587
13756TIP3    H262760   3.495   1.930  15.138 -0.4450 -1.3637  2.2982
13757TIP3   OH262761   5.533   5.001  12.184 -0.1291  0.6276 -0.1797
13757TIP3    H162762   5.445   5.010  12.148 -0.2025 -0.9974 -0.4811
13757TIP3    H262763   5.590   5.043  12.119 -0.4485 -0.6246 -1.3351
13758TIP3   OH262764   4.915   2.189   2.933 -0.3655  0.0794  0.2510
13758TIP3    H162765   4.988   2.153   2.984  0.0202  0.5346  0.0209
13758TIP3    H262766   4.876   2.254   2.991 -1.1221 -0.7492  0.7043
13759TIP3   OH262767   1.067   5.392   2.701 -0.3054  0.3570  0.2983
13759TIP3    H162768   1.100   5.338   2.772 -0.4276 -1.6160 -1.0865
13759TIP3    H262769   0.974   5.403   2.721 -0.6312 -1.3085 -0.2149
13760TIP3   OH262770   0.207   2.535  12.887  0.4001  0.0849  0.4189
13760TIP3    H162771   0.229   2.460  12.831  1.1483  0.1597  0.6072
13760TIP3    H262772   0.121   2.514  12.922 -0.1867  0.1265 -0.9213
13761TIP3   OH262773   1.218   2.366   2.805 -0.4355 -0.2868  0.2836
13761TIP3    H162774   1.253   2.277   2.800 -3.3524 -1.6567  1.9939
13761TIP3    H262775   1.169   2.376   2.723  1.2106  0.4931 -0.6847
13762TIP3   OH262776   2.313   6.708  15.481 -0.7867  0.0587  0.0995
13762TIP3    H162777   2.248   6.702  15.551 -0.0140  1.7107  1.0274
13762TIP3    H262778   2.396   6.684  15.523 -0.3394  0.9091 -0.2584
13763TIP3   OH262779   2.455   5.415  14.767  0.1989  0.9678 -0.3192
13763TIP3    H162780   2.403   5.341  14.798  0.5999  0.5493 -0.6184
13763TIP3    H262781   2.455   5.477  14.839 -0.6928  0.9655 -0.3054
13764TIP3   OH262782   4.927   2.976  14.097  0.0901  0.1710 -0.3429
13764TIP3    H162783   4.930   2.884  14.123 -1.2162  0.0631 -0.4920
13764TIP3    H262784   5.017   3.007  14.106  0.4609 -1.0005  0.1375
13765TIP3   OH262785   3.613   3.147   0.670 -0.0140 -0.4245 -0.8592
13765TIP3    H162786   3.662   3.189   0.741  0.6109 -0.6657 -1.1368
13765TIP3    H262787   3.544   3.209   0.647 -1.6890 -1.2606  1.4928
13766TIP3   OH262788   2.522   6.255   1.581  0.0397  0.8932  0.5898
13766TIP3    H162789   2.558   6.221   1.499  0.3886 -1.4146  1.6349
13766TIP3    H262790   2.433   6.220   1.584  0.1746  0.6047  1.3896
13767TIP3   OH262791   0.541   0.112   3.252  0.3260  0.6714  0.4925
13767TIP3    H162792   0.498   0.141   3.332  0.4739 -0.7569  1.1059
13767TIP3    H262793   0.576   0.193   3.213 -0.5072  1.4832  1.4003
13768TIP3   OH262794   2.666   2.445   0.959 -0.2931  0.7155  0.2934
13768TIP3    H162795   2.726   2.379   0.927 -2.6635 -0.7560 -1.4260
13768TIP3    H262796   2.722   2.512   0.998  2.2848 -1.4741  0.5930
13769TIP3   OH262797   5.313   6.320  16.617  0.6526  0.5062  0.0305
13769TIP3    H162798   5.366   6.254  16.573 -0.5776  0.9866 -2.3295
13769TIP3    H262799   5.251   6.270  16.670  1.5068 -0.1095  0.4838
13770TIP3   OH262800   5.756   1.511  12.151  0.5604 -0.6667 -0.0590
13770TIP3    H162801   5.825   1.495  12.215  1.0982  0.9413 -0.1826
13770TIP3    H262802   5.681   1.540  12.203  0.2782 -1.4545 -0.0076
13771TIP3   OH262803   1.601   1.447   2.634  0.3845  0.3387  0.2613
13771TIP3    H162804   1.512   1.416   2.651  0.6521 -0.4508  0.2740
13771TIP3    H262805   1.655   1.368   2.642  1.0411  0.7521 -0.0710
13772TIP3   OH262806   5.718   2.068  14.509  0.3478 -0.0708  0.3742
13772TIP3    H162807   5.646   2.081  14.571 -0.4553 -0.2671 -0.5098
13772TIP3    H262808   5.712   2.141  14.448  0.4615 -0.4658 -0.1193
13773TIP3   OH262809   2.412   6.459  12.644  0.3414 -0.1386 -0.1151
13773TIP3    H162810   2.504   6.458  12.671  0.8627  1.6403 -1.5965
13773TIP3    H262811   2.386   6.551  12.650 -1.6590 -0.7117  1.1143
13774TIP3   OH262812   5.425   2.824   5.210 -0.1965  0.6066 -0.8041
13774TIP3    H162813   5.500   2.882   5.216  1.7813 -1.6179 -2.1378
13774TIP3    H262814   5.461   2.741   5.179 -2.7332 -1.5424  1.4400
13775TIP3   OH262815   4.945   1.963  16.343 -0.8408 -0.1073 -0.0592
13775TIP3    H162816   4.966   1.881  16.298  1.1116  0.6112 -0.5490
13775TIP3    H262817   4.952   1.941  16.436  0.5339 -0.3385 -0.1889
13776TIP3   OH262818   3.777   0.913   2.238 -0.2357 -0.2505  0.7104
13776TIP3    H162819   3.839   0.976   2.200 -0.7972  0.0284  0.2422
13776TIP3    H262820   3.831   0.856   2.292  0.7678 -1.3852 -1.3879
13777TIP3   OH262821   4.412   1.447   1.233 -0.4503  0.6032 -0.2371
13777TIP3    H162822   4.433   1.496   1.154  0.0994  1.8954  0.6594
13777TIP3    H262823   4.386   1.515   1.297  0.3977 -0.2599  1.0721
13778TIP3   OH262824   2.710   1.527  10.913 -0.4965  0.1281  0.0484
13778TIP3    H162825   2.783   1.557  10.967  0.9626 -1.8803 -0.7150
13778TIP3    H262826   2.728   1.562  10.826 -0.8436  0.2144  0.0096
13779TIP3   OH262827   6.299   0.699  12.944  1.0714  0.0351 -0.1474
13779TIP3    H162828   6.357   0.623  12.936 -0.9400 -1.4088 -1.9129
13779TIP3    H262829   6.231   0.671  13.005  0.9912  0.9413  0.2061
13780TIP3   OH262830   3.878   4.346  15.905 -0.0231  0.2663 -0.0891
13780TIP3    H162831   3.902   4.259  15.935  0.9410  0.7116  0.5071
13780TIP3    H262832   3.854   4.335  15.813 -1.8747 -0.9352  0.4897
13781TIP3   OH262833   5.288   3.550   5.156  0.0579 -0.1054 -0.6184
13781TIP3    H162834   5.303   3.598   5.238  1.1011 -1.0895 -0.2028
13781TIP3    H262835   5.253   3.616   5.096  0.4691  0.9344  0.2357
13782TIP3   OH262836   0.901   2.351   4.495 -0.7094 -0.6682 -0.0698
13782TIP3    H162837   0.932   2.383   4.579 -0.0248  1.4399 -1.0664
13782TIP3    H262838   0.829   2.291   4.517 -2.1608  1.6467  1.9245
13783TIP3   OH262839   2.488   2.394   3.031  0.2595 -0.0809 -0.0245
13783TIP3    H162840   2.539   2.407   3.111  2.8291  0.6379 -1.6592
13783TIP3    H262841   2.425   2.326   3.054 -1.3975  2.3357  3.5278
13784TIP3   OH262842   1.706   4.380  12.028  0.3522  0.6419 -0.4359
13784TIP3    H162843   1.742   4.315  11.968 -2.2522 -0.7948 -0.6271
13784TIP3    H262844   1.755   4.368  12.109 -0.0421 -1.6711 -0.4558
13785TIP3   OH262845   3.055   4.589   3.572  0.1767 -0.3039 -0.8323
13785TIP3    H162846   3.000   4.600   3.650  1.0322 -1.6897  0.0015
13785TIP3    H262847   3.032   4.503   3.538 -0.0705  0.2264 -2.0406
13786TIP3   OH262848   4.630   4.421  15.770 -0.1811 -0.1688 -0.1319
13786TIP3    H162849   4.673   4.429  15.855 -0.6584 -0.1826  0.1181
13786TIP3    H262850   4.668   4.491  15.718  0.8328 -0.7689 -0.2307
13787TIP3   OH262851   3.955   5.446  12.947  0.5798  0.1695 -0.3410
13787TIP3    H162852   3.977   5.387  13.019 -3.5319  0.7914  1.7323
13787TIP3    H262853   3.955   5.533  12.986 -0.5637  0.6583 -1.3520
13788TIP3   OH262854   2.396   3.900  16.932 -0.4742 -0.0721 -0.3341
13788TIP3    H162855   2.375   3.992  16.917 -2.6322 -0.4243  0.1680
13788TIP3    H262856   2.312   3.860  16.953  0.6053 -1.9240  0.6814
13789TIP3   OH262857   1.630   3.246  12.331 -0.8093 -0.4959  0.3121
13789TIP3    H162858   1.720   3.233  12.359  0.2941 -0.8677 -2.9162
13789TIP3    H262859   1.596   3.157  12.318 -0.2332 -0.4434 -2.1280
13790TIP3   OH262860   5.281   0.480  15.585  0.3318  0.2014  0.3637
13790TIP3    H162861   5.302   0.539  15.513 -0.7805  0.3571  0.1554
13790TIP3    H262862   5.366   0.446  15.613  1.1792  2.8532  1.3310
13791TIP3   OH262863   6.373   2.949  13.514  0.4004  0.1464  0.0251
13791TIP3    H162864   6.394   3.021  13.573  0.0864 -0.1127  0.4613
13791TIP3    H262865   6.316   2.988  13.447  0.1001  0.2659  0.3504
13792TIP3   OH262866   6.815   2.232  10.769 -0.2233 -0.9016  0.1477
13792TIP3    H162867   6.727   2.208  10.799  0.3317 -2.4126  0.6810
13792TIP3    H262868   6.834   2.169  10.700  1.3029 -2.1128  1.5941
13793TIP3   OH262869   3.309   4.242   1.645 -0.2057  0.0561  0.2573
13793TIP3    H162870   3.265   4.320   1.611  0.3357  0.7776  1.1642
13793TIP3    H262871   3.302   4.251   1.740 -3.0714 -2.6683  0.4734
13794TIP3   OH262872   0.371   0.234  13.620 -0.1825  0.2066  0.3468
13794TIP3    H162873   0.448   0.222  13.566  0.7608  1.3238  1.3877
13794TIP3    H262874   0.327   0.149  13.619  0.4009 -0.1075 -1.2229
13795TIP3   OH262875   3.780   1.224   4.101  0.8935  0.3796 -0.2828
13795TIP3    H162876   3.860   1.185   4.136  1.5727  0.1811 -1.9791
13795TIP3    H262877   3.769   1.185   4.014 -1.0437  0.4231 -0.1125
13796TIP3   OH262878   1.149   3.313  12.388 -0.1545  0.4329  0.2669
13796TIP3    H162879   1.132   3.332  12.296 -0.4421  0.1234  0.2565
13796TIP3    H262880   1.237   3.348  12.404 -0.4606  1.3071  0.1120
13797TIP3   OH262881   0.680   3.554  17.012  0.1043 -0.7024  0.0122
13797TIP3    H162882   0.701   3.645  17.035 -0.4456 -0.6576  0.3508
13797TIP3    H262883   0.759   3.505  17.034 -0.5052 -0.7254  2.3983
13798TIP3   OH262884   1.772   6.394  11.025  0.0090  0.0328  0.5429
13798TIP3    H162885   1.707   6.346  10.974  1.2766  1.2868 -2.4742
13798TIP3    H262886   1.728   6.475  11.049  0.1374  0.5337 -0.8092
13799TIP3   OH262887   4.404   2.259   0.495 -0.0858  0.4345  0.4192
13799TIP3    H162888   4.336   2.312   0.536 -0.1535  0.9982 -0.3948
13799TIP3    H262889   4.483   2.279   0.545 -0.4877 -0.1547  1.3130
13800TIP3   OH262890   6.575   0.458  15.690  0.1950 -0.7248  0.1003
13800TIP3    H162891   6.582   0.553  15.693  0.4416 -0.7651  0.9535
13800TIP3    H262892   6.532   0.440  15.606  1.1074  0.0759 -0.5671
13801TIP3   OH262893   4.582   0.180   5.747 -0.4556  0.2456  0.1847
13801TIP3    H162894   4.628   0.125   5.684 -0.9055  0.4651 -0.3378
13801TIP3    H262895   4.650   0.238   5.783 -0.4897  1.2782 -1.3388
13802TIP3   OH262896   3.133   1.771   2.622 -0.1310  0.1571  0.4828
13802TIP3    H162897   3.109   1.848   2.570  0.6510  0.3419  0.3789
13802TIP3    H262898   3.078   1.701   2.587  0.4769  0.2452 -0.7271
13803TIP3   OH262899   1.757   4.585  15.027 -0.1484  0.6384  0.4441
13803TIP3    H162900   1.686   4.649  15.033 -0.6799 -0.0385  1.5245
13803TIP3    H262901   1.756   4.557  14.935 -1.7486  0.1325  0.5925
13804TIP3   OH262902   6.751   2.563   5.680 -0.6579 -0.3152 -0.3460
13804TIP3    H162903   6.769   2.656   5.664  1.0337 -0.7137 -0.9063
13804TIP3    H262904   6.836   2.521   5.678 -1.5565 -2.2477 -2.3232
13805TIP3   OH262905   0.098   5.913  14.478 -0.0063  0.4615 -0.5893
13805TIP3    H162906   0.019   5.932  14.528  0.5807  4.1834 -0.7701
13805TIP3    H262907   0.071   5.848  14.413 -2.3283  0.0878  0.6410
13806TIP3   OH262908   1.710   0.568   5.694  0.1761  0.2550  0.1287
13806TIP3    H162909   1.799   0.593   5.719 -0.3528  0.6603  1.7215
13806TIP3    H262910   1.716   0.474   5.676  1.6145  0.8439 -3.2428
13807TIP3   OH262911   5.705   1.365  15.113 -0.5443 -1.0988 -0.6735
13807TIP3    H162912   5.689   1.346  15.206  0.0454  1.1648 -0.0393
13807TIP3    H262913   5.625   1.411  15.084  0.9038  2.2060  0.0472
13808TIP3   OH262914   6.217   0.064  16.683  0.7071 -0.5196  0.3656
13808TIP3    H162915   6.229   0.141  16.627 -0.1041 -0.8220 -0.2477
13808TIP3    H262916   6.299   0.055  16.730  1.0872  0.2686 -0.1337
13809TIP3   OH262917   2.674   1.246   1.142 -0.2641  0.0638 -0.2777
13809TIP3    H162918   2.652   1.196   1.063 -0.4296  0.1301 -0.2749
13809TIP3    H262919   2.702   1.180   1.205 -1.5332 -0.1469  0.0863
13810TIP3   OH262920   5.240   0.844  14.788  0.1143  0.1620  0.3925
13810TIP3    H162921   5.169   0.905  14.770 -2.3146 -2.8714 -1.2580
13810TIP3    H262922   5.219   0.806  14.874  1.2747  1.1489  1.1362
13811TIP3   OH262923   5.216   3.127  16.671 -0.1320 -0.4335 -0.1072
13811TIP3    H162924   5.292   3.183  16.655 -0.0990 -0.2192  0.7154
13811TIP3    H262925   5.150   3.186  16.707 -1.7804 -0.0056 -3.4724
13812TIP3   OH262926   5.010   2.738   5.265 -0.2993  0.1999  0.3741
13812TIP3    H162927   4.988   2.816   5.214  1.5051  0.7706  0.3876
13812TIP3    H262928   5.102   2.720   5.243 -0.7423 -2.1340  0.1217
13813TIP3   OH262929   3.113   1.749  15.856  0.7058  0.2871  0.4122
13813TIP3    H162930   3.091   1.839  15.878 -1.2204  0.0524 -0.3336
13813TIP3    H262931   3.148   1.712  15.937 -0.5920  1.0853  1.3821
13814TIP3   OH262932   4.509   1.107   5.049  0.6624  0.0870  0.3192
13814TIP3    H162933   4.531   1.115   4.956  1.8993 -0.8055  0.5142
13814TIP3    H262934   4.414   1.120   5.052  0.6342  0.3377 -1.0432
13815TIP3   OH262935   0.676   4.933   4.995  0.1566 -0.5434 -0.4241
13815TIP3    H162936   0.724   4.948   4.914 -0.2234 -0.1858 -0.5907
13815TIP3    H262937   0.590   4.974   4.980  0.4638  0.5049  0.5594
13816TIP3   OH262938   2.765   6.339  15.997 -0.0140 -0.1453 -0.0076
13816TIP3    H162939   2.729   6.269  15.941 -2.5983  1.1391 -0.1260
13816TIP3    H262940   2.790   6.294  16.078  1.1136 -1.6081 -1.1002
13817TIP3   OH262941   5.061   6.788   1.328  0.1897  0.6989 -0.0367
13817TIP3    H162942   5.080   6.779   1.235  0.8388  2.2033 -0.0763
13817TIP3    H262943   5.109   6.867   1.355 -2.1921  1.9100  0.9645
13818TIP3   OH262944   5.358   1.863   2.485  0.3437  0.2874  0.4658
13818TIP3    H162945   5.384   1.786   2.536 -1.7299 -1.4985 -1.0031
13818TIP3    H262946   5.330   1.926   2.550 -0.2378 -1.1420  1.6687
13819TIP3   OH262947   0.876   4.809   2.427  0.3534  0.5379  0.2604
13819TIP3    H162948   0.849   4.809   2.335 -2.6413  0.8303  1.0105
13819TIP3    H262949   0.895   4.900   2.447 -0.9730  0.8068  0.3810
13820TIP3   OH262950   1.731   0.001   5.620  0.4157  0.1532 -0.0044
13820TIP3    H162951   1.745   0.004   5.525  0.3610  2.1610  0.0027
13820TIP3    H262952   1.647  -0.042   5.630  0.2335  0.2677 -0.9059
13821TIP3   OH262953   5.055   5.215   5.568 -0.0483 -0.6977 -0.4636
13821TIP3    H162954   5.133   5.177   5.610  0.3439  1.7289  1.1599
13821TIP3    H262955   5.090   5.268   5.497 -0.0773  1.1074  0.8132
13822TIP3   OH262956   4.127   3.109   5.658 -0.2715  0.1059  0.0534
13822TIP3    H162957   4.221   3.097   5.643 -0.2505  0.1943  0.1117
13822TIP3    H262958   4.105   3.047   5.728  0.0718  1.2010  1.1810
13823TIP3   OH262959   2.284   3.699  14.731 -0.1332 -0.4799  0.2547
13823TIP3    H162960   2.368   3.743  14.722 -0.7683  1.0588  1.3481
13823TIP3    H262961   2.220   3.764  14.702 -0.9204 -1.9877 -1.5768
13824TIP3   OH262962   5.599   1.473  15.819 -0.0407  0.8694 -0.3973
13824TIP3    H162963   5.620   1.459  15.726  1.5145  1.4878 -0.1799
13824TIP3    H262964   5.598   1.568  15.829 -0.3504  0.8075  0.1963
13825TIP3   OH262965   5.023   6.305  13.917  0.1342 -0.1865 -0.5052
13825TIP3    H162966   4.962   6.270  13.983  0.3872 -1.6024 -0.9963
13825TIP3    H262967   4.967   6.353  13.856 -0.0307  1.7733  1.0817
13826TIP3   OH262968   2.839   2.764   2.429 -0.5511 -0.9151  0.0550
13826TIP3    H162969   2.872   2.807   2.508 -0.1090 -0.2389 -0.4994
13826TIP3    H262970   2.750   2.736   2.453  0.5438 -3.2834  1.7592
13827TIP3   OH262971   5.876   3.073   5.412 -0.0511 -0.2978 -0.3214
13827TIP3    H162972   5.827   3.060   5.493  0.5732  0.0392  0.1264
13827TIP3    H262973   5.968   3.071   5.439  0.1588  1.2972 -0.7638
13828TIP3   OH262974   1.185   6.167  15.094  0.5433 -0.2734 -0.7123
13828TIP3    H162975   1.194   6.072  15.088  0.3846 -0.2838 -0.7800
13828TIP3    H262976   1.266   6.196  15.137  0.2971 -0.5070 -0.0727
13829TIP3   OH262977   1.773   1.210   5.723  0.0243  0.1613  0.3851
13829TIP3    H162978   1.703   1.145   5.726 -1.0822  0.8651 -3.9842
13829TIP3    H262979   1.730   1.292   5.750  0.2346 -0.0532  1.4233
13830TIP3   OH262980   0.751   3.645  14.031  0.5179  0.0181  0.1026
13830TIP3    H162981   0.772   3.736  14.050 -0.8696  0.4419 -0.3170
13830TIP3    H262982   0.684   3.622  14.095  1.1276 -0.8373  0.4531
13831TIP3   OH262983   0.313   4.189  13.170  0.0247  0.0702 -0.2886
13831TIP3    H162984   0.322   4.154  13.259  1.2734 -1.2459 -0.9052
13831TIP3    H262985   0.316   4.113  13.113 -2.5628  0.7041 -1.4360
13832TIP3   OH262986   1.687   5.570   4.828 -0.1145 -0.5609 -0.4310
13832TIP3    H162987   1.659   5.589   4.738  0.1551 -3.7131 -1.2758
13832TIP3    H262988   1.617   5.515   4.864  0.4721 -0.5263  0.7978
13833TIP3   OH262989   1.135   5.665  15.234  0.0315 -0.2127  0.4050
13833TIP3    H162990   1.059   5.709  15.196 -0.6780 -0.8906  1.0209
13833TIP3    H262991   1.098   5.597  15.291  1.0663  0.5658  2.0668
13834TIP3   OH262992   2.421   3.840  16.496 -0.8901  0.1836 -0.0448
13834TIP3    H162993   2.484   3.772  16.518 -1.3254  0.3034  1.7352
13834TIP3    H262994   2.474   3.915  16.472 -0.3767 -0.2010 -0.1277
13835TIP3   OH262995   6.204   0.805  15.539 -0.4463  0.0197 -0.2746
13835TIP3    H162996   6.212   0.711  15.522 -0.1763  0.4029 -2.6569
13835TIP3    H262997   6.293   0.833  15.559 -0.7415 -0.4201  1.8334
13836TIP3   OH262998   1.429   0.200  16.625  0.5575 -0.0751 -0.0565
13836TIP3    H162999   1.451   0.276  16.680 -0.2304  1.3637 -1.6191
13836TIP3    H263000   1.496   0.200  16.556  1.6379 -1.9589  0.9388
13837TIP3   OH263001   0.099   3.182  16.033  0.0452  0.3550  0.5813
13837TIP3    H163002   0.016   3.213  16.071 -1.1893  2.0593 -3.0686
13837TIP3    H263003   0.078   3.095  15.998 -0.1222  0.6357 -0.0251
13838TIP3   OH263004   0.397   6.570  16.231  0.3085 -0.1198 -0.0571
13838TIP3    H163005   0.323   6.623  16.261  0.3548 -0.6445  1.0190
13838TIP3    H263006   0.361   6.518  16.159 -0.3773 -0.3511  0.4377
13839TIP3   OH263007   4.698   2.425   1.971  0.1880  0.4850 -1.1009
13839TIP3    H163008   4.625   2.487   1.968  0.4365  0.8441 -0.1700
13839TIP3    H263009   4.740   2.433   1.885 -1.1356 -0.0791 -1.8274
13840TIP3   OH263010   4.611   5.014  11.297 -0.4208  0.3039 -0.2757
13840TIP3    H163011   4.618   4.951  11.368  1.0789 -0.3136 -0.9405
13840TIP3    H263012   4.643   4.968  11.220 -0.4198  1.4939 -1.0230
13841TIP3   OH263013   0.987   2.389   4.742  0.4386  0.8840 -0.0636
13841TIP3    H163014   1.076   2.396   4.775  0.6417 -0.5738 -0.2638
13841TIP3    H263015   0.935   2.363   4.818  0.1028  2.0318  0.1268
13842TIP3   OH263016   1.929   2.431  17.123 -0.3499  0.0825 -0.1677
13842TIP3    H163017   1.963   2.380  17.049 -0.0376  0.0395  0.0058
13842TIP3    H263018   1.971   2.517  17.114  0.3041 -0.1646  0.4040
13843TIP3   OH263019   6.141   5.580   4.290 -0.0648  0.1990 -0.3339
13843TIP3    H163020   6.075   5.608   4.355 -1.3109  1.1615 -1.9259
13843TIP3    H263021   6.168   5.494   4.320  1.2857  1.5635  2.8390
13844TIP3   OH263022   2.648   6.468  15.749 -0.4998  0.3357 -0.3115
13844TIP3    H163023   2.561   6.432  15.765 -1.2553  1.7731 -1.0299
13844TIP3    H263024   2.694   6.459  15.833 -1.3255 -0.4381  0.0722
13845TIP3   OH263025   6.758   0.793  13.294  0.6174 -0.0785  0.2749
13845TIP3    H163026   6.673   0.753  13.312  0.0704  0.1861 -1.4347
13845TIP3    H263027   6.762   0.796  13.198  0.9888  3.0871  0.2612
13846TIP3   OH263028   0.978   4.445  11.809 -0.1570 -0.0987  0.2510
13846TIP3    H163029   1.044   4.399  11.757  0.5734 -0.1875  1.2124
13846TIP3    H263030   1.011   4.439  11.899 -2.1995 -1.4628  0.9997
13847TIP3   OH263031   4.864   3.395  13.374  0.3765  0.4001  0.0276
13847TIP3    H163032   4.916   3.475  13.383 -0.6861  1.0586  0.3785
13847TIP3    H263033   4.858   3.360  13.463 -0.6523  0.8896  0.1600
13848TIP3   OH263034   5.503   3.007   2.023 -0.5711 -0.4857 -0.5055
13848TIP3    H163035   5.596   2.990   2.039 -0.8406 -4.0633 -1.7108
13848TIP3    H263036   5.458   2.944   2.080 -2.1244 -0.4235 -1.6152
13849TIP3   OH263037   5.913   6.331   0.457  0.4486 -0.1071 -0.1411
13849TIP3    H163038   5.900   6.386   0.534 -0.5826  0.7517 -0.8967
13849TIP3    H263039   5.838   6.271   0.458  0.5333 -0.2146 -0.3772
13850TIP3   OH263040   1.930   4.984  13.215 -1.0811 -0.1655 -0.4318
13850TIP3    H163041   1.952   5.025  13.131 -0.7730  0.2688 -0.1420
13850TIP3    H263042   2.009   4.995  13.268 -1.2281 -0.5587 -0.1283
13851TIP3   OH263043   4.571   2.106   2.990 -0.1130  0.2796 -0.4560
13851TIP3    H163044   4.606   2.185   2.947  0.4201  0.0959 -0.3742
13851TIP3    H263045   4.520   2.063   2.922 -1.6854  1.4664 -0.0705
13852TIP3   OH263046   3.736   4.366  12.969 -0.9990  0.5699  0.5645
13852TIP3    H163047   3.800   4.314  12.921 -1.4150  0.5134  0.0724
13852TIP3    H263048   3.675   4.302  13.005 -1.6705  0.7245 -0.2727
13853TIP3   OH263049   5.802   3.157  15.568  0.5621 -0.4801 -0.7290
13853TIP3    H163050   5.794   3.066  15.596 -1.0754 -0.1370  0.0748
13853TIP3    H263051   5.733   3.202  15.616  2.3875  1.5178  0.1856
13854TIP3   OH263052   0.745   0.230   0.139 -0.0185 -0.5050 -0.2615
13854TIP3    H163053   0.706   0.173   0.073 -1.5230 -2.3669  2.0617
13854TIP3    H263054   0.834   0.196   0.151 -0.4871 -1.6186  0.2056
13855TIP3   OH263055   3.241   6.215  12.548  0.1862 -0.8124 -0.5102
13855TIP3    H163056   3.264   6.138  12.497 -1.4247 -1.1480 -0.8079
13855TIP3    H263057   3.321   6.266  12.554  1.3121 -2.5444 -0.2424
13856TIP3   OH263058   5.142   1.424  14.243 -0.2028 -0.4488 -0.1749
13856TIP3    H163059   5.174   1.353  14.299  2.1488  0.1350 -0.6850
13856TIP3    H263060   5.158   1.504  14.294 -0.0965 -0.0757 -0.7878
13857TIP3   OH263061   4.534   0.991  12.101 -0.0156 -0.6660 -0.0743
13857TIP3    H163062   4.589   0.913  12.109  0.8706 -0.4002 -2.8318
13857TIP3    H263063   4.481   0.975  12.023  0.4269  1.6054 -0.9126
13858TIP3   OH263064   3.030   0.064  17.142  0.3029  0.1318  0.1379
13858TIP3    H163065   3.080  -0.003  17.096 -0.2479 -1.7684  2.1464
13858TIP3    H263066   2.941   0.029  17.145 -0.2433  1.4816  0.3027
13859TIP3   OH263067   2.412   2.762  12.926  0.2711  0.3423  0.2902
13859TIP3    H163068   2.440   2.711  13.002 -0.3397 -0.8202 -0.2392
13859TIP3    H263069   2.326   2.797  12.951 -0.0233 -0.2088  0.0835
13860TIP3   OH263070   6.442   1.580  13.377 -0.0635 -0.0502  0.7267
13860TIP3    H163071   6.525   1.533  13.377  0.7583  1.3239 -0.5746
13860TIP3    H263072   6.467   1.672  13.376 -1.5977  0.3874 -0.1250
13861TIP3   OH263073   4.087   5.710  16.086 -0.6375  0.1720  0.5857
13861TIP3    H163074   4.154   5.775  16.108  0.5892 -0.6501 -0.5493
13861TIP3    H263075   4.074   5.719  15.992 -1.1160 -0.6119  0.5627
13862TIP3   OH263076   1.524   1.540  17.215 -0.6299 -0.3108  0.8668
13862TIP3    H163077   1.619   1.530  17.206 -0.5622  0.4100  0.7144
13862TIP3    H263078   1.497   1.586  17.136 -1.0673 -0.2592  1.0409
13863TIP3   OH263079   4.881   2.488  11.770  0.4597 -0.1793 -0.4902
13863TIP3    H163080   4.858   2.549  11.700  1.3652 -1.9520 -2.4351
13863TIP3    H263081   4.955   2.530  11.814  0.1246  0.8018 -0.8225
13864TIP3   OH263082   1.015   2.933  11.965  0.8125 -0.6115 -0.2466
13864TIP3    H163083   1.104   2.967  11.962 -0.0446  1.7913 -1.2164
13864TIP3    H263084   0.973   2.968  11.886 -1.6383  0.4226  1.3863
13865TIP3   OH263085   3.283   4.696  17.180 -0.4659 -0.0983 -0.2805
13865TIP3    H163086   3.346   4.657  17.119 -1.4220 -1.9706 -0.1671
13865TIP3    H263087   3.319   4.679  17.266  0.3562  1.5853 -0.2734
13866TIP3   OH263088   4.129   4.968  16.863  0.0385  0.1734  0.2211
13866TIP3    H163089   4.062   5.023  16.823  1.2079  3.0957  1.9583
13866TIP3    H263090   4.198   4.964  16.797  0.3029  1.6106  0.3694
13867TIP3   OH263091   5.036   3.887  14.278 -0.1482  0.4961 -0.3571
13867TIP3    H163092   4.949   3.887  14.319 -0.1534  1.0378 -0.3620
13867TIP3    H263093   5.057   3.979  14.268  0.8939  0.3884  0.6335
13868TIP3   OH263094   3.588   5.667   4.063 -0.0761  0.1593  0.1727
13868TIP3    H163095   3.636   5.586   4.046 -0.1335  0.2493 -0.4658
13868TIP3    H263096   3.648   5.720   4.114 -0.3223 -0.5761  1.2503
13869TIP3   OH263097   3.546   0.199   0.287 -0.0284  0.0483 -0.9591
13869TIP3    H163098   3.475   0.263   0.280 -1.9875 -2.0774 -1.7134
13869TIP3    H263099   3.508   0.126   0.335  1.7455 -1.0717 -1.1629
13870TIP3   OH263100   2.782   2.957   2.249  0.4788 -0.4205  0.0707
13870TIP3    H163101   2.844   2.900   2.296 -1.6594 -1.7905  1.4408
13870TIP3    H263102   2.836   3.027   2.214  3.2223 -2.9568 -1.2416
13871TIP3   OH263103   0.214   1.638   0.827  0.2903 -0.7153 -0.1001
13871TIP3    H163104   0.180   1.650   0.915  1.9574  1.7090  0.3012
13871TIP3    H263105   0.147   1.676   0.770  1.2867  2.1741  0.5306
13872TIP3   OH263106   4.422   2.686  13.271  0.6230  0.4416 -0.4379
13872TIP3    H163107   4.327   2.697  13.272  0.7558  1.6661  0.3360
13872TIP3    H263108   4.439   2.636  13.191 -0.5710  1.0919 -1.1341
13873TIP3   OH263109   6.816   4.111  12.881 -0.2179 -0.1744 -0.0776
13873TIP3    H163110   6.854   4.189  12.921  1.9157 -0.7399 -0.8870
13873TIP3    H263111   6.811   4.133  12.787  0.3429 -0.9688 -0.3007
13874TIP3   OH263112   5.650   5.580   2.729 -0.2431  0.1255 -0.7360
13874TIP3    H163113   5.638   5.578   2.824 -0.4301  2.2732 -0.6743
13874TIP3    H263114   5.587   5.644   2.698  0.7163  0.4205 -2.1623
13875TIP3   OH263115   6.009   2.937  17.110 -0.1923  0.1332 -0.5442
13875TIP3    H163116   6.105   2.945  17.114 -0.1282 -0.9326  1.0991
13875TIP3    H263117   5.976   3.021  17.141  0.2498  0.0262  0.2558
13876TIP3   OH263118   4.193   0.606   1.220 -0.2463 -0.1249  0.5482
13876TIP3    H163119   4.112   0.638   1.261  0.0063  2.3398 -0.6695
13876TIP3    H263120   4.260   0.667   1.251  0.5373 -0.2070 -0.9083
13877TIP3   OH263121   3.109   1.836  13.747  0.2326  0.2565  0.3901
13877TIP3    H163122   3.109   1.904  13.679 -0.8274 -1.1726 -1.0968
13877TIP3    H263123   3.027   1.789  13.734 -0.1921  0.1815  2.9578
13878TIP3   OH263124   1.930   5.620   4.440  0.2600 -0.0460 -0.1294
13878TIP3    H163125   1.997   5.634   4.373  2.9322 -0.4995  2.2245
13878TIP3    H263126   1.954   5.537   4.481 -1.3745  0.1097  1.2364
13879TIP3   OH263127   6.503   6.373   2.824 -0.5547  0.2742  0.9954
13879TIP3    H163128   6.422   6.331   2.851  0.1382 -1.5193  0.4702
13879TIP3    H263129   6.572   6.317   2.859  0.4298  0.9241  0.1798
13880TIP3   OH263130   0.022   5.402  16.877 -0.5103  0.5588 -0.1613
13880TIP3    H163131   0.116   5.393  16.862 -0.3963 -0.8204  1.1853
13880TIP3    H263132   0.011   5.492  16.907 -0.0104  1.5732 -2.7082
13881TIP3   OH263133   4.884   1.436   4.097 -0.4148  0.2934 -0.0113
13881TIP3    H163134   4.849   1.351   4.070 -1.4303  0.0172  1.9684
13881TIP3    H263135   4.812   1.498   4.081 -0.2914  0.4782  0.1441
13882TIP3   OH263136   2.973   1.088  14.437  0.4994 -0.3189 -0.0283
13882TIP3    H163137   2.965   1.073  14.532 -2.3727  0.8972  0.0340
13882TIP3    H263138   2.947   1.179  14.425  1.8026 -0.1448 -1.9197
13883TIP3   OH263139   4.486   0.353  10.826  0.2135  0.2792 -0.5285
13883TIP3    H163140   4.441   0.297  10.889  2.3808 -0.5247  0.3941
13883TIP3    H263141   4.568   0.307  10.806  0.3340  1.2948 -2.7225
13884TIP3   OH263142   0.457   2.859   2.386  0.2769 -0.1579  0.1015
13884TIP3    H163143   0.524   2.853   2.454  1.1741 -0.5181 -0.7932
13884TIP3    H263144   0.470   2.945   2.347  0.7448 -0.5322 -0.5899
13885TIP3   OH263145   3.385   5.422  16.659 -0.2555  0.1420 -0.2255
13885TIP3    H163146   3.349   5.405  16.746  1.2193  1.3526  0.6660
13885TIP3    H263147   3.310   5.449  16.607 -1.3736 -1.7476  0.2979
13886TIP3   OH263148   4.216   3.740  16.967  0.0674 -0.1645  1.2678
13886TIP3    H163149   4.266   3.671  16.923  1.7389  1.7048  0.0385
13886TIP3    H263150   4.124   3.715  16.954  0.3250  0.4773 -4.0603
13887TIP3   OH263151   3.067   2.030  11.700  0.6213  0.2587 -0.4156
13887TIP3    H163152   3.032   1.943  11.717  1.5876 -0.4072 -1.7065
13887TIP3    H263153   2.999   2.074  11.650  0.8621 -0.4151 -1.3684
13888TIP3   OH263154   0.772   5.691   1.210 -0.0387 -0.0985 -0.8704
13888TIP3    H163155   0.802   5.698   1.119  0.1211  2.1009 -0.6968
13888TIP3    H263156   0.742   5.779   1.232 -2.2537 -1.1057  0.4939
13889TIP3   OH263157   4.704   1.832   2.649  0.4590 -0.0241 -0.0480
13889TIP3    H163158   4.767   1.763   2.673  0.7746  0.3003  0.0590
13889TIP3    H263159   4.705   1.892   2.723 -0.6668 -0.4866  0.3706
13890TIP3   OH263160   6.767   1.765   4.703  0.3987 -0.5220  0.2152
13890TIP3    H163161   6.731   1.819   4.773  2.2570 -0.1764  0.9305
13890TIP3    H263162   6.740   1.676   4.726  0.6373 -0.3600  1.1481
13891TIP3   OH263163   3.029   1.957  16.242  0.4153  0.0771 -0.2048
13891TIP3    H163164   3.097   1.892  16.261  0.4622 -0.3636 -1.7694
13891TIP3    H263165   3.032   2.017  16.317  1.4933 -0.7857  0.4774
13892TIP3   OH263166   1.423   1.220   6.337  0.1842  0.2937 -0.1684
13892TIP3    H163167   1.517   1.222   6.320  0.1412  0.6087 -0.3760
13892TIP3    H263168   1.389   1.157   6.274  0.1156  0.9661 -0.8167
13893TIP3   OH263169   2.919   3.609  11.671  0.3722 -0.2261 -0.5711
13893TIP3    H163170   2.970   3.569  11.742  0.2989  0.7083  0.0243
13893TIP3    H263171   2.936   3.703  11.679 -2.3082  0.2684  0.3592
13894TIP3   OH263172   2.613   4.473  16.118  0.5396  0.0134 -0.6978
13894TIP3    H163173   2.554   4.413  16.073  0.1989  0.5032 -0.9207
13894TIP3    H263174   2.627   4.544  16.055  0.3962  0.4969 -0.1938
13895TIP3   OH263175   4.300   3.799  13.936  0.0248 -0.3879 -0.0951
13895TIP3    H163176   4.210   3.769  13.951 -0.5225  0.9555 -0.5536
13895TIP3    H263177   4.353   3.743  13.992 -1.0185 -1.6782 -0.3312
13896TIP3   OH263178   4.237   1.487  13.980  0.2565 -0.1790 -0.1952
13896TIP3    H163179   4.270   1.406  13.941  0.2238 -0.3622  0.1524
13896TIP3    H263180   4.206   1.461  14.067  2.1171  0.5575  0.7424
13897TIP3   OH263181   6.406   0.792  11.825 -0.2413 -0.0262 -1.1422
13897TIP3    H163182   6.325   0.800  11.875  0.7569  1.2950  0.3475
13897TIP3    H263183   6.436   0.703  11.842  0.1320  0.4282  0.7465
13898TIP3   OH263184   4.344   2.618  14.463  0.4429 -0.6464  0.2178
13898TIP3    H163185   4.360   2.690  14.403 -0.2528 -1.5496 -1.0930
13898TIP3    H263186   4.280   2.563  14.419  0.1841 -1.5425  1.6294
13899TIP3   OH263187   6.396   3.032  11.109 -0.3411 -0.2422 -0.3686
13899TIP3    H163188   6.488   3.055  11.094 -0.4832  0.2362 -0.5185
13899TIP3    H263189   6.347   3.108  11.079 -0.7156  0.1858  1.1907
13900TIP3   OH263190   1.463   6.296   2.907  0.4632 -0.2201  0.0771
13900TIP3    H163191   1.499   6.385   2.917 -0.3526  0.0614  0.5850
13900TIP3    H263192   1.486   6.252   2.989 -0.8624  0.1574  0.6725
13901TIP3   OH263193   1.605   1.923  11.683 -0.6868  0.2113  0.0107
13901TIP3    H163194   1.522   1.875  11.679 -0.6944 -0.1332  2.4785
13901TIP3    H263195   1.662   1.867  11.736 -0.4628  2.4967  2.3896
13902TIP3   OH263196   0.206   0.892   1.734  0.0232 -0.0195 -0.9164
13902TIP3    H163197   0.174   0.802   1.729  0.1981 -0.2875  1.3856
13902TIP3    H263198   0.144   0.936   1.792 -0.1898  1.4274 -2.1997
13903TIP3   OH263199   1.123   0.170   1.183 -0.0631 -0.3581  0.1757
13903TIP3    H163200   1.027   0.174   1.173 -0.0095 -0.1222 -0.2822
13903TIP3    H263201   1.154   0.144   1.096  0.3118 -0.0786  0.2269
13904TIP3   OH263202   1.577   3.801   0.115 -0.2038 -0.0196  0.0287
13904TIP3    H163203   1.646   3.745   0.151 -1.4786 -2.3604 -0.9471
13904TIP3    H263204   1.620   3.851   0.045  0.6825 -0.8018 -0.0007
13905TIP3   OH263205   0.435   3.830  13.284  0.5357  0.0490  0.4198
13905TIP3    H163206   0.366   3.819  13.349  2.5518 -1.2884  2.4772
13905TIP3    H263207   0.517   3.821  13.333  2.2141 -2.7197 -2.4748
13906TIP3   OH263208   1.833   5.077  16.861  0.4585 -0.1108  0.3173
13906TIP3    H163209   1.856   5.121  16.779 -0.7085 -2.4832 -1.3740
13906TIP3    H263210   1.917   5.065  16.905  1.3778 -0.5298 -1.4557
13907TIP3   OH263211   3.502   3.309  16.017  0.3032 -0.2750 -0.0155
13907TIP3    H163212   3.576   3.284  15.962  0.7055  1.2612 -0.2220
13907TIP3    H263213   3.425   3.277  15.970  0.7838 -1.2432 -0.1622
13908TIP3   OH263214   5.804   4.591  12.015  0.1802 -0.5503 -0.2710
13908TIP3    H163215   5.710   4.606  12.012  0.4013  0.9341 -0.6531
13908TIP3    H263216   5.816   4.506  11.973 -0.8584  0.0101 -1.7937
13909TIP3   OH263217   6.582   4.672   3.335 -0.2734 -0.4570  0.9406
13909TIP3    H163218   6.519   4.619   3.385 -1.3806 -0.7434 -0.6871
13909TIP3    H263219   6.541   4.682   3.249  2.9159 -2.6034 -1.0056
13910TIP3   OH263220   0.531   3.404  13.522 -0.7770  0.2118 -0.0056
13910TIP3    H163221   0.608   3.461  13.523 -1.7701  1.5649  0.6984
13910TIP3    H263222   0.567   3.316  13.538  1.0290  0.2492 -3.0277
13911TIP3   OH263223   6.591   6.747   5.098  0.2329 -0.2528 -0.1132
13911TIP3    H163224   6.498   6.739   5.118  0.0866 -1.0821 -1.0392
13911TIP3    H263225   6.594   6.803   5.020  0.2978 -2.1619 -1.5523
13912TIP3   OH263226   4.926   3.655   1.895 -0.3776  0.4502  0.1546
13912TIP3    H163227   4.947   3.572   1.937 -0.1389  1.2579  1.7367
13912TIP3    H263228   5.010   3.687   1.862 -0.1585  0.7809  0.9820
13913TIP3   OH263229   1.191   5.676  13.389 -0.0141  0.0516 -0.3892
13913TIP3    H163230   1.220   5.597  13.436 -0.0634 -0.1212 -0.6454
13913TIP3    H263231   1.115   5.647  13.339  0.6414 -0.0219 -1.3647
13914TIP3   OH263232   2.750   4.154   0.208 -0.0756 -0.1806  0.4313
13914TIP3    H163233   2.821   4.099   0.241 -0.2838  0.1732  1.4905
13914TIP3    H263234   2.789   4.241   0.199 -0.0115 -0.2803 -0.3056
13915TIP3   OH263235   4.093   4.705  12.878 -0.4225  0.2133 -0.2277
13915TIP3    H163236   4.006   4.672  12.901 -0.1341 -1.9270 -1.9028
13915TIP3    H263237   4.083   4.742  12.790  0.1445  0.9680  0.0108
13916TIP3   OH263238   0.099   0.283   4.918  0.0717 -0.6317 -0.0889
13916TIP3    H163239   0.009   0.288   4.885  0.9848  0.4056 -2.6741
13916TIP3    H263240   0.109   0.192   4.944 -1.3175 -1.1171 -1.0895
13917TIP3   OH263241   3.559   4.954   5.157 -0.4700 -0.2110 -0.1304
13917TIP3    H163242   3.465   4.961   5.140 -0.7528  2.0544  1.8578
13917TIP3    H263243   3.565   4.898   5.235 -0.1829 -0.2554 -0.1857
13918TIP3   OH263244   5.687   0.135  13.734  0.1911  0.2451  0.4697
13918TIP3    H163245   5.714   0.220  13.701 -0.3338 -0.0384 -0.7376
13918TIP3    H263246   5.629   0.155  13.808  1.8583  0.8757  1.6779
13919TIP3   OH263247   4.348   5.447  14.253  0.1649 -0.1766 -0.1949
13919TIP3    H163248   4.301   5.520  14.293 -0.0408 -0.4575  0.0779
13919TIP3    H263249   4.439   5.460  14.279  0.1092 -0.0805 -0.0514
13920TIP3   OH263250   5.789   3.426   5.087  0.2979  0.0487  0.1154
13920TIP3    H163251   5.831   3.341   5.098  0.1276 -0.5852 -3.0402
13920TIP3    H263252   5.708   3.420   5.137  1.4561 -0.6393  2.0134
13921TIP3   OH263253   2.088   3.859   6.094  0.7039 -0.1605 -0.1300
13921TIP3    H163254   2.134   3.811   6.025  0.8867  0.5808 -0.5470
13921TIP3    H263255   2.149   3.860   6.168  0.4480 -1.0844  0.1024
13922TIP3   OH263256   1.309   3.962   0.780 -0.2849 -0.0932  0.5785
13922TIP3    H163257   1.281   3.880   0.822 -0.1862 -0.5541 -0.2176
13922TIP3    H263258   1.289   4.030   0.844  1.2717 -0.9031  1.9850
13923TIP3   OH263259   6.287   2.119   3.153 -0.1272 -0.4106  0.1400
13923TIP3    H163260   6.216   2.170   3.112 -0.9661 -1.3013  0.4460
13923TIP3    H263261   6.361   2.179   3.155 -0.3526 -0.0173 -1.7770
13924TIP3   OH263262   5.110   1.558   4.915  0.9518  0.2003  0.1024
13924TIP3    H163263   5.053   1.628   4.883  0.1011 -0.3880  0.2988
13924TIP3    H263264   5.061   1.478   4.898  1.3225 -0.2582  1.1152
13925TIP3   OH263265   0.881   5.830   2.621 -0.2361 -0.5564 -0.2032
13925TIP3    H163266   0.893   5.785   2.538 -1.6066  0.1240 -0.7926
13925TIP3    H263267   0.926   5.914   2.610  0.2608 -0.7854  0.0384
13926TIP3   OH263268   6.059   4.000  15.186  0.0407  0.1732  0.0794
13926TIP3    H163269   6.048   4.048  15.268  2.5840 -1.1368  1.2952
13926TIP3    H263270   6.045   3.909  15.210  0.5402 -0.1968 -0.9999
13927TIP3   OH263271   0.506   6.472   2.626 -0.3765 -0.0236  0.3484
13927TIP3    H163272   0.547   6.446   2.543  0.1385  2.1919 -0.1542
13927TIP3    H263273   0.421   6.429   2.626  0.3864 -1.6340 -0.3782
13928TIP3   OH263274   6.562   1.533  11.966 -0.4462 -0.1497 -0.6274
13928TIP3    H163275   6.536   1.456  11.915 -3.2916  1.5342 -2.0213
13928TIP3    H263276   6.654   1.546  11.945 -0.7334 -1.3096 -2.9772
13929TIP3   OH263277   3.616   5.772  15.472 -0.0092 -1.1040 -0.4163
13929TIP3    H163278   3.682   5.703  15.475  1.7845  0.5353  1.0517
13929TIP3    H263279   3.665   5.853  15.488 -2.1233  0.4475 -1.1919
13930TIP3   OH263280   1.141   3.812   4.251 -0.1222  0.2099  0.1765
13930TIP3    H163281   1.056   3.843   4.281  0.5749  0.3599  2.1673
13930TIP3    H263282   1.204   3.869   4.295  1.0754 -1.5888  0.8972
13931TIP3   OH263283   2.893   1.546   6.509  0.2325 -0.9623 -0.1182
13931TIP3    H163284   2.838   1.500   6.573 -0.3291 -1.0075 -0.6295
13931TIP3    H263285   2.864   1.514   6.424 -0.0054  0.1585 -0.4736
13932TIP3   OH263286   6.066   1.203   0.230  0.5756 -0.3745 -0.2298
13932TIP3    H163287   6.123   1.280   0.230  0.2128 -0.0874  0.7261
13932TIP3    H263288   6.124   1.129   0.243  0.7479 -0.0695  0.9174
13933TIP3   OH263289   1.983   6.720  15.528 -0.0103  0.1602  0.0165
13933TIP3    H163290   1.920   6.664  15.482  1.2316 -0.7533 -0.6267
13933TIP3    H263291   2.006   6.787  15.463  0.1398  0.1316  0.0407
13934TIP3   OH263292   5.522   4.155  14.617  0.2478 -0.3861  0.3526
13934TIP3    H163293   5.488   4.079  14.569 -0.1814  0.1507 -0.2032
13934TIP3    H263294   5.487   4.145  14.705  0.2085 -0.8459  0.2873
13935TIP3   OH263295   1.214   6.238   3.364  0.4802  0.3702 -0.1412
13935TIP3    H163296   1.273   6.173   3.402 -1.7867 -1.6475  0.1617
13935TIP3    H263297   1.156   6.188   3.307 -0.9532  2.2581 -0.4462
13936TIP3   OH263298   0.800   1.946  11.159  0.5325 -0.6047 -0.1838
13936TIP3    H163299   0.856   2.016  11.125 -0.2004 -0.6676 -1.6053
13936TIP3    H263300   0.860   1.888  11.206  1.4018  0.1538 -0.3215
13937TIP3   OH263301   4.650   4.172  14.345 -0.6680 -0.1701  0.4825
13937TIP3    H163302   4.603   4.200  14.424 -0.0951  0.3092  0.6632
13937TIP3    H263303   4.733   4.137  14.378 -0.1096  0.7054  0.0566
13938TIP3   OH263304   1.121   5.974   1.741 -0.1229  0.0927  0.1903
13938TIP3    H163305   1.034   5.941   1.717 -0.4444  1.1970 -0.2692
13938TIP3    H263306   1.103   6.046   1.802  0.5040 -0.0749  0.5814
13939TIP3   OH263307   2.501   0.043   5.385  0.1037  0.4735  0.1672
13939TIP3    H163308   2.519   0.029   5.292  3.1420  0.9155  0.6049
13939TIP3    H263309   2.435  -0.023   5.406  0.7148 -0.9037 -1.8816
13940TIP3   OH263310   1.995   0.405   3.586 -0.1654  0.1180  0.0142
13940TIP3    H163311   2.081   0.365   3.573 -0.2553 -0.5690  1.3983
13940TIP3    H263312   1.955   0.405   3.498  2.4511  3.5270 -1.4180
13941TIP3   OH263313   6.109   0.373  16.256  0.2422 -0.1690 -0.0753
13941TIP3    H163314   6.018   0.362  16.285  0.1925 -0.6590 -0.4202
13941TIP3    H263315   6.110   0.460  16.216 -0.4412 -0.7464 -1.4073
13942TIP3   OH263316   6.186   3.872  11.395  0.2669  0.1830  0.2241
13942TIP3    H163317   6.242   3.837  11.326 -0.5714 -1.0587  0.1415
13942TIP3    H263318   6.208   3.965  11.400  1.0356  0.0803 -1.0375
13943TIP3   OH263319   2.620   5.380  12.675  0.2208 -0.2622 -0.0245
13943TIP3    H163320   2.699   5.354  12.721  0.7228 -0.1646 -0.8152
13943TIP3    H263321   2.621   5.328  12.594  0.2484  0.7993 -0.7264
13944TIP3   OH263322   5.352   1.608  12.271 -0.0592  0.4783 -0.5107
13944TIP3    H163323   5.295   1.586  12.344  0.2903  0.2942 -0.2867
13944TIP3    H263324   5.323   1.552  12.200 -0.6244  0.9034 -0.6190
13945TIP3   OH263325   3.991   2.526  13.069  0.1832 -0.0066  0.4678
13945TIP3    H163326   4.029   2.583  13.136 -1.6301  0.4971  1.1420
13945TIP3    H263327   4.022   2.438  13.092  0.7572  0.3510  1.0965
13946TIP3   OH263328   1.588   0.777   1.935 -0.8131  0.2590 -0.1502
13946TIP3    H163329   1.671   0.730   1.933 -1.1660 -0.4984 -3.5679
13946TIP3    H263330   1.611   0.869   1.918 -0.6456 -0.0619 -1.8404
13947TIP3   OH263331   0.253   2.059  12.806 -0.1374 -0.0961 -0.0382
13947TIP3    H163332   0.166   2.020  12.796  0.7461 -1.7492 -1.9553
13947TIP3    H263333   0.250   2.139  12.754 -1.1230  1.0574  1.6934
13948TIP3   OH263334   2.079   2.868   1.759  0.6420 -0.0753 -0.1544
13948TIP3    H163335   2.042   2.952   1.787 -0.6887 -0.6429 -0.1532
13948TIP3    H263336   2.048   2.857   1.669 -0.1243 -1.0722  0.2138
13949TIP3   OH263337   2.523   0.663   0.221  0.3014  0.5251  0.3519
13949TIP3    H163338   2.586   0.682   0.152 -0.1536 -0.6065 -0.4008
13949TIP3    H263339   2.442   0.641   0.175 -0.3528  0.9127  1.2787
13950TIP3   OH263340   1.584   0.213  14.948 -0.0961 -0.3141 -0.1331
13950TIP3    H163341   1.624   0.219  14.861  0.5052  1.0878  0.2132
13950TIP3    H263342   1.492   0.194  14.931  0.4382 -2.4746 -0.9840
13951TIP3   OH263343   4.953   5.737   3.300 -0.4935  0.2891  0.6219
13951TIP3    H163344   4.858   5.739   3.313 -1.1007 -1.2290 -2.6013
13951TIP3    H263345   4.980   5.653   3.338  0.0942  1.7320  3.6986
13952TIP3   OH263346   0.794   0.040   4.557 -0.3562  0.6216  0.3753
13952TIP3    H163347   0.749   0.078   4.632 -0.1732  0.6333  0.4797
13952TIP3    H263348   0.878   0.011   4.592 -0.1890  0.8087  0.1317
13953TIP3   OH263349   0.342   2.897   1.532 -0.6698  0.1077  0.2898
13953TIP3    H163350   0.281   2.835   1.572 -1.2934  1.3423  1.3441
13953TIP3    H263351   0.394   2.930   1.605 -0.0476  0.5162 -0.3195
13954TIP3   OH263352   1.092   2.430  16.090  0.0895 -0.6144 -0.4014
13954TIP3    H163353   1.000   2.428  16.063  0.2735  1.4554 -1.3211
13954TIP3    H263354   1.089   2.445  16.184 -0.5573  1.7015 -0.7310
13955TIP3   OH263355   0.331   4.214  14.357  0.2015  0.4399  0.6452
13955TIP3    H163356   0.376   4.164  14.425 -0.9732 -0.1680  0.9929
13955TIP3    H263357   0.238   4.200  14.373 -0.1243  1.1541 -0.4462
13956TIP3   OH263358   6.372   0.897   3.268  0.1759 -0.7890 -0.1338
13956TIP3    H163359   6.338   0.854   3.346 -0.2080  0.3729  0.3560
13956TIP3    H263360   6.294   0.925   3.220  0.4062  0.1479  0.0138
13957TIP3   OH263361   1.299   0.502  10.356  0.5423  0.3619  0.1834
13957TIP3    H163362   1.372   0.520  10.415  0.1955  1.4086  0.3190
13957TIP3    H263363   1.229   0.559  10.387  0.4892  1.2851 -1.5178
13958TIP3   OH263364   4.816   2.347   4.667 -0.5653 -0.2653 -0.4318
13958TIP3    H163365   4.832   2.337   4.762 -2.1495 -0.9055 -0.2079
13958TIP3    H263366   4.876   2.283   4.627  0.7709  0.6309  0.0442
13959TIP3   OH263367   4.151   4.469  14.589  0.1808  0.3913 -0.4315
13959TIP3    H163368   4.175   4.389  14.541 -0.4304  0.2778 -0.5565
13959TIP3    H263369   4.208   4.468  14.666 -0.3523 -0.5723 -0.0301
13960TIP3   OH263370   3.657   3.441   5.395 -0.0210 -0.5346 -0.2881
13960TIP3    H163371   3.578   3.492   5.415 -0.2336 -1.5863  1.9304
13960TIP3    H263372   3.623   3.357   5.363  0.0242 -1.7143  2.4842
13961TIP3   OH263373   5.629   1.986   1.990 -0.3730 -0.5181  0.0063
13961TIP3    H163374   5.711   1.941   2.010  0.6566  0.5462 -1.5977
13961TIP3    H263375   5.573   1.919   1.951  0.5916 -0.7611 -0.9978
13962TIP3   OH263376   1.548   2.175  12.744 -0.1469 -0.1483  0.7328
13962TIP3    H163377   1.493   2.113  12.792 -0.1197 -0.2066  0.6889
13962TIP3    H263378   1.637   2.157  12.776 -0.2447  0.4710  1.3788
13963TIP3   OH263379   2.373   5.084   5.164 -0.2127  0.7343 -0.5537
13963TIP3    H163380   2.461   5.092   5.128  0.2465  0.8434  0.5369
13963TIP3    H263381   2.339   5.003   5.126  0.0610  1.0817 -1.5764
13964TIP3   OH263382   0.039   1.115   0.024  0.3539 -0.2831  0.1967
13964TIP3    H163383   0.061   1.200  -0.014 -1.4497 -0.1777 -0.7140
13964TIP3    H263384   0.119   1.064   0.017  1.1304  0.9716 -0.3177
13965TIP3   OH263385   0.334   0.866  16.752  0.2150  0.2504  0.3200
13965TIP3    H163386   0.366   0.911  16.831  1.3464 -0.4891  0.3097
13965TIP3    H263387   0.350   0.928  16.681  0.8849  0.2164  0.4344
13966TIP3   OH263388   6.355   2.509   2.900  0.5930 -0.5244 -0.5509
13966TIP3    H163389   6.425   2.573   2.885 -0.5506  0.9692  0.1490
13966TIP3    H263390   6.347   2.462   2.817  0.4639  1.3221 -1.6455
13967TIP3   OH263391   5.368   1.449   2.088  0.2413 -0.5936  0.0884
13967TIP3    H163392   5.404   1.527   2.130 -2.1992  0.1314  0.9651
13967TIP3    H263393   5.390   1.460   1.995 -1.9264  2.3618 -0.2213
13968TIP3   OH263394   1.464   2.096  16.556  0.5346  0.0254  0.7739
13968TIP3    H163395   1.443   2.108  16.463  0.2131  1.7495  1.0255
13968TIP3    H263396   1.541   2.039  16.556 -0.7651 -1.8442 -0.4245
13969TIP3   OH263397   0.363   6.149  16.690  0.0405  0.5243 -0.1840
13969TIP3    H163398   0.407   6.147  16.605 -0.4826 -0.6184 -0.4532
13969TIP3    H263399   0.332   6.059  16.703 -0.7351  0.9091  0.7693
13970TIP3   OH263400   5.526   2.770  15.009 -0.2680 -0.5427 -0.2473
13970TIP3    H163401   5.618   2.788  14.988  0.0136  0.8719  1.8285
13970TIP3    H263402   5.521   2.782  15.104 -2.7738  0.2572 -0.4097
13971TIP3   OH263403   3.778   4.838  12.099 -0.2710 -0.3401  0.6762
13971TIP3    H163404   3.697   4.805  12.139  0.9639 -0.0543  3.7086
13971TIP3    H263405   3.814   4.897  12.165  2.7730 -1.0415 -0.2383
13972TIP3   OH263406   6.588   0.931  13.639 -0.3679  0.4003  1.0171
13972TIP3    H163407   6.511   0.901  13.591 -1.4098  0.5445  2.5557
13972TIP3    H263408   6.629   0.994  13.580 -0.4227 -0.9562 -0.5475
13973TIP3   OH263409   3.455   6.275   1.816 -0.1617 -0.2111  0.7671
13973TIP3    H163410   3.424   6.252   1.728  1.2484 -1.8058  0.6297
13973TIP3    H263411   3.545   6.304   1.802  0.3726 -1.3262  1.7572
13974TIP3   OH263412   0.408   5.762   3.865 -0.0632 -0.0011 -0.0327
13974TIP3    H163413   0.496   5.727   3.877  0.0190  0.0287 -0.5288
13974TIP3    H263414   0.400   5.830   3.932 -0.0296 -0.5901  0.5843
13975TIP3   OH263415   3.371   3.322  14.436 -0.3194  0.3580  0.3168
13975TIP3    H163416   3.342   3.231  14.444 -3.4966  1.1853 -0.2240
13975TIP3    H263417   3.342   3.349  14.349  2.9157  1.2218 -0.6145
13976TIP3   OH263418   3.152   0.825  15.671 -0.1685  0.1998  0.5455
13976TIP3    H163419   3.190   0.892  15.728 -0.0600  1.7938 -1.2913
13976TIP3    H263420   3.074   0.795  15.717  0.4316  0.7227  1.9592
13977TIP3   OH263421   6.691   4.243   3.315 -0.6286  0.3183  0.3975
13977TIP3    H163422   6.763   4.239   3.378  0.1127  1.4006 -0.3510
13977TIP3    H263423   6.694   4.159   3.269  0.2816  0.4307  0.2476
13978TIP3   OH263424   5.639   5.565   1.698  0.5159 -0.0259 -0.1211
13978TIP3    H163425   5.696   5.495   1.665  0.8948 -0.2155  0.8866
13978TIP3    H263426   5.689   5.645   1.684  0.9730 -0.1721  0.5763
13979TIP3   OH263427   5.814   6.692  11.527 -0.1854  0.1810  0.3606
13979TIP3    H163428   5.890   6.634  11.532  0.6077  1.2900  1.9860
13979TIP3    H263429   5.779   6.695  11.616 -1.8214  0.1436 -0.2394
13980TIP3   OH263430   0.754   2.092   4.549 -0.0568  0.2502 -0.4347
13980TIP3    H163431   0.692   2.121   4.615 -1.1141 -0.9414 -0.8546
13980TIP3    H263432   0.839   2.096   4.593 -0.8326 -1.5421  1.4080
13981TIP3   OH263433   5.731   0.945   2.286  0.3368  0.3507  0.1530
13981TIP3    H163434   5.739   0.923   2.193  1.5932 -2.1374  0.7499
13981TIP3    H263435   5.640   0.927   2.308  0.0777  0.7784 -0.5366
13982TIP3   OH263436   3.693   5.190  12.719  0.3838  0.1241  0.0694
13982TIP3    H163437   3.710   5.098  12.699  0.5240  0.4619 -1.5267
13982TIP3    H263438   3.779   5.231  12.721  0.2506  0.4894 -0.8112
13983TIP3   OH263439   6.346   3.080  12.773 -0.0735  0.5151 -0.5016
13983TIP3    H163440   6.387   3.128  12.845 -0.7088  0.8846 -0.3704
13983TIP3    H263441   6.415   3.023  12.739  0.1313  0.0432  0.6504
13984TIP3   OH263442   0.024   5.001   2.254 -0.1023 -0.4837 -0.3647
13984TIP3    H163443  -0.071   5.010   2.259 -0.1878 -0.8156 -1.1787
13984TIP3    H263444   0.056   5.090   2.246 -0.4573 -0.4520 -1.5674
13985TIP3   OH263445   5.866   3.161   4.088  0.2104  0.4375  0.5227
13985TIP3    H163446   5.777   3.196   4.089 -0.1868 -0.2789 -1.7887
13985TIP3    H263447   5.854   3.066   4.094  0.7638  0.3094 -0.2369
13986TIP3   OH263448   4.869   0.422  13.789 -0.2102  0.2248  0.0333
13986TIP3    H163449   4.895   0.492  13.729  2.6283 -0.5363  0.2353
13986TIP3    H263450   4.891   0.342  13.743 -1.5236 -0.4925  0.6176
13987TIP3   OH263451   0.103   1.410   5.293 -0.0708 -0.4462 -0.0796
13987TIP3    H163452   0.135   1.497   5.315 -0.6023  0.0377 -1.1448
13987TIP3    H263453   0.021   1.401   5.341 -0.4471 -0.0156 -0.6397
13988TIP3   OH263454   0.786   3.581  11.919  0.0058 -0.4432 -0.0180
13988TIP3    H163455   0.812   3.489  11.918 -0.8001 -0.7030  0.6643
13988TIP3    H263456   0.723   3.589  11.848 -0.6759 -0.6815  0.5370
13989TIP3   OH263457   3.399   4.284  16.559  0.0662  0.2095 -0.1820
13989TIP3    H163458   3.435   4.293  16.648  0.8207 -1.4667 -0.2704
13989TIP3    H263459   3.476   4.288  16.502 -0.4018  1.1334 -0.7606
13990TIP3   OH263460   3.508   5.823  17.192  0.4475 -0.3907 -0.2844
13990TIP3    H163461   3.535   5.901  17.144 -1.1766 -1.8434 -4.0005
13990TIP3    H263462   3.492   5.853  17.281  2.5976  2.8288 -0.8112
13991TIP3   OH263463   1.630   3.841  16.775 -0.1617 -0.4001 -0.4514
13991TIP3    H163464   1.587   3.841  16.860  1.6208 -0.5357  0.4931
13991TIP3    H263465   1.679   3.924  16.773 -1.7809  0.5926 -2.2289
13992TIP3   OH263466   5.223   2.394  13.351  0.0181 -0.5407 -0.0627
13992TIP3    H163467   5.293   2.362  13.294  1.9964  0.9350  1.4129
13992TIP3    H263468   5.203   2.319  13.407  0.9056 -0.7863 -0.0521
13993TIP3   OH263469   3.280   1.972  16.503 -0.0231  0.7979  0.3342
13993TIP3    H163470   3.242   1.914  16.437 -1.4677  1.4398  0.5712
13993TIP3    H263471   3.339   1.916  16.553  0.4258  0.0949 -0.9131
13994TIP3   OH263472   2.372   6.658   2.593 -0.1541 -0.0470 -0.8014
13994TIP3    H163473   2.347   6.581   2.642  2.0768  1.5889  3.4430
13994TIP3    H263474   2.443   6.629   2.535  0.8780 -1.2056  0.9690
13995TIP3   OH263475   3.664   2.412   2.137  0.0342 -0.3128 -0.1787
13995TIP3    H163476   3.621   2.481   2.086  1.1537  0.3657 -0.2500
13995TIP3    H263477   3.758   2.428   2.124  0.4010  0.3609  2.6647
13996TIP3   OH263478   5.431   5.304   0.609 -0.1036 -0.1230 -0.4067
13996TIP3    H163479   5.486   5.325   0.533  0.0799 -0.7911 -0.4656
13996TIP3    H263480   5.445   5.210   0.623  1.6150  0.3851  1.8412
13997TIP3   OH263481   3.366   5.743   0.989  0.0183 -0.3701 -0.5294
13997TIP3    H163482   3.330   5.783   1.069  1.7719  1.0691 -0.3995
13997TIP3    H263483   3.326   5.656   0.986 -1.4926  0.2133  0.9168
13998TIP3   OH263484   1.470   5.749  15.847 -0.0767 -0.2835 -0.1721
13998TIP3    H163485   1.552   5.799  15.855 -0.0663 -0.2202 -0.6630
13998TIP3    H263486   1.477   5.682  15.915  0.2494 -0.0864 -0.0079
13999TIP3   OH263487   4.691   6.558  14.206 -0.1905 -0.4770 -0.0840
13999TIP3    H163488   4.607   6.603  14.219 -1.4531 -2.3635 -1.2734
13999TIP3    H263489   4.673   6.467  14.225  1.4757 -1.0278 -0.9134
14000TIP3   OH263490   2.054   5.590  17.153 -0.8255  0.2476  0.1803
14000TIP3    H163491   2.091   5.607  17.067  0.5705  1.3434  0.9553
14000TIP3    H263492   2.044   5.677  17.192  1.3748 -0.3158  2.2336
14001TIP3   OH263493   4.013   1.888   4.140  0.5034  0.3523 -0.6638
14001TIP3    H163494   4.048   1.816   4.193 -0.0422  0.2641 -0.4175
14001TIP3    H263495   3.984   1.953   4.204 -0.4539  0.1057 -0.8372
14002TIP3   OH263496   1.281   0.787   0.510 -0.0499 -0.8695 -0.2242
14002TIP3    H163497   1.296   0.850   0.440 -2.7328 -1.3946 -1.3993
14002TIP3    H263498   1.367   0.753   0.531  1.2720  1.8613 -0.7673
14003TIP3   OH263499   1.651   6.244   0.614 -0.3529 -0.3903  0.0062
14003TIP3    H163500   1.701   6.289   0.682 -0.1448 -0.3467 -0.1746
14003TIP3    H263501   1.610   6.315   0.564  1.1047 -0.3051 -1.1583
14004TIP3   OH263502   0.485   3.117   2.356  0.1134  0.2257 -0.1121
14004TIP3    H163503   0.513   3.176   2.426  0.5536  0.7119 -0.6869
14004TIP3    H263504   0.391   3.132   2.349 -0.2663 -1.0529  1.4945
14005TIP3   OH263505   6.198   2.831   6.042 -0.0295 -0.0857  0.6938
14005TIP3    H163506   6.163   2.848   6.129 -1.1582  0.4406  0.1530
14005TIP3    H263507   6.170   2.741   6.022 -2.8147  0.9292 -0.4803
14006TIP3   OH263508   4.230   0.843  12.456 -0.0372 -0.0533 -0.0350
14006TIP3    H163509   4.157   0.883  12.409 -1.1150  0.0252  1.6173
14006TIP3    H263510   4.238   0.895  12.536  2.0861  0.1494 -0.3214
14007TIP3   OH263511   5.365   0.554  16.902 -0.0535  0.0187 -0.3127
14007TIP3    H163512   5.431   0.499  16.944 -0.8951 -0.6949  0.0952
14007TIP3    H263513   5.384   0.548  16.808  0.1503 -0.5883 -0.2323
14008TIP3   OH263514   1.136   3.249  10.801 -0.5623 -0.1041  0.3441
14008TIP3    H163515   1.081   3.323  10.829  0.9340  1.6220 -1.0221
14008TIP3    H263516   1.096   3.218  10.720  0.1954  0.9200 -0.4560
14009TIP3   OH263517   2.315   4.402   4.211  0.4663  0.1078 -0.4666
14009TIP3    H163518   2.247   4.380   4.148  0.2819  0.2467 -0.3159
14009TIP3    H263519   2.360   4.477   4.172  1.0689 -0.4961 -0.9609
14010TIP3   OH263520   2.523   3.640  16.258 -0.8458  0.1242  0.2476
14010TIP3    H163521   2.499   3.727  16.225 -0.0674  0.3121  0.1564
14010TIP3    H263522   2.535   3.588  16.179 -1.1266 -0.0199  0.2980
14011TIP3   OH263523   5.317   5.830  11.947  0.4546  0.6957 -0.2078
14011TIP3    H163524   5.319   5.824  11.851 -0.1310 -0.3641 -0.1780
14011TIP3    H263525   5.409   5.837  11.972  0.5846  1.4974 -0.8659
14012TIP3   OH263526   6.247   1.458   3.081  0.5364  0.4665 -0.2151
14012TIP3    H163527   6.307   1.487   3.012 -0.2171  0.6437 -0.8104
14012TIP3    H263528   6.204   1.539   3.110 -0.3478  0.1743 -0.6970
14013TIP3   OH263529   5.620   2.154  12.087 -0.0435  0.8708 -0.1995
14013TIP3    H163530   5.595   2.092  12.018  0.5155  1.6576 -1.1389
14013TIP3    H263531   5.573   2.123  12.164 -0.3239 -0.3151 -0.8073
14014TIP3   OH263532   4.108   3.872  11.759 -0.1797  0.0888  0.3290
14014TIP3    H163533   4.088   3.962  11.785  2.5698  0.5635  1.0846
14014TIP3    H263534   4.203   3.865  11.768 -0.2585 -2.7511 -0.2188
14015TIP3   OH263535   2.910   6.220   4.789  0.1976 -0.5167 -0.3832
14015TIP3    H163536   2.954   6.300   4.759 -2.2426  0.4743 -1.5807
14015TIP3    H263537   2.943   6.207   4.878  2.7941  0.1580 -1.1676
14016TIP3   OH263538   3.274   4.989  16.112  0.0461  0.0757  0.4114
14016TIP3    H163539   3.191   4.967  16.153 -0.4624  0.7188 -0.2465
14016TIP3    H263540   3.252   5.057  16.048  1.0039 -0.0564 -0.0802
14017TIP3   OH263541   1.383   2.974  12.911 -0.0563 -0.1735 -0.1095
14017TIP3    H163542   1.435   2.894  12.901 -1.6039 -1.0352 -1.7882
14017TIP3    H263543   1.355   2.973  13.002  1.5477 -0.4822  0.4165
14018TIP3   OH263544   0.140   4.030  13.815  0.3953  0.5391  0.2354
14018TIP3    H163545   0.166   4.105  13.761 -0.0206  1.5531  1.3923
14018TIP3    H263546   0.050   4.012  13.789  0.0764  1.2511  0.8105
14019TIP3   OH263547   1.353   3.528   0.839  0.3644 -0.2593  0.0748
14019TIP3    H163548   1.340   3.578   0.919 -0.1394 -0.9869  0.4579
14019TIP3    H263549   1.426   3.571   0.795  1.4290 -0.5504  1.4976
14020TIP3   OH263550   5.976   6.238  17.023  0.0731 -0.0122 -0.0659
14020TIP3    H163551   6.037   6.167  17.041 -0.1097 -0.0393  0.4696
14020TIP3    H263552   5.989   6.258  16.930  0.2204 -0.6500 -0.1899
14021TIP3   OH263553   6.592   1.160   3.551  0.0472  0.3250  0.1450
14021TIP3    H163554   6.685   1.150   3.570 -0.1440 -2.2111  0.0396
14021TIP3    H263555   6.589   1.225   3.481  1.8219 -0.2361 -0.5120
14022TIP3   OH263556   1.715   4.332  15.167 -0.2264 -0.2758 -0.1613
14022TIP3    H163557   1.628   4.321  15.203  0.4156 -0.1815  1.4975
14022TIP3    H263558   1.714   4.420  15.129 -0.6399 -0.0016  0.4769
14023TIP3   OH263559   6.578   0.804   2.024 -0.8902 -0.3379 -0.3112
14023TIP3    H163560   6.544   0.811   2.113  1.1378  1.1052  0.4246
14023TIP3    H263561   6.562   0.713   1.999 -1.7411 -0.6967  1.4092
14024TIP3   OH263562   0.631   0.603   2.462 -0.1950 -0.2553  0.2512
14024TIP3    H163563   0.668   0.539   2.523 -0.8169  0.6485  1.6604
14024TIP3    H263564   0.621   0.683   2.515 -0.0839  0.8005 -1.2489
14025TIP3   OH263565   2.509   2.111   5.271 -0.5316 -0.1770 -0.0422
14025TIP3    H163566   2.558   2.186   5.303 -1.9513  1.3763 -1.3570
14025TIP3    H263567   2.531   2.105   5.178  0.4474 -2.1446  0.2627
14026TIP3   OH263568   2.163   0.520  11.682  0.2327  0.0923  0.0825
14026TIP3    H163569   2.180   0.483  11.768 -1.6522  0.5423  0.6974
14026TIP3    H263570   2.173   0.446  11.622  1.6680 -0.1985  0.6601
14027TIP3   OH263571   6.656   5.197  16.858  0.1601 -0.9918 -0.1288
14027TIP3    H163572   6.589   5.233  16.800 -0.2351 -3.3070 -1.2042
14027TIP3    H263573   6.734   5.248  16.839 -0.6907  0.1802 -0.5853
14028TIP3   OH263574   4.214   4.325  14.055  0.5123  0.1247  0.4543
14028TIP3    H163575   4.260   4.251  14.095  0.3048 -1.5940 -2.1884
14028TIP3    H263576   4.131   4.329  14.101  1.2008 -0.1942  1.7634
14029TIP3   OH263577   0.667   3.117  14.111  0.6861 -0.2085  0.1661
14029TIP3    H163578   0.687   3.190  14.169  1.3123 -0.5535  0.4010
14029TIP3    H263579   0.699   3.040  14.158 -0.9042 -0.7610  0.3874
14030TIP3   OH263580   1.692   1.103  15.274  0.0011 -0.3248 -0.1314
14030TIP3    H163581   1.604   1.071  15.292  0.4175 -0.4836  1.7680
14030TIP3    H263582   1.749   1.042  15.320  1.1452 -0.4419 -1.6378
14031TIP3   OH263583   6.084   4.989  15.845 -0.3613  0.7463  0.1692
14031TIP3    H163584   6.118   4.910  15.887  0.9820  1.9102  1.3985
14031TIP3    H263585   6.115   5.060  15.901 -1.4013  2.1550 -0.9870
14032TIP3   OH263586   0.484   1.005   2.021  0.1131 -0.2307 -0.1623
14032TIP3    H163587   0.437   0.933   2.064 -2.9133  0.5455 -1.8289
14032TIP3    H263588   0.576   0.990   2.042 -0.4991 -3.7843  0.6786
14033TIP3   OH263589   4.136   6.036   1.848  0.6060  0.6461 -0.7625
14033TIP3    H163590   4.134   5.985   1.766 -2.0801 -0.7192  0.0556
14033TIP3    H263591   4.203   5.993   1.901  0.2113 -0.4121 -1.0979
14034TIP3   OH263592   5.677   5.839   1.002  0.7951  0.0538  0.4224
14034TIP3    H163593   5.627   5.852   0.921 -0.8239 -1.4668  1.1317
14034TIP3    H263594   5.641   5.904   1.062  0.5223 -0.2152  0.5528
14035TIP3   OH263595   1.849   0.150   1.734 -0.1473  0.0626 -0.0003
14035TIP3    H163596   1.900   0.230   1.742  1.2115 -0.5891 -1.6343
14035TIP3    H263597   1.878   0.110   1.652 -1.6009 -1.5430  0.1951
14036TIP3   OH263598   0.762   1.573  14.902  0.1095 -0.8963 -0.1950
14036TIP3    H163599   0.727   1.525  14.827  0.2537 -1.8895  0.3644
14036TIP3    H263600   0.837   1.521  14.931 -0.6146 -1.1400  1.3288
14037TIP3   OH263601   2.779   5.045  14.308 -0.4445 -0.3092  0.1124
14037TIP3    H163602   2.811   5.101  14.238 -2.5664  0.7683 -0.0680
14037TIP3    H263603   2.825   4.962  14.295  0.9707  0.6075 -1.0751
14038TIP3   OH263604   6.235   5.321   4.772  0.1501  0.1601  0.1702
14038TIP3    H163605   6.212   5.229   4.762 -2.2331  0.6172  0.9593
14038TIP3    H263606   6.323   5.328   4.735 -0.4377 -2.0024 -1.8251
14039TIP3   OH263607   0.974   6.366   3.162 -0.2356  0.1340  0.4860
14039TIP3    H163608   1.048   6.314   3.130  1.4817  2.6825  0.0311
14039TIP3    H263609   0.937   6.313   3.233  0.4443 -2.3196 -0.8598
14040TIP3   OH263610   2.241   3.879  15.530  0.2231 -0.0727 -0.2508
14040TIP3    H163611   2.191   3.839  15.601  0.9178 -2.5879 -1.0754
14040TIP3    H263612   2.288   3.951  15.571 -2.3732  1.0900  0.9719
14041TIP3   OH263613   3.033   4.025   5.240  1.0223  0.3955 -0.1443
14041TIP3    H163614   2.985   4.106   5.255 -0.1098 -0.2954  0.0549
14041TIP3    H263615   2.973   3.955   5.269  1.8440 -0.5291 -0.6099
14042TIP3   OH263616   2.222   2.348  15.383  0.4590 -0.6393 -0.2423
14042TIP3    H163617   2.313   2.363  15.355  0.3476 -1.8497 -1.2958
14042TIP3    H263618   2.195   2.433  15.419  2.1496 -0.3828  0.5359
14043TIP3   OH263619   1.699   5.649  14.253  0.4645  0.0152  0.2421
14043TIP3    H163620   1.780   5.658  14.203  1.1594 -0.3994  1.2716
14043TIP3    H263621   1.663   5.738  14.257  2.0974  0.6587  1.7726
14044TIP3   OH263622   0.848   2.408  17.281  0.3852 -0.0942 -0.3334
14044TIP3    H163623   0.915   2.380  17.343 -0.2049  0.3124  0.5149
14044TIP3    H263624   0.851   2.503  17.284 -0.6802 -0.0626  0.2398
14045TIP3   OH263625   1.502   0.695  15.829  0.0952 -0.4360 -0.2266
14045TIP3    H163626   1.411   0.726  15.823 -0.3921 -1.1280  2.1860
14045TIP3    H263627   1.510   0.630  15.759 -1.0891  0.0399 -0.8326
14046TIP3   OH263628   0.996   3.300  15.923  0.0304  0.5293  0.2781
14046TIP3    H163629   0.950   3.218  15.939 -1.2282  1.3817  1.1382
14046TIP3    H263630   1.083   3.287  15.960 -0.6104  0.0529  1.6525
14047TIP3   OH263631   1.075   4.785   1.817  0.0976 -0.4277  0.0096
14047TIP3    H163632   1.147   4.725   1.799  0.2112  0.4516 -2.9309
14047TIP3    H263633   1.110   4.847   1.880  0.5982 -2.2182  1.5994
14048TIP3   OH263634   4.590   2.359  16.719  0.2975  0.0700 -0.4842
14048TIP3    H163635   4.598   2.386  16.627 -1.6719  0.6519 -0.5386
14048TIP3    H263636   4.563   2.438  16.765 -1.7410 -0.8465  0.0372
14049TIP3   OH263637   2.084   0.268   0.332 -0.3123 -0.0372  0.2027
14049TIP3    H163638   1.992   0.268   0.356 -0.4373 -1.1043 -0.2499
14049TIP3    H263639   2.130   0.253   0.415 -0.5885 -0.4189  0.2884
14050TIP3   OH263640   0.662   3.713  11.637  0.0533  0.1402 -0.6243
14050TIP3    H163641   0.566   3.704  11.642  0.2490 -1.6384  0.9881
14050TIP3    H263642   0.685   3.677  11.552 -0.5800 -0.9579 -0.3435
14051TIP3   OH263643   4.185   1.211   3.819  0.8565  0.6733 -0.1392
14051TIP3    H163644   4.142   1.263   3.887  0.2129  0.0692 -0.0723
14051TIP3    H263645   4.201   1.273   3.748 -2.5355  0.4270 -1.2675
14052TIP3   OH263646   5.208   2.137  13.538 -0.1637  0.2866  0.1448
14052TIP3    H163647   5.282   2.101  13.489 -0.0978  0.7932 -0.1370
14052TIP3    H263648   5.178   2.065  13.593 -0.1699 -0.2605 -0.5558
14053TIP3   OH263649   6.505   1.093   5.469  0.1155  0.4184 -0.0016
14053TIP3    H163650   6.564   1.076   5.395 -1.0693  0.5183 -0.9943
14053TIP3    H263651   6.563   1.120   5.540  1.1592  2.1170 -1.4141
14054TIP3   OH263652   3.132   1.048  16.838 -0.3530  0.5412  1.1798
14054TIP3    H163653   3.151   0.956  16.856  1.3346  0.6316  0.1274
14054TIP3    H263654   3.073   1.075  16.908  0.0855 -1.0178  2.1931
14055TIP3   OH263655   5.632   4.653  14.477  0.3283  0.3744 -0.5413
14055TIP3    H163656   5.687   4.691  14.408 -1.5625  0.0713 -2.3323
14055TIP3    H263657   5.542   4.665  14.444 -0.6224 -0.2171  1.6860
14056TIP3   OH263658   1.130   5.906   2.840 -0.0840 -0.1437 -0.2978
14056TIP3    H163659   1.143   5.970   2.771 -1.0338  1.6108  1.0652
14056TIP3    H263660   1.157   5.823   2.801  2.2875  1.2131 -1.7666
14057TIP3   OH263661   3.086   6.409  12.998  0.0221 -0.0407 -0.1699
14057TIP3    H163662   3.108   6.502  12.989 -1.8733  0.3951 -0.7564
14057TIP3    H263663   3.075   6.378  12.909 -1.6103 -0.2233  0.0728
14058TIP3   OH263664   3.423   5.113  16.990 -0.1018 -0.1374  0.0859
14058TIP3    H163665   3.417   5.191  16.936  0.6378 -0.0974  0.0593
14058TIP3    H263666   3.332   5.084  17.000 -0.2711 -0.0122 -0.9672
14059TIP3   OH263667   3.398   0.831   4.644  0.0511  0.3774 -0.6251
14059TIP3    H163668   3.403   0.823   4.548  0.8441 -1.2671 -0.4851
14059TIP3    H263669   3.304   0.825   4.663 -0.0834  0.3314 -1.2754
14060TIP3   OH263670   5.602   1.657  12.367 -0.3915  0.0241 -0.4503
14060TIP3    H163671   5.604   1.749  12.395  0.6315  0.0997 -0.6964
14060TIP3    H263672   5.513   1.643  12.335 -0.2635  1.2618 -1.4392
14061TIP3   OH263673   4.051   4.810  14.169  0.6353  0.2608  0.3564
14061TIP3    H163674   4.119   4.750  14.138  1.3431  0.9133  0.5908
14061TIP3    H263675   4.073   4.894  14.129  0.3166  0.6160  0.9059
14062TIP3   OH263676   0.960   3.194   3.533 -0.3983  0.0477 -0.0756
14062TIP3    H163677   1.005   3.139   3.469 -1.5502 -0.4683 -0.4623
14062TIP3    H263678   1.014   3.273   3.539 -0.0342 -0.0881 -1.3557
14063TIP3   OH263679   1.464   5.143  15.069 -0.0920 -0.8392 -0.8124
14063TIP3    H163680   1.441   5.183  14.985  0.0986  2.8239  0.6802
14063TIP3    H263681   1.396   5.173  15.129  0.5480 -2.1547  0.6332
14064TIP3   OH263682   2.408   0.098  14.778  0.7974  0.1122  0.0639
14064TIP3    H163683   2.360   0.106  14.695 -0.4401 -0.5458  0.6881
14064TIP3    H263684   2.492   0.060  14.753  0.1826 -0.7300 -0.8156
14065TIP3   OH263685   0.999   6.563  15.031 -0.0589 -0.3448 -0.1915
14065TIP3    H163686   1.027   6.553  15.121 -0.4651 -1.0640 -0.1394
14065TIP3    H263687   1.001   6.474  14.994  0.7486  0.0234 -1.0861
14066TIP3   OH263688   2.032   4.543  16.644  0.4876 -0.2456 -0.3809
14066TIP3    H163689   2.096   4.583  16.585  0.8196  1.2770  0.9282
14066TIP3    H263690   1.989   4.617  16.686 -0.6592 -1.2727  0.3244
14067TIP3   OH263691   0.078   1.913   4.098 -0.2614 -0.0916  0.6452
14067TIP3    H163692   0.118   1.961   4.170  0.7338 -0.2074  0.1781
14067TIP3    H263693  -0.015   1.909   4.121  0.1572 -0.8835  2.3504
14068TIP3   OH263694   1.296   0.570   4.003 -0.5465 -0.3218  0.8986
14068TIP3    H163695   1.358   0.577   3.930  1.5674 -1.0643  2.4882
14068TIP3    H263696   1.251   0.487   3.988 -0.0192 -0.5414  0.4863
14069TIP3   OH263697   6.061   3.959  12.200 -0.2273 -0.1683  0.9048
14069TIP3    H163698   6.125   4.030  12.210 -1.7842  1.2857  0.8384
14069TIP3    H263699   6.109   3.880  12.227  2.3160  0.4775 -1.2762
14070TIP3   OH263700   0.287   4.488  14.462 -0.1602  0.0889  0.1522
14070TIP3    H163701   0.353   4.513  14.398 -0.5483 -0.5501 -0.5008
14070TIP3    H263702   0.261   4.399  14.438  0.4486 -0.5841  1.8181
14071TIP3   OH263703   4.444   4.012  12.897  0.1085  0.2447 -0.0235
14071TIP3    H163704   4.482   3.927  12.921 -0.2358  0.2717  0.6379
14071TIP3    H263705   4.480   4.073  12.960 -0.4450  0.4080  0.1365
14072TIP3   OH263706   6.344   5.884   5.834 -0.9401  0.1611 -0.7951
14072TIP3    H163707   6.384   5.971   5.838 -1.0886  0.2015 -0.0491
14072TIP3    H263708   6.414   5.825   5.861 -1.1698  0.1673 -0.1638
14073TIP3   OH263709   2.023   2.473   3.861  0.1273 -0.3301  0.3331
14073TIP3    H163710   2.057   2.389   3.893 -1.3305 -1.6527 -1.4084
14073TIP3    H263711   1.948   2.491   3.917  1.4068  0.7584  1.8135
14074TIP3   OH263712   5.892   0.026   1.636 -0.3431 -0.6540  0.1926
14074TIP3    H163713   5.888  -0.065   1.606 -0.3784 -0.8764  0.8459
14074TIP3    H263714   5.818   0.068   1.593  0.2817 -0.6702 -0.9347
14075TIP3   OH263715   3.964   2.520   1.306 -0.1638 -0.2072  0.3775
14075TIP3    H163716   3.896   2.454   1.320 -1.0985  0.9454  1.4075
14075TIP3    H263717   4.044   2.478   1.336 -0.1988 -1.8949 -1.6007
14076TIP3   OH263718   4.575   2.847  17.030 -0.3792  0.5175  0.1008
14076TIP3    H163719   4.487   2.866  17.064 -0.0030  0.6177  1.0421
14076TIP3    H263720   4.632   2.854  17.106  0.1712 -1.7375 -0.0250
14077TIP3   OH263721   1.236   4.250   2.017 -0.4385 -0.1587 -0.6735
14077TIP3    H163722   1.253   4.307   2.092 -1.1226 -0.2486 -0.4453
14077TIP3    H263723   1.313   4.194   2.011 -0.6460 -0.5849  0.3652
14078TIP3   OH263724   2.082   5.721  14.608 -0.3768  0.6044 -0.2340
14078TIP3    H163725   2.095   5.809  14.644  0.6600  0.3497  0.0739
14078TIP3    H263726   2.045   5.735  14.521  0.3875  1.3823 -0.4452
14079TIP3   OH263727   4.213   3.529   3.250  0.2838  0.2658  0.2315
14079TIP3    H163728   4.286   3.589   3.265  1.2002 -0.6143 -0.5662
14079TIP3    H263729   4.226   3.459   3.314  0.5478 -0.2372 -0.3567
14080TIP3   OH263730   1.022   6.378   2.161 -0.1895  0.5106 -0.6289
14080TIP3    H163731   1.072   6.424   2.093  0.2640  0.7154 -0.1594
14080TIP3    H263732   1.020   6.438   2.235  0.6196 -0.3076  0.0853
14081TIP3   OH263733   1.175   5.255  10.347  0.1539  0.3546 -0.6892
14081TIP3    H163734   1.116   5.216  10.283 -1.0575  2.1170 -0.7150
14081TIP3    H263735   1.119   5.278  10.421  1.7739 -3.2435  1.9350
14082TIP3   OH263736   1.259   4.253  17.298  0.1622 -0.4222  0.4833
14082TIP3    H163737   1.204   4.272  17.374  0.9308 -1.5976  1.3426
14082TIP3    H263738   1.233   4.165  17.271 -1.3885  0.6164 -1.7670
14083TIP3   OH263739   5.423   4.740  12.476 -0.0741 -0.3017 -0.1364
14083TIP3    H163740   5.511   4.732  12.439  0.6855 -0.0944  1.5243
14083TIP3    H263741   5.437   4.785  12.560 -1.7431 -0.4601  0.2501
14084TIP3   OH263742   4.899   6.208  17.225 -0.1894  0.1655 -0.0940
14084TIP3    H163743   4.879   6.129  17.275 -2.6817 -0.0516 -1.2563
14084TIP3    H263744   4.972   6.249  17.272 -0.3263 -1.6361  1.8393
14085TIP3   OH263745   2.217   6.571  14.926 -0.0428  0.0750  0.1646
14085TIP3    H163746   2.173   6.633  14.984  0.3933  0.1164  0.4593
14085TIP3    H263747   2.309   6.573  14.955 -0.0676 -0.8795  0.3365
14086TIP3   OH263748   3.797   3.665   2.907 -0.8204 -0.8018  0.1692
14086TIP3    H163749   3.817   3.655   2.814  0.6877 -1.0341  0.4914
14086TIP3    H263750   3.871   3.624   2.952 -1.7090 -1.0218  1.4735
14087TIP3   OH263751   2.840   5.590   2.375 -0.6910  0.4391 -0.1699
14087TIP3    H163752   2.794   5.643   2.310 -0.3115  0.8404 -0.1185
14087TIP3    H263753   2.933   5.606   2.357 -0.5842  0.6830  0.5732
14088TIP3   OH263754   4.816   1.121  11.609 -0.0007  0.3720 -0.2662
14088TIP3    H163755   4.904   1.087  11.629 -0.5402 -0.3815  0.9740
14088TIP3    H263756   4.768   1.044  11.577 -0.4437  0.5897 -0.1261
14089TIP3   OH263757   2.505   0.986  12.337 -0.2367  0.3951  0.2273
14089TIP3    H163758   2.450   0.976  12.259  2.1722  1.5317 -1.7867
14089TIP3    H263759   2.493   0.905  12.386 -1.1685 -0.7836 -1.8108
14090TIP3   OH263760   0.692   1.503  12.962  0.4235 -1.0012  0.7009
14090TIP3    H163761   0.757   1.533  12.899 -0.7200  1.5498  0.6067
14090TIP3    H263762   0.742   1.458  13.029  2.1735 -0.0616  0.0836
14091TIP3   OH263763   3.211   3.046   1.180 -0.0399  0.0998  0.8384
14091TIP3    H163764   3.240   3.047   1.271  1.4274 -1.5849  0.4426
14091TIP3    H263765   3.172   2.959   1.168  0.4985  0.0034 -0.3303
14092TIP3   OH263766   6.033   6.087   6.740  0.2147  0.4057  0.0883
14092TIP3    H163767   6.111   6.045   6.704 -1.6153 -2.8854 -0.3667
14092TIP3    H263768   6.008   6.032   6.814 -0.0959  3.1058  2.1597
14093TIP3   OH263769   2.081   0.711   4.246  0.1164 -0.0108 -0.2039
14093TIP3    H163770   2.175   0.705   4.257 -0.2037 -3.1642  2.1815
14093TIP3    H263771   2.064   0.671   4.160  0.9160  0.0993 -0.4166
14094TIP3   OH263772   1.098   1.896   1.614 -0.1156  0.3471  0.3880
14094TIP3    H163773   1.124   1.810   1.580  0.0966  1.0686 -1.3911
14094TIP3    H263774   1.180   1.938   1.639  0.0115  0.8319 -0.7863
14095TIP3   OH263775   1.792   5.241  13.090  0.0232  0.2335 -0.7516
14095TIP3    H163776   1.734   5.295  13.145  1.1450 -0.3818  1.1534
14095TIP3    H263777   1.879   5.258  13.125  0.5710 -1.6610 -1.0878
14096TIP3   OH263778   4.424   0.008  14.472  0.6929 -0.0065  0.2754
14096TIP3    H163779   4.438   0.066  14.397 -4.4484  0.1986 -0.8914
14096TIP3    H263780   4.452   0.060  14.547 -0.6033  2.7455 -0.9905
14097TIP3   OH263781   0.678   1.429  11.405  0.9976  0.1898  0.2685
14097TIP3    H163782   0.585   1.414  11.387  1.0732 -0.6325  0.5155
14097TIP3    H263783   0.710   1.477  11.328  0.3475  0.5860  0.2401
14098TIP3   OH263784   0.334   2.329  15.736  0.0038 -0.1847 -0.3208
14098TIP3    H163785   0.393   2.398  15.707  1.2235 -0.4704  1.3585
14098TIP3    H263786   0.349   2.322  15.830 -4.6791  1.5880  0.8363
14099TIP3   OH263787   3.746   0.811  15.191  0.3220  1.0539 -0.1954
14099TIP3    H163788   3.753   0.843  15.281 -0.9205 -1.2776  0.7945
14099TIP3    H263789   3.654   0.824  15.168  0.2249 -0.0430 -0.4523
14100TIP3   OH263790   6.267   5.203  13.381  0.7025  0.3462 -0.4442
14100TIP3    H163791   6.335   5.182  13.317  0.6928  0.8423 -0.6270
14100TIP3    H263792   6.219   5.277  13.341  0.0590  0.0031 -0.3217
14101TIP3   OH263793   3.809   4.324  10.353  0.0363 -0.4876 -0.1032
14101TIP3    H163794   3.884   4.380  10.374  1.1674 -1.6834 -0.8051
14101TIP3    H263795   3.767   4.307  10.437 -0.6932  1.8453  0.0721
14102TIP3   OH263796   0.141   0.567  12.657 -0.0594  0.1933 -0.5182
14102TIP3    H163797   0.166   0.579  12.749 -0.8808  1.4414 -0.4320
14102TIP3    H263798   0.068   0.628  12.645 -0.7639 -0.8576 -1.6679
14103TIP3   OH263799   1.715   6.174  14.490 -0.1292  0.4749  0.6186
14103TIP3    H163800   1.737   6.225  14.568  1.8143 -0.1769  0.5356
14103TIP3    H263801   1.747   6.226  14.417 -1.8871  1.0534  0.1986
14104TIP3   OH263802   1.159   2.270  15.037 -0.2265 -0.3148  0.1331
14104TIP3    H163803   1.253   2.266  15.017 -0.9756 -1.4905 -4.1781
14104TIP3    H263804   1.126   2.339  14.980 -2.0445  0.2258  1.7293
14105TIP3   OH263805   5.119   3.515   6.209 -0.1916 -0.1552  0.1535
14105TIP3    H163806   5.102   3.597   6.256 -2.0562  0.6269 -1.7214
14105TIP3    H263807   5.068   3.523   6.128  0.6503 -2.6210 -0.7046
14106TIP3   OH263808   5.993   6.644   3.349  0.2342  0.0666  0.4774
14106TIP3    H163809   5.984   6.549   3.346  0.1695  0.0982 -1.9328
14106TIP3    H263810   6.086   6.658   3.368  0.5732 -0.5203 -0.6463
14107TIP3   OH263811   6.182   1.747   2.449  0.4245 -0.3140  0.0887
14107TIP3    H163812   6.253   1.684   2.440  0.4723 -0.3969  1.0285
14107TIP3    H263813   6.109   1.708   2.401  0.9410 -0.3165 -0.7192
14108TIP3   OH263814   1.709   3.172  13.814  0.0898 -0.0045 -0.0402
14108TIP3    H163815   1.793   3.141  13.780 -0.3121  0.0756 -1.1625
14108TIP3    H263816   1.700   3.130  13.899  1.4402  0.2969  0.2708
14109TIP3   OH263817   0.354   4.992   2.604 -0.2316  0.0552 -0.2807
14109TIP3    H163818   0.280   4.953   2.650  0.1205  1.0698  1.2066
14109TIP3    H263819   0.422   5.003   2.671  1.7263 -1.8517 -1.7975
14110TIP3   OH263820   2.699   0.900   3.210  1.5115 -0.1144  0.1531
14110TIP3    H163821   2.688   0.810   3.239  1.2695  0.0896  0.7129
14110TIP3    H263822   2.625   0.916   3.153  0.9269  0.0710  0.9387
14111TIP3   OH263823   2.988   6.200   0.115 -0.0640  0.1701  0.0805
14111TIP3    H163824   3.007   6.238   0.200  3.5235  0.6777 -0.7717
14111TIP3    H263825   2.991   6.105   0.129 -2.0897  0.1875  0.9202
14112TIP3   OH263826   1.905   6.327  15.801 -0.3039 -1.1439 -0.3316
14112TIP3    H163827   1.875   6.402  15.853 -1.0048 -2.2706  0.9626
14112TIP3    H263828   1.996   6.314  15.828  0.0313 -0.3900 -1.0431
14113TIP3   OH263829   4.581   3.358  15.576  0.0759  0.5142  0.1208
14113TIP3    H163830   4.513   3.381  15.639 -0.3711 -0.1515 -0.1101
14113TIP3    H263831   4.540   3.294  15.518  1.0137 -0.2030  0.2181
14114TIP3   OH263832   6.123   0.428  16.894  0.1012 -0.3745  0.1220
14114TIP3    H163833   6.183   0.383  16.954  0.3166 -1.6730 -0.9987
14114TIP3    H263834   6.047   0.450  16.947  0.5823 -0.8547  1.0285
14115TIP3   OH263835   0.513   2.087  13.710  0.1400 -0.2095  0.2524
14115TIP3    H163836   0.577   2.157  13.725  0.6331 -0.9548  1.8496
14115TIP3    H263837   0.471   2.074  13.795 -0.0673 -1.7200 -0.0522
14116TIP3   OH263838   0.733   1.485   4.437 -0.3666  0.1523  0.5498
14116TIP3    H163839   0.719   1.430   4.514 -0.6059  1.1854  1.2788
14116TIP3    H263840   0.744   1.573   4.473 -2.1603  0.9481 -0.7106
14117TIP3   OH263841   1.016   2.652  16.341  0.4158  0.5463 -0.0242
14117TIP3    H163842   1.077   2.655  16.415  1.8713  1.4528 -1.1988
14117TIP3    H263843   0.944   2.710  16.366  0.4722  0.1801  1.0155
14118TIP3   OH263844   2.863   6.356   3.430  0.1653 -0.2456 -0.2252
14118TIP3    H163845   2.935   6.311   3.474 -0.8396  0.7689  2.7257
14118TIP3    H263846   2.792   6.292   3.428 -0.2479  0.1313  1.0781
14119TIP3   OH263847   2.574   4.447  12.539  0.4867  0.2118 -0.6758
14119TIP3    H163848   2.531   4.433  12.455  0.8909  0.4361 -0.9290
14119TIP3    H263849   2.651   4.501  12.517 -0.3490  1.7716  0.0641
14120TIP3   OH263850   5.333   3.368   3.616 -0.1818 -0.0689 -0.4022
14120TIP3    H163851   5.305   3.286   3.575  0.3925 -0.1039 -0.7404
14120TIP3    H263852   5.383   3.413   3.548 -1.0158  0.8507 -0.4186
14121TIP3   OH263853   3.508   1.445  15.074  0.0713 -0.3491 -0.4875
14121TIP3    H163854   3.556   1.366  15.097  0.3479 -0.1075 -0.2391
14121TIP3    H263855   3.558   1.517  15.112 -0.8197 -0.1349  0.3229
14122TIP3   OH263856   6.095   3.314  12.068  0.0865 -0.5568  0.7793
14122TIP3    H163857   6.145   3.240  12.032 -1.8192 -1.0357 -1.0264
14122TIP3    H263858   6.004   3.291  12.053 -0.6064  1.5793  1.4176
14123TIP3   OH263859   0.749   1.758  16.459  0.8421  0.1347  0.7545
14123TIP3    H163860   0.765   1.706  16.538  1.2252  1.5373  1.6299
14123TIP3    H263861   0.690   1.828  16.488 -0.0635 -0.0761 -0.5181
14124TIP3   OH263862   5.474   4.399  16.126 -0.0948  0.2296 -0.3552
14124TIP3    H163863   5.495   4.482  16.082 -1.1947  1.1817  0.8303
14124TIP3    H263864   5.559   4.360  16.145  0.4978  1.6872  0.1519
14125TIP3   OH263865   5.955   0.151  16.720  0.1708  0.1422  0.2122
14125TIP3    H163866   6.035   0.100  16.709  0.1538  0.0056  0.7039
14125TIP3    H263867   5.885   0.090  16.694  0.1984  0.1324  0.1610
14126TIP3   OH263868   5.061   3.834  14.769  0.3050 -0.0762  0.3759
14126TIP3    H163869   4.993   3.804  14.829  0.4476  1.6438  1.4626
14126TIP3    H263870   5.013   3.865  14.692 -0.3947  2.6500  1.7708
14127TIP3   OH263871   3.840   6.312  17.125  0.1295  0.0268 -0.0301
14127TIP3    H163872   3.829   6.233  17.073  0.1627 -0.3551  0.5286
14127TIP3    H263873   3.923   6.349  17.095  1.6109 -1.7034  1.6498
14128TIP3   OH263874   0.906   3.631   1.155 -0.0233 -0.3821  0.0182
14128TIP3    H163875   0.954   3.676   1.085 -0.5942 -1.7458 -1.3030
14128TIP3    H263876   0.895   3.698   1.222  1.5172  0.6719 -0.7024
14129TIP3   OH263877   0.145   5.684  12.170  0.1299 -0.1680 -0.2186
14129TIP3    H163878   0.060   5.724  12.150  0.5191  0.2464 -1.0839
14129TIP3    H263879   0.165   5.715  12.259 -0.5837 -0.2058 -0.0385
14130TIP3   OH263880   4.501   4.137   0.538 -0.0329  0.2234  0.2267
14130TIP3    H163881   4.426   4.085   0.509 -1.7593  2.6784 -0.0279
14130TIP3    H263882   4.542   4.167   0.457  1.9871 -1.9373  0.3307
14131TIP3   OH263883   2.793   1.059   2.991  0.0057 -0.6085  0.3095
14131TIP3    H163884   2.887   1.046   2.977 -0.0138  0.1205 -0.5874
14131TIP3    H263885   2.774   1.011   3.072  1.3633  0.1370  1.1231
14132TIP3   OH263886   6.344   3.456   3.003 -0.0318  0.2882 -0.0237
14132TIP3    H163887   6.435   3.426   2.992 -0.1201  0.5606 -1.7924
14132TIP3    H263888   6.292   3.376   3.001  0.0997  0.1980  0.1279
14133TIP3   OH263889   0.948   6.528  10.957  0.4158 -0.1677 -0.5815
14133TIP3    H163890   0.904   6.547  10.874 -0.3977  0.2676 -0.0657
14133TIP3    H263891   0.885   6.478  11.008 -0.4223  2.2674  1.0115
14134TIP3   OH263892   1.298   5.751  12.572  0.0592 -0.6727 -0.4087
14134TIP3    H163893   1.334   5.839  12.559  0.3051 -0.9708 -2.0437
14134TIP3    H263894   1.210   5.756  12.534 -1.4269 -0.1792  2.8016
14135TIP3   OH263895   6.212   1.963  14.664 -0.5063 -0.6957  0.1359
14135TIP3    H163896   6.288   2.015  14.690  0.5861 -1.8452 -0.6287
14135TIP3    H263897   6.146   2.028  14.639 -0.0946  0.3443  1.6035
14136TIP3   OH263898   4.278   3.095   1.296  0.3119  0.1199 -0.1887
14136TIP3    H163899   4.196   3.080   1.248  0.1864  1.6891 -0.5304
14136TIP3    H263900   4.323   3.010   1.294 -2.6508 -1.7522  2.7058
14137TIP3   OH263901   1.214   4.171  16.766 -0.0544 -0.4628  0.2321
14137TIP3    H163902   1.133   4.178  16.817  0.4373  0.3253  0.9413
14137TIP3    H263903   1.279   4.139  16.829  0.5516  0.4639  0.0875
14138TIP3   OH263904   0.694   3.965  15.711  0.8163  0.3561  0.3517
14138TIP3    H163905   0.684   4.053  15.745  1.5146  0.0717  1.3394
14138TIP3    H263906   0.762   3.972  15.645  0.1132  0.7395 -0.3509
14139TIP3   OH263907   5.212   4.591  11.827 -0.0183  1.2415  1.2220
14139TIP3    H163908   5.204   4.551  11.740  2.4606 -0.4270  1.6572
14139TIP3    H263909   5.241   4.680  11.810  4.1851 -0.0872  0.1979
14140TIP3   OH263910   1.898   3.068   5.496 -0.3830 -0.3743  0.0892
14140TIP3    H163911   1.842   3.011   5.443 -0.4553 -0.1967 -0.0286
14140TIP3    H263912   1.987   3.041   5.474 -0.4065 -0.1265 -0.3245
14141TIP3   OH263913   0.956   4.559   5.572  0.0239  0.0131  0.1928
14141TIP3    H163914   0.897   4.508   5.517  1.9873 -1.2942 -0.8323
14141TIP3    H263915   0.943   4.525   5.661  0.6320 -1.6750 -0.3353
14142TIP3   OH263916   1.335   3.739   5.045 -0.1601 -0.0368  0.0792
14142TIP3    H163917   1.332   3.764   4.953 -0.6940  1.8314  0.5558
14142TIP3    H263918   1.425   3.756   5.072 -0.2182  0.2421  0.1017
14143TIP3   OH263919   5.021   0.773  16.878 -0.1660 -0.4981  0.1956
14143TIP3    H163920   5.074   0.777  16.799 -0.0411 -0.0590  0.2993
14143TIP3    H263921   4.943   0.825  16.858 -1.5927 -2.8156 -0.7065
14144TIP3   OH263922   4.109   0.281   0.394  0.7509  0.1069 -0.0554
14144TIP3    H163923   4.082   0.197   0.355  0.1725  0.3492 -0.1892
14144TIP3    H263924   4.055   0.346   0.349 -1.7549  0.1957  2.7927
14145TIP3   OH263925   1.281   5.187  12.848 -0.0581 -0.1106  0.0356
14145TIP3    H163926   1.267   5.145  12.764 -0.3275 -0.9166  0.4706
14145TIP3    H263927   1.307   5.115  12.906 -0.3451  0.3571  0.7532
14146TIP3   OH263928   2.952   6.400   4.256 -0.0931  0.4469 -0.4953
14146TIP3    H163929   2.958   6.354   4.172  0.2450 -2.0636  0.8322
14146TIP3    H263930   3.004   6.348   4.316 -0.9488  1.7629  1.4979
14147TIP3   OH263931   1.971   5.203  15.727  0.3462 -0.4707  0.0965
14147TIP3    H163932   1.904   5.168  15.787  0.6958  0.9654  1.3787
14147TIP3    H263933   1.936   5.286  15.697 -0.1460 -1.4876 -2.3489
14148TIP3   OH263934   0.000   0.871   1.920 -0.0463 -0.3697 -0.0135
14148TIP3    H163935   0.031   0.780   1.925  0.4972 -0.1480  0.8690
14148TIP3    H263936  -0.095   0.865   1.928  0.0343 -0.8178  0.6419
14149TIP3   OH263937   5.513   0.952   4.947 -0.5148  0.1707  0.4350
14149TIP3    H163938   5.510   0.941   5.042 -1.5767  0.1857  0.4075
14149TIP3    H263939   5.477   1.040   4.932  0.8124  0.6777  0.0969
14150TIP3   OH263940   1.370   2.069  13.736 -0.5752  0.2080 -0.8282
14150TIP3    H163941   1.329   2.156  13.733 -0.5538  0.2033 -1.5827
14150TIP3    H263942   1.423   2.066  13.656  0.1157 -0.1675 -0.3614
14151TIP3   OH263943   1.359   0.725  13.236 -0.4042  0.1283  0.8485
14151TIP3    H163944   1.338   0.769  13.154 -0.0092 -0.6040  0.3400
14151TIP3    H263945   1.403   0.792  13.289  1.0567  0.1261 -0.2817
14152TIP3   OH263946   6.291   5.279  11.642  0.0022  0.2493 -0.1606
14152TIP3    H163947   6.379   5.251  11.666 -0.5051 -0.9324  0.3766
14152TIP3    H263948   6.249   5.200  11.607 -0.8768  0.7779 -0.3245
14153TIP3   OH263949   1.673   4.586   0.987 -0.4857  0.3631 -0.0750
14153TIP3    H163950   1.723   4.532   0.926 -2.2216 -0.1680 -1.1127
14153TIP3    H263951   1.678   4.675   0.950  1.0248  0.6485  0.7462
14154TIP3   OH263952   5.312   6.006  15.652 -0.6506 -0.0661 -0.0424
14154TIP3    H163953   5.403   6.018  15.681 -0.2168 -1.1604 -0.8872
14154TIP3    H263954   5.268   5.968  15.727  0.1124 -1.5113 -0.2997
14155TIP3   OH263955   1.355   1.908  13.159 -0.5537 -0.3240 -0.4526
14155TIP3    H163956   1.390   1.976  13.102 -0.0142 -1.4025 -1.4466
14155TIP3    H263957   1.426   1.887  13.219 -0.3792 -0.7006 -0.7889
14156TIP3   OH263958   0.716   0.568   1.502  0.2384  0.3098  0.2319
14156TIP3    H163959   0.716   0.535   1.413 -1.9203 -0.6272  0.5336
14156TIP3    H263960   0.627   0.599   1.517  0.2904 -0.4024  2.3593
14157TIP3   OH263961   5.362   5.978  16.442 -0.4604  0.1334  0.6009
14157TIP3    H163962   5.288   6.039  16.434  0.3109  1.0951  0.6286
14157TIP3    H263963   5.331   5.911  16.502 -2.1152 -0.7340 -1.1115
14158TIP3   OH263964   4.405   1.376   2.497  0.2241  0.5137 -0.3688
14158TIP3    H163965   4.431   1.447   2.556 -1.3943  0.1104  0.8894
14158TIP3    H263966   4.370   1.308   2.554 -2.7824  0.6838 -1.8096
14159TIP3   OH263967   2.198   2.450  12.676 -0.3263 -0.0215 -0.0783
14159TIP3    H163968   2.126   2.428  12.617 -0.9238 -1.2401  1.0277
14159TIP3    H263969   2.275   2.410  12.636 -0.2237  1.3170 -1.2889
14160TIP3   OH263970   1.604   4.609  17.172 -0.3409  0.3310 -0.2056
14160TIP3    H163971   1.685   4.655  17.152 -0.1206  0.2070  0.3667
14160TIP3    H263972   1.540   4.644  17.111 -0.0984  1.1594  0.0119
14161TIP3   OH263973   2.497   6.771   5.141  0.3709 -0.1674  0.0338
14161TIP3    H163974   2.578   6.809   5.106  1.8935 -0.1244  3.1925
14161TIP3    H263975   2.516   6.677   5.146 -0.1227 -0.2708 -0.0390
14162TIP3   OH263976   4.600   4.498   1.655 -0.1645 -0.2507 -0.4189
14162TIP3    H163977   4.574   4.487   1.563 -1.3210  1.0716 -0.2851
14162TIP3    H263978   4.549   4.432   1.702  0.5039 -0.9976 -0.7187
14163TIP3   OH263979   5.491   4.774  11.433  0.0012 -0.3488  0.1538
14163TIP3    H163980   5.517   4.826  11.357 -1.1025 -1.9479 -1.3821
14163TIP3    H263981   5.404   4.740  11.412  0.5729 -2.6661  1.1281
14164TIP3   OH263982   2.605   0.865   5.436 -0.0812  0.5883 -0.4219
14164TIP3    H163983   2.625   0.959   5.433  0.7116  0.4415  0.0640
14164TIP3    H263984   2.685   0.825   5.469 -1.1793 -0.0356  1.6587
14165TIP3   OH263985   0.161   1.790  16.290 -0.1875 -0.0497 -0.1641
14165TIP3    H163986   0.249   1.800  16.326  0.3649 -2.0360 -0.8125
14165TIP3    H263987   0.110   1.756  16.364 -0.0608 -0.2419 -0.1637
14166TIP3   OH263988   1.602   3.796  13.069  0.0265 -0.6877 -0.2437
14166TIP3    H163989   1.696   3.814  13.076 -0.1501  0.9373 -1.4853
14166TIP3    H263990   1.561   3.864  13.123 -0.4255 -2.0153  1.1372
14167TIP3   OH263991   2.337   1.060  17.315  0.3543 -0.1862 -0.1104
14167TIP3    H163992   2.405   1.005  17.355  0.7677  1.2575  1.2471
14167TIP3    H263993   2.319   1.127  17.380 -3.1366 -1.0725  0.0222
14168TIP3   OH263994   4.407   5.515   4.380 -0.2194  0.2751  0.3666
14168TIP3    H163995   4.481   5.567   4.411  0.0554  0.5964 -0.7535
14168TIP3    H263996   4.415   5.431   4.424  1.8575 -0.3341 -1.0704
14169TIP3   OH263997   4.466   1.993  11.639 -0.0312 -0.0564 -0.2570
14169TIP3    H163998   4.523   1.950  11.702 -0.3966 -2.1732 -1.2942
14169TIP3    H263999   4.384   2.009  11.686 -0.1762 -1.2697 -0.0834
14170TIP3   OH264000   1.729   6.370  12.232 -0.2117 -0.0209 -0.0617
14170TIP3    H164001   1.688   6.284  12.245  0.4222 -0.4547 -0.8159
14170TIP3    H264002   1.670   6.431  12.275 -1.7207 -0.6011 -1.1775
14171TIP3   OH264003   4.978   4.028   0.758  0.3245  0.5246 -0.2099
14171TIP3    H164004   4.985   4.018   0.853 -0.3147 -0.5967 -0.2666
14171TIP3    H264005   4.929   4.109   0.747  0.3695  0.6467  0.4113
14172TIP3   OH264006   5.924   0.443   2.353 -0.3892 -0.5564  0.4503
14172TIP3    H164007   5.835   0.474   2.334 -1.0872 -1.1271  2.4693
14172TIP3    H264008   5.911   0.363   2.404  1.2332  0.1432  2.0605
14173TIP3   OH264009   3.499   2.360  11.649  0.0148 -0.0131 -0.5219
14173TIP3    H164010   3.531   2.435  11.699 -0.3275 -1.2459  1.6683
14173TIP3    H264011   3.570   2.339  11.589 -0.0299  2.2402 -1.4690
14174TIP3   OH264012   2.100   6.595   5.876  0.5215  0.1175  0.0789
14174TIP3    H164013   2.076   6.560   5.962  1.3016  0.5307  0.4734
14174TIP3    H264014   2.045   6.673   5.866  1.1879  0.6883  0.6932
14175TIP3   OH264015   2.238   2.824  17.001  0.1984 -0.3768  0.4235
14175TIP3    H164016   2.193   2.763  17.058  0.6635 -1.0922  0.0358
14175TIP3    H264017   2.230   2.786  16.913  0.1807  0.2932  0.1291
14176TIP3   OH264018   0.206   6.535   5.830 -0.3224 -0.2338  0.2185
14176TIP3    H164019   0.196   6.626   5.857 -2.1481  0.0999 -1.3752
14176TIP3    H264020   0.206   6.485   5.911  1.9250  1.2026  1.2256
14177TIP3   OH264021   4.142   6.696   2.392  0.3800  0.2863  0.4539
14177TIP3    H164022   4.067   6.742   2.354  1.2791  0.8142 -0.7624
14177TIP3    H264023   4.184   6.654   2.317 -0.1011 -2.1321  1.4552
14178TIP3   OH264024   4.057   3.763   3.156  0.3858  0.1989  0.1245
14178TIP3    H164025   4.112   3.689   3.180  1.2406  1.0731  0.9633
14178TIP3    H264026   3.974   3.748   3.203  0.7493  0.0440  0.7288
14179TIP3   OH264027   2.641   5.467   0.361  0.8455  0.3542 -0.3317
14179TIP3    H164028   2.627   5.555   0.394 -1.3464  0.2413 -0.7670
14179TIP3    H264029   2.571   5.454   0.297  1.2568 -1.6153 -0.4578
14180TIP3   OH264030   6.568   0.043  14.192 -0.6117 -0.0078 -0.3530
14180TIP3    H164031   6.486   0.050  14.143 -1.2954 -0.7740  0.6363
14180TIP3    H264032   6.560  -0.039  14.240 -1.4932  2.1846  3.6941
14181TIP3   OH264033   6.300   3.726  16.474 -0.1699 -0.2273 -0.0650
14181TIP3    H164034   6.266   3.782  16.544  0.0491  0.7331 -0.7101
14181TIP3    H264035   6.283   3.636  16.505 -4.2046  0.1026 -0.7684
14182TIP3   OH264036   3.873   0.837   2.518  0.3863  0.3022  0.6644
14182TIP3    H164037   3.850   0.776   2.589 -1.0837 -0.9267 -0.7679
14182TIP3    H264038   3.794   0.890   2.506  0.3594  0.0389 -0.4588
14183TIP3   OH264039   4.744   4.102  12.905  0.1939 -0.0222  0.0854
14183TIP3    H164040   4.804   4.141  12.842 -0.3540 -0.5798 -0.8002
14183TIP3    H264041   4.666   4.080  12.854  0.2623 -1.7419  0.6505
14184TIP3   OH264042   2.697   0.505  16.027 -0.2402 -0.6223 -0.1202
14184TIP3    H164043   2.651   0.526  16.109  0.3123  0.3094 -0.0370
14184TIP3    H264044   2.635   0.525  15.958 -0.8124 -1.6756  0.0600
14185TIP3   OH264045   5.210   3.369   1.598  0.3260  0.2687 -0.1259
14185TIP3    H164046   5.219   3.342   1.689 -0.3712 -0.1360 -0.1791
14185TIP3    H264047   5.190   3.289   1.550  0.3476  0.5339 -0.5869
14186TIP3   OH264048   1.990   5.433   0.039 -0.0606 -0.6139  0.5257
14186TIP3    H164049   2.070   5.380   0.046  1.2271  1.2520  0.9313
14186TIP3    H264050   2.002   5.483  -0.042 -0.2719  0.4914  1.1563
14187TIP3   OH264051   0.424   1.236   1.853  0.2754 -0.0676 -0.1989
14187TIP3    H164052   0.453   1.161   1.906 -1.1228 -0.2591  0.3499
14187TIP3    H264053   0.410   1.306   1.916  1.8664  0.7861 -0.7468
14188TIP3   OH264054   2.989   4.217   3.308  0.0654  0.4135  0.4224
14188TIP3    H164055   3.014   4.304   3.276 -0.6674  1.4092  2.3379
14188TIP3    H264056   3.051   4.157   3.267  1.1992  1.9598 -0.2329
14189TIP3   OH264057   3.868   0.036   4.797  0.1602  0.0428 -0.6429
14189TIP3    H164058   3.963   0.038   4.811  0.2119 -3.2172  0.3417
14189TIP3    H264059   3.837  -0.032   4.857 -2.4312 -0.8329 -2.7900
14190TIP3   OH264060   0.414   4.120  17.018  0.2247  0.1067 -0.3426
14190TIP3    H164061   0.408   4.112  17.113  0.2900  1.8114 -0.1608
14190TIP3    H264062   0.339   4.174  16.993 -0.1898 -0.8947 -1.3632
14191TIP3   OH264063   2.455   4.538  14.497  0.3556  0.4566  0.1706
14191TIP3    H164064   2.434   4.500  14.583  0.7472  1.3390  0.6636
14191TIP3    H264065   2.449   4.464  14.437  0.8565 -0.3453  1.0807
14192TIP3   OH264066   0.730   1.086   5.786 -0.2004 -0.1163  0.0290
14192TIP3    H164067   0.758   1.033   5.711 -1.4849 -0.9700  0.1254
14192TIP3    H264068   0.660   1.035   5.827 -0.6079  1.0804  0.8761
14193TIP3   OH264069   0.828   5.727   0.955  0.1413 -0.3058 -0.6941
14193TIP3    H164070   0.751   5.694   0.909 -0.5546  0.2306  0.0688
14193TIP3    H264071   0.827   5.821   0.940  1.7116 -0.4874 -2.2496
14194TIP3   OH264072   2.563   3.220  16.042  0.0158 -0.4365  0.5297
14194TIP3    H164073   2.649   3.179  16.034  0.7036  0.9972  0.2680
14194TIP3    H264074   2.501   3.148  16.029  1.1616 -1.2793 -0.5045
14195TIP3   OH264075   1.644   1.365   2.239 -0.3024 -0.1790  0.2075
14195TIP3    H164076   1.615   1.455   2.223  0.0610 -0.2691 -1.0343
14195TIP3    H264077   1.591   1.335   2.313 -1.1929  0.6859 -0.0704
14196TIP3   OH264078   6.164   2.142  12.253 -0.4182  0.5159  1.1486
14196TIP3    H164079   6.231   2.132  12.320 -1.2510 -0.6984  1.8238
14196TIP3    H264080   6.138   2.234  12.258  1.4677  1.1319  0.5686
14197TIP3   OH264081   6.184   4.242   3.568 -0.1501  0.0422 -0.0980
14197TIP3    H164082   6.158   4.157   3.604  1.2214  0.2759  1.5448
14197TIP3    H264083   6.185   4.228   3.473 -2.3246 -1.0465 -0.0224
14198TIP3   OH264084   4.455   1.649   2.388  0.0802 -0.1437  0.2724
14198TIP3    H164085   4.540   1.657   2.345  0.0797 -0.9312  0.1059
14198TIP3    H264086   4.463   1.570   2.442 -1.1095 -1.2392 -1.0832
14199TIP3   OH264087   0.625   1.025  15.911 -0.2050 -0.5081 -0.5352
14199TIP3    H164088   0.606   1.089  15.842 -0.8215 -1.0691 -0.9008
14199TIP3    H264089   0.714   1.046  15.939  0.3046 -0.6793 -1.9577
14200TIP3   OH264090   3.447   0.826  11.248 -0.8453 -0.4440 -0.2656
14200TIP3    H164091   3.437   0.757  11.183  0.5819 -0.8092 -0.1339
14200TIP3    H264092   3.404   0.792  11.326 -0.6234 -0.9611 -0.3665
14201TIP3   OH264093   4.998   4.387   4.713  0.5393  0.2984  0.3945
14201TIP3    H164094   5.040   4.303   4.731  0.0428 -0.0687 -0.1446
14201TIP3    H264095   4.924   4.365   4.656 -1.3353  0.6946  2.4987
14202TIP3   OH264096   3.599   0.996   0.360  0.6252 -0.5263  0.5142
14202TIP3    H164097   3.604   1.055   0.435 -0.8125  0.5327 -0.1783
14202TIP3    H264098   3.513   1.012   0.321  0.1107 -3.1808  0.3353
14203TIP3   OH264099   5.922   0.844   3.176  0.3282  0.1069  0.6248
14203TIP3    H164100   5.940   0.755   3.204  1.1406  0.6793  2.0210
14203TIP3    H264101   5.869   0.882   3.246  0.6639  0.9626  0.4347
14204TIP3   OH264102   0.820   5.837  13.553  0.3041  0.0590  0.1065
14204TIP3    H164103   0.804   5.800  13.466 -0.5662 -0.5035  0.4911
14204TIP3    H264104   0.899   5.890  13.543  0.3594 -0.2122 -0.9620
14205TIP3   OH264105   5.104   4.150  12.537  0.1582 -0.2673 -0.1226
14205TIP3    H164106   5.091   4.070  12.487  1.6445 -0.2198 -0.6200
14205TIP3    H264107   5.083   4.220  12.476  1.0497 -0.2341 -0.4037
14206TIP3   OH264108   3.824   3.092  12.033 -0.0164  0.1215  0.3674
14206TIP3    H164109   3.856   3.183  12.036  0.2848  0.0096  0.6135
14206TIP3    H264110   3.879   3.045  12.095 -0.5981 -0.1008  0.7215
14207TIP3   OH264111   0.673   2.020   2.901 -0.1962  0.1143 -0.4532
14207TIP3    H164112   0.743   2.079   2.929 -0.7765  0.4980  0.2327
14207TIP3    H264113   0.617   2.074   2.846 -1.6086  0.6911  1.4732
14208TIP3   OH264114   0.344   3.302  11.468 -0.0400 -0.6655 -0.5650
14208TIP3    H164115   0.280   3.239  11.501  0.8195 -1.1859  0.1428
14208TIP3    H264116   0.293   3.382  11.454 -0.9621 -1.2395 -0.5901
14209TIP3   OH264117   2.078   1.012  16.590  0.1295  0.2799 -0.6157
14209TIP3    H164118   2.101   0.933  16.541  0.4839  0.7662 -1.2314
14209TIP3    H264119   2.154   1.028  16.647 -0.4794 -0.5676  0.4893
14210TIP3   OH264120   6.277   4.397  11.321 -0.6990 -0.4266  0.0107
14210TIP3    H164121   6.273   4.316  11.270 -0.2628 -0.1807 -0.4217
14210TIP3    H264122   6.370   4.409  11.340 -0.9974 -1.6923  2.8105
14211TIP3   OH264123   2.200   4.721   0.120 -0.3557  0.3872 -0.1941
14211TIP3    H164124   2.148   4.675   0.054 -0.7549  1.5588 -0.7224
14211TIP3    H264125   2.186   4.814   0.101  1.1311  0.7390  0.2783
14212TIP3   OH264126   4.469   0.067  15.928  0.2204 -0.4112  0.0893
14212TIP3    H164127   4.471   0.118  15.847  0.7923 -1.3583 -0.5123
14212TIP3    H264128   4.396   0.104  15.978 -0.1090  0.2196 -0.8346
14213TIP3   OH264129   6.094   2.820   4.886  0.2691 -0.0040  0.0536
14213TIP3    H164130   6.097   2.726   4.866 -0.4503  0.2935 -1.6659
14213TIP3    H264131   6.002   2.838   4.904  0.4813  0.2846  0.8624
14214TIP3   OH264132   1.340   2.711   2.831  0.5070  0.7354 -0.1019
14214TIP3    H164133   1.250   2.728   2.804  0.0251  0.0531  1.0373
14214TIP3    H264134   1.393   2.758   2.766 -0.6713  2.0835 -0.1430
14215TIP3   OH264135   4.495   2.640   6.066  0.1533  0.6321  0.1208
14215TIP3    H164136   4.479   2.551   6.033  0.6329  0.7818 -0.5347
14215TIP3    H264137   4.481   2.633   6.161  1.8687 -0.5585  0.3438
14216TIP3   OH264138   5.979   3.047  12.452  0.7144 -0.3570  0.2323
14216TIP3    H164139   5.944   2.959  12.466 -1.5458  0.5776  1.0516
14216TIP3    H264140   5.987   3.083  12.541  1.4898  0.3176 -0.0995
14217TIP3   OH264141   4.224   5.888  14.084  0.2837  0.9117 -0.6290
14217TIP3    H164142   4.247   5.832  14.010 -0.3831  0.5278 -0.5562
14217TIP3    H264143   4.298   5.948  14.093  1.6640 -0.8215  0.1606
14218TIP3   OH264144   1.624   6.443   1.134 -0.0131  0.0842  0.2705
14218TIP3    H164145   1.563   6.400   1.074 -0.1484 -0.4924  0.8157
14218TIP3    H264146   1.634   6.382   1.207 -0.3255  1.0540  1.1464
14219TIP3   OH264147   4.612   6.657   1.889 -0.5113 -0.3272  0.6241
14219TIP3    H164148   4.697   6.628   1.856 -0.9226 -3.0233  1.6467
14219TIP3    H264149   4.631   6.733   1.943  1.0950 -0.2222 -0.0406
14220TIP3   OH264150   0.433   0.764   2.795 -0.4301  0.1054  0.7760
14220TIP3    H164151   0.391   0.689   2.754  1.7922 -0.9710  0.3045
14220TIP3    H264152   0.449   0.825   2.723  2.6450 -1.3914  0.0453
14221TIP3   OH264153   2.731   1.856   2.690 -0.2130  0.7363 -0.2790
14221TIP3    H164154   2.757   1.928   2.747  1.2066  1.2931 -1.5600
14221TIP3    H264155   2.754   1.776   2.737  1.0951  1.1893 -0.1204
14222TIP3   OH264156   4.341   0.699   1.926 -0.2630 -0.0449  0.0972
14222TIP3    H164157   4.297   0.647   1.859 -2.1641  1.0120  0.4491
14222TIP3    H264158   4.276   0.708   1.996  1.1004  0.2538  1.3873
14223TIP3   OH264159   0.394   1.628  15.265  0.0131 -0.3073  0.0556
14223TIP3    H164160   0.435   1.569  15.201 -0.1003 -0.5260  0.1814
14223TIP3    H264161   0.448   1.617  15.344 -0.1835 -0.4694  0.1707
14224TIP3   OH264162   6.435   6.802  14.769  0.0370  0.0790 -0.0962
14224TIP3    H164163   6.424   6.843  14.683 -1.1299 -1.1498 -0.5619
14224TIP3    H264164   6.518   6.837  14.801 -0.2904  1.8193 -1.0037
14225TIP3   OH264165   1.221   3.591   1.988  0.5661  0.0626  0.5588
14225TIP3    H164166   1.267   3.507   1.989  0.5419  0.0410  2.4179
14225TIP3    H264167   1.129   3.568   1.997  0.5744  0.2879  1.2514
14226TIP3   OH264168   3.628   6.354  11.873 -0.0232  0.2555 -0.3418
14226TIP3    H164169   3.665   6.333  11.788 -0.1021  0.3529 -0.4000
14226TIP3    H264170   3.617   6.449  11.872 -0.3849  0.2156 -0.3688
14227TIP3   OH264171   2.620   0.240  11.795 -0.2634 -0.7117 -0.2510
14227TIP3    H164172   2.702   0.289  11.794  0.0374 -1.2216 -1.6289
14227TIP3    H264173   2.626   0.185  11.874  0.5717 -0.5208 -0.1794
14228TIP3   OH264174   0.060   0.093  16.681 -0.0890  0.4662  0.2096
14228TIP3    H164175   0.020   0.140  16.754 -2.5489  0.8543 -1.2439
14228TIP3    H264176   0.053   0.001  16.705 -0.7940  0.5921  0.5102
14229TIP3   OH264177   1.257   0.913  15.415  0.4839 -0.0904  0.0014
14229TIP3    H164178   1.207   0.845  15.459  0.8236  0.3708  1.1236
14229TIP3    H264179   1.234   0.994  15.461 -1.9486  1.0748 -2.9063
14230TIP3   OH264180   1.514   4.846  11.794 -0.1473  0.5956 -0.0652
14230TIP3    H164181   1.423   4.874  11.802 -0.6491 -0.8874 -0.2925
14230TIP3    H264182   1.522   4.773  11.854  1.1051  1.1366  0.4585
14231TIP3   OH264183   0.067   6.006  13.471  0.1198  0.6762 -0.0333
14231TIP3    H164184   0.158   6.036  13.463 -0.1166  1.8717  1.3918
14231TIP3    H264185   0.074   5.919  13.510  0.6710  0.4754 -0.5654
14232TIP3   OH264186   1.106   5.924  14.985 -0.7520 -0.1316  0.1602
14232TIP3    H164187   1.081   5.934  14.893  0.0864  0.0109 -0.0615
14232TIP3    H264188   1.025   5.901  15.030 -0.8454 -2.0607 -0.8977
14233TIP3   OH264189   1.275   2.491  10.568  0.9172 -0.2400  0.2735
14233TIP3    H164190   1.287   2.586  10.563  0.4888 -0.2640 -2.6712
14233TIP3    H264191   1.364   2.456  10.561  0.9072 -0.0861 -0.6384
14234TIP3   OH264192   5.777   5.100   3.789 -0.0878  0.1930 -0.2260
14234TIP3    H164193   5.685   5.072   3.793  0.1771 -0.7386 -0.4435
14234TIP3    H264194   5.827   5.018   3.789  0.7203  0.6734 -0.7669
14235TIP3   OH264195   3.503   1.435   4.467  0.3303  0.3170 -0.0037
14235TIP3    H164196   3.557   1.448   4.389  0.6871 -0.6648  0.0734
14235TIP3    H264197   3.528   1.507   4.525 -0.8247  1.7890 -1.2486
14236TIP3   OH264198   1.425   4.571  13.968  0.1927  0.4666  0.1652
14236TIP3    H164199   1.387   4.593  13.883 -1.0523 -2.3871 -0.1298
14236TIP3    H264200   1.370   4.616  14.031 -1.3030 -0.4242 -0.4465
14237TIP3   OH264201   4.405   5.412  15.399 -0.6699 -0.7596  0.2863
14237TIP3    H164202   4.485   5.391  15.447 -0.4183  2.2568  1.4369
14237TIP3    H264203   4.336   5.412  15.466 -1.4019 -1.9105 -0.4294
14238TIP3   OH264204   5.363   2.048  16.746 -0.4823 -0.1523  0.1730
14238TIP3    H164205   5.304   2.108  16.792 -0.5257 -0.5176  0.6039
14238TIP3    H264206   5.319   1.963  16.751 -0.2847 -0.2760 -0.1813
14239TIP3   OH264207   1.144   5.353   4.886 -0.1450 -0.2600 -0.5650
14239TIP3    H164208   1.070   5.314   4.839 -0.1532 -0.4127 -0.4297
14239TIP3    H264209   1.207   5.281   4.894  0.4306  0.1211 -1.5202
14240TIP3   OH264210   2.435   6.041  16.679  0.1905  0.0064 -0.0255
14240TIP3    H164211   2.443   6.119  16.734  1.9492 -1.1306  1.4451
14240TIP3    H264212   2.353   6.002  16.707  0.4206  0.1394  0.8989
14241TIP3   OH264213   2.541   5.110  15.365  0.5399 -0.5472 -0.0428
14241TIP3    H164214   2.515   5.097  15.273  0.7734  1.5348 -0.4677
14241TIP3    H264215   2.463   5.086  15.415 -1.0573  2.0384 -1.0834
14242TIP3   OH264216   6.198   0.258  11.521 -0.3903  0.4021 -0.4135
14242TIP3    H164217   6.263   0.196  11.487  0.4089  0.9059  0.1734
14242TIP3    H264218   6.164   0.215  11.600 -0.7676  0.1506 -0.7060
14243TIP3   OH264219   2.069   5.065   1.665  0.3326 -0.3205 -0.0413
14243TIP3    H164220   2.030   5.152   1.655 -0.1003 -0.3756  1.0244
14243TIP3    H264221   2.163   5.081   1.659  0.2091 -0.2199 -2.8458
14244TIP3   OH264222   0.603   6.120  13.045  0.9395 -0.0114  0.4000
14244TIP3    H164223   0.617   6.079  13.130  1.4128 -2.1914 -0.6471
14244TIP3    H264224   0.514   6.092  13.020  0.8713  0.4627  0.1086
14245TIP3   OH264225   2.580   5.731   5.759 -0.1082 -0.2330  0.1604
14245TIP3    H164226   2.596   5.732   5.853 -1.6055  0.7911  0.4485
14245TIP3    H264227   2.614   5.815   5.728  0.4478 -0.5984 -0.2301
14246TIP3   OH264228   6.098   4.792   4.604 -0.1255  0.5674 -0.6667
14246TIP3    H164229   6.058   4.725   4.549 -1.7048  0.0600  1.0070
14246TIP3    H264230   6.107   4.750   4.690  0.7384  1.8543 -0.0928
14247TIP3   OH264231   2.646   3.861   3.958  0.2299  0.4295 -0.6185
14247TIP3    H164232   2.740   3.877   3.952 -0.2019  2.8017 -2.3781
14247TIP3    H264233   2.639   3.768   3.979  2.9623  0.5778  1.4463
14248TIP3   OH264234   0.505   1.516  11.752  0.0468  0.5325  0.0133
14248TIP3    H164235   0.545   1.565  11.824 -0.7954  2.0434 -0.5031
14248TIP3    H264236   0.417   1.495  11.782  0.4087 -0.7564  0.2437
14249TIP3   OH264237   2.817   5.014   1.076 -0.4710  0.0339 -0.3330
14249TIP3    H164238   2.777   5.098   1.097  1.2070  0.2744  2.2838
14249TIP3    H264239   2.911   5.029   1.086  0.0129 -1.6406 -1.9261
14250TIP3   OH264240   1.471   2.902   3.492 -0.0900  0.4413  0.0315
14250TIP3    H164241   1.499   2.814   3.519 -0.8637  0.5277  1.2031
14250TIP3    H264242   1.428   2.888   3.407 -2.4058 -0.7637  1.2792
14251TIP3   OH264243   1.840   4.445  14.031 -0.0043 -0.2054  0.0574
14251TIP3    H164244   1.906   4.458  13.963 -1.0024 -1.2935 -1.1905
14251TIP3    H264245   1.830   4.350  14.037 -1.6861 -0.0666 -0.0502
14252TIP3   OH264246   4.394   1.973   2.813 -0.2538  0.3041  0.5182
14252TIP3    H164247   4.390   1.880   2.789  0.4454  0.5130 -0.4394
14252TIP3    H264248   4.302   2.000   2.820 -0.4643 -0.4981  0.9929
14253TIP3   OH264249   1.159   0.035  10.825 -0.0939 -0.5025  0.6891
14253TIP3    H164250   1.150  -0.013  10.907  0.5965 -1.4121  0.2533
14253TIP3    H264251   1.082   0.008  10.774  0.1543 -0.9608  0.5468
14254TIP3   OH264252   2.245   5.444  11.389 -0.7057  0.0349  0.8154
14254TIP3    H164253   2.153   5.418  11.393 -0.6886 -0.2799 -0.5045
14254TIP3    H264254   2.249   5.508  11.317 -0.0575  0.7742  1.4872
14255TIP3   OH264255   2.254   1.574   3.156 -0.0800  0.0709  1.0803
14255TIP3    H164256   2.285   1.589   3.245 -0.0978 -0.9744  1.2676
14255TIP3    H264257   2.188   1.642   3.142  0.9568  1.1691  1.3274
14256TIP3   OH264258   4.285   3.370  16.520 -0.1917 -0.6153 -0.2908
14256TIP3    H164259   4.265   3.282  16.551 -2.0474  0.2364  1.1797
14256TIP3    H264260   4.199   3.408  16.500  0.5993  0.7153 -1.3090
14257TIP3   OH264261   6.329   3.000   2.756  0.4045 -0.1588  0.0292
14257TIP3    H164262   6.378   3.034   2.681 -1.4812 -1.1138 -1.7495
14257TIP3    H264263   6.295   3.077   2.800  1.6050  0.4241 -0.0208
14258TIP3   OH264264   4.751   4.900  12.488 -1.0751 -0.3511 -0.4503
14258TIP3    H164265   4.739   4.942  12.574  0.2652  1.0868 -0.9059
14258TIP3    H264266   4.745   4.807  12.506 -3.5832 -0.0444  0.7304
14259TIP3   OH264267   4.894   6.713   0.442  1.0469 -0.2582  0.4229
14259TIP3    H164268   4.826   6.649   0.418 -0.9190  1.0160  2.2722
14259TIP3    H264269   4.931   6.678   0.523  0.4623  0.5510  1.0511
14260TIP3   OH264270   5.324   6.781  17.301 -0.1073 -0.1413 -0.1482
14260TIP3    H164271   5.257   6.842  17.333  1.2719  1.1311  0.4274
14260TIP3    H264272   5.323   6.792  17.206  0.4614  1.1565 -0.0156
14261TIP3   OH264273   5.256   4.203   1.569  0.6207 -0.0141 -0.2205
14261TIP3    H164274   5.227   4.135   1.508 -1.4972 -0.1048  0.7984
14261TIP3    H264275   5.233   4.285   1.527  1.3455  0.0108 -0.5750
14262TIP3   OH264276   0.795   3.976  13.541  0.1477 -0.1923  0.1685
14262TIP3    H164277   0.708   4.017  13.539  0.3640  0.3251  1.0443
14262TIP3    H264278   0.804   3.944  13.630  1.6386  1.5087  0.6886
14263TIP3   OH264279   5.742   6.319  16.410  0.0081 -0.0372 -0.1008
14263TIP3    H164280   5.697   6.264  16.346 -1.3607  0.7381  0.1646
14263TIP3    H264281   5.797   6.376  16.357  1.3046 -1.4846 -0.3888
14264TIP3   OH264282   2.939   1.581   2.251  0.1946  0.3754  0.5600
14264TIP3    H164283   2.913   1.625   2.332 -0.7071  0.6254  0.1439
14264TIP3    H264284   2.998   1.644   2.208 -0.0563  0.6344  0.5896
14265TIP3   OH264285   4.894   5.952   0.034 -0.3311 -0.0729  0.4863
14265TIP3    H164286   4.852   5.875  -0.005  1.9405 -0.3718 -1.5983
14265TIP3    H264287   4.921   5.923   0.121 -0.8411 -1.1318  0.3044
14266TIP3   OH264288   4.743   4.261  11.258 -0.1716 -0.1369  0.3711
14266TIP3    H164289   4.740   4.318  11.335  0.2343 -0.1667  0.4101
14266TIP3    H264290   4.732   4.321  11.184  0.1683 -0.0154  0.4168
14267TIP3   OH264291   6.455   2.673  15.378  0.0358  0.1848  0.8118
14267TIP3    H164292   6.524   2.647  15.317 -0.5147  1.6984 -0.5430
14267TIP3    H264293   6.396   2.597  15.382  0.5741 -0.2754  0.1812
14268TIP3   OH264294   4.698   2.192  12.541 -0.0047 -0.0592  0.2721
14268TIP3    H164295   4.711   2.258  12.609  0.1846 -0.6109  0.7810
14268TIP3    H264296   4.620   2.144  12.568  0.9743 -1.3331  0.9934
14269TIP3   OH264297   5.266   5.498   2.053  0.5171  0.0384 -0.1145
14269TIP3    H164298   5.259   5.571   1.992  1.4456  0.1338 -0.1201
14269TIP3    H264299   5.277   5.421   1.997  1.9402  0.1949 -0.0709
14270TIP3   OH264300   0.652   5.681  16.681  0.0536 -0.9183 -0.0118
14270TIP3    H164301   0.596   5.612  16.717  1.3638 -0.9501  2.1346
14270TIP3    H264302   0.615   5.762  16.715 -0.7888 -0.6056 -1.5786
14271TIP3   OH264303   0.807   6.682  13.709  0.5612  0.3467 -0.3160
14271TIP3    H164304   0.712   6.671  13.717  0.2328 -2.4197 -4.4595
14271TIP3    H264305   0.841   6.593  13.701  2.5679  1.1993 -4.4807
14272TIP3   OH264306   2.830   4.618   5.506  0.9622 -0.4856 -1.0966
14272TIP3    H164307   2.892   4.675   5.553 -0.0652  0.2255 -0.5598
14272TIP3    H264308   2.803   4.670   5.430 -2.3163  1.1778  0.9582
14273TIP3   OH264309   3.079   0.972   3.386 -0.2606  0.7606  0.0026
14273TIP3    H164310   3.152   0.971   3.324  0.2764  0.4423  0.6290
14273TIP3    H264311   3.111   1.024   3.460 -1.1262  1.6794 -0.2470
14274TIP3   OH264312   6.328   4.136  12.843 -0.3291 -0.3491 -0.2011
14274TIP3    H164313   6.411   4.094  12.865 -1.2538 -1.8817  0.5331
14274TIP3    H264314   6.346   4.230  12.854  1.1763 -0.6677  0.3760
14275TIP3   OH264315   3.666   2.725   6.060 -0.5876  0.6512  0.2300
14275TIP3    H164316   3.631   2.697   6.145  0.2243  0.2912  0.4566
14275TIP3    H264317   3.687   2.644   6.015  0.3392  0.8625  0.2710
14276TIP3   OH264318   6.823   5.640  17.016  0.0579 -0.3666 -0.4809
14276TIP3    H164319   6.885   5.667  16.949 -0.2482 -0.2494 -0.7183
14276TIP3    H264320   6.792   5.722  17.055  0.4499 -0.4402  0.0030
14277TIP3   OH264321   4.716   0.042  16.696 -0.0935  0.1915 -0.5178
14277TIP3    H164322   4.798  -0.007  16.692 -0.0504  0.1838  0.2881
14277TIP3    H264323   4.740   0.128  16.729  0.0197  1.2554 -3.1040
14278TIP3   OH264324   3.563   1.239   5.297 -0.0861 -0.3088  0.0165
14278TIP3    H164325   3.505   1.200   5.232 -0.5981 -1.1407  0.9391
14278TIP3    H264326   3.597   1.164   5.346  1.0961  0.2303  0.0453
14279TIP3   OH264327   6.312   4.512   1.947  0.1829 -0.5303  0.2963
14279TIP3    H164328   6.302   4.602   1.977 -0.0671 -1.2139  2.4632
14279TIP3    H264329   6.378   4.475   2.006 -1.4781 -2.4162  1.0633
14280TIP3   OH264330   5.750   4.922   1.017  0.6951  0.1736  0.2862
14280TIP3    H164331   5.789   4.953   1.098 -0.8996  0.5282  0.9638
14280TIP3    H264332   5.685   4.857   1.045  1.4194 -1.0923 -0.8538
14281TIP3   OH264333   1.432   5.695  12.821 -0.1417  0.7654  0.2435
14281TIP3    H164334   1.471   5.778  12.847  0.4278  0.7852 -0.6697
14281TIP3    H264335   1.402   5.708  12.732  0.3586 -0.1454 -0.0767
14282TIP3   OH264336   3.474   4.294   2.641 -0.3709  0.0536  0.2584
14282TIP3    H164337   3.392   4.258   2.609 -0.0753 -1.1573  0.7963
14282TIP3    H264338   3.524   4.218   2.672 -0.1941  0.9984  2.5352
14283TIP3   OH264339   4.726   2.767  16.040 -0.0270  0.2488  0.4866
14283TIP3    H164340   4.744   2.675  16.060 -0.0926  0.0623 -0.2707
14283TIP3    H264341   4.717   2.769  15.945 -1.2906  0.8073  0.5950
14284TIP3   OH264342   0.676   3.334  14.300  0.6110 -0.0026  0.2283
14284TIP3    H164343   0.751   3.377  14.342 -0.1913  0.4769  1.1991
14284TIP3    H264344   0.614   3.405  14.283  0.1921 -0.4580 -0.1826
14285TIP3   OH264345   6.028   4.645  14.434  0.0310 -0.2499 -0.2444
14285TIP3    H164346   6.014   4.575  14.498  1.7159 -0.9768 -0.6213
14285TIP3    H264347   6.108   4.690  14.464 -0.3424  0.7502 -0.6824
14286TIP3   OH264348   1.742   3.271   5.565  0.1587  0.7385  0.2478
14286TIP3    H164349   1.792   3.190   5.561  0.5373  0.8720  1.6902
14286TIP3    H264350   1.808   3.338   5.584 -0.4401  1.0179  1.4835
14287TIP3   OH264351   6.108   0.255  12.308  0.2555 -0.2613 -0.6350
14287TIP3    H164352   6.144   0.295  12.229  0.6786  1.9081  0.5742
14287TIP3    H264353   6.185   0.223  12.355  0.2723  0.8044  0.0922
14288TIP3   OH264354   6.632   0.785   5.809 -0.0007  0.6222  0.2460
14288TIP3    H164355   6.590   0.742   5.735 -0.5145 -0.9111  1.3878
14288TIP3    H264356   6.726   0.773   5.794  0.1227  3.2414 -1.8254
14289TIP3   OH264357   6.540   3.327  17.044  0.6673 -0.0965  0.0991
14289TIP3    H164358   6.460   3.367  17.009  1.6517  0.7241 -1.3033
14289TIP3    H264359   6.555   3.250  16.990  0.5644 -0.5265  0.6760
14290TIP3   OH264360   2.259   4.794  11.745 -0.8628  0.1143  0.0908
14290TIP3    H164361   2.352   4.779  11.761 -0.8460  0.1900  0.0657
14290TIP3    H264362   2.244   4.884  11.773 -0.7378  0.3990 -0.7292
14291TIP3   OH264363   3.262   2.490   6.084  0.2594 -0.4916 -0.1626
14291TIP3    H164364   3.286   2.499   6.176 -0.7560 -2.5356  0.3491
14291TIP3    H264365   3.267   2.396   6.067  0.3257 -0.1725 -2.1922
14292TIP3   OH264366   4.239   5.042  12.410  0.2416  0.2889 -0.2148
14292TIP3    H164367   4.162   5.061  12.464 -0.0946  0.1309 -0.6374
14292TIP3    H264368   4.290   4.980  12.462 -0.3029 -0.2067 -0.2679
14293TIP3   OH264369   0.970   1.555  11.044  0.5623 -0.3489 -0.0033
14293TIP3    H164370   1.012   1.515  10.968  0.2545  0.6972 -0.7501
14293TIP3    H264371   1.005   1.644  11.047 -0.4580  0.0603  0.2484
14294TIP3   OH264372   5.297   1.759   1.065 -0.5581  0.2138 -0.0763
14294TIP3    H164373   5.320   1.850   1.083  0.6636 -0.0305 -0.3183
14294TIP3    H264374   5.374   1.723   1.021 -1.1345 -0.8639 -0.2393
14295TIP3   OH264375   0.169   4.292   4.248  0.2923 -0.3700 -0.0846
14295TIP3    H164376   0.262   4.296   4.269  0.4926  0.9865 -1.0756
14295TIP3    H264377   0.141   4.205   4.277  1.7498 -0.6205  0.6527
14296TIP3   OH264378   5.910   1.695  15.786  0.4201 -0.3422 -0.3083
14296TIP3    H164379   5.884   1.780  15.749 -2.3527 -0.4660  1.1167
14296TIP3    H264380   5.976   1.717  15.852 -0.7357  0.7947  0.4994
14297TIP3   OH264381   1.965   0.398   2.585  0.8213 -0.7547 -0.0695
14297TIP3    H164382   2.053   0.386   2.620  0.7198  0.4263  0.6644
14297TIP3    H264383   1.974   0.382   2.491  2.2486  1.1843 -0.3194
14298TIP3   OH264384   2.035   2.921   3.712 -0.5562  0.2576 -0.0163
14298TIP3    H164385   2.036   2.896   3.619  0.7858  1.0201 -0.2349
14298TIP3    H264386   1.943   2.944   3.729 -0.9257 -0.3994 -0.9995
14299TIP3   OH264387   0.883   0.811  12.220  0.5224 -0.8418  0.2551
14299TIP3    H164388   0.833   0.875  12.169  2.2237 -1.2501 -2.1393
14299TIP3    H264389   0.864   0.728  12.177  1.5480 -1.3133  0.7043
14300TIP3   OH264390   3.118   1.330  15.932  0.4963  0.2839 -0.5593
14300TIP3    H164391   3.191   1.384  15.964  0.6353  0.1352 -0.6276
14300TIP3    H264392   3.089   1.374  15.852  0.2636  0.5570 -0.3291
14301TIP3   OH264393   2.839   0.343  15.107 -0.2248  0.2502  0.0520
14301TIP3    H164394   2.783   0.282  15.058  0.0946  0.3211 -0.4069
14301TIP3    H264395   2.793   0.427  15.103 -0.6797  0.0447  0.7071
14302TIP3   OH264396   1.004   1.192  10.816  0.4766 -0.0831 -0.0455
14302TIP3    H164397   0.992   1.250  10.891  1.9836  1.1532 -0.7073
14302TIP3    H264398   0.914   1.168  10.790 -0.1144  0.6203  1.2600
14303TIP3   OH264399   1.638   1.973   2.962 -0.1007 -0.3663 -0.1894
14303TIP3    H164400   1.609   2.061   2.986  0.4708 -0.1441 -0.2974
14303TIP3    H264401   1.718   1.959   3.013 -1.0439 -1.4678  1.0857
14304TIP3   OH264402   3.895   3.257  17.009  0.5392  0.6594 -0.0872
14304TIP3    H164403   3.865   3.229  17.096  3.5469  1.2188  1.2676
14304TIP3    H264404   3.818   3.295  16.968 -0.8011  1.1812  2.6898
14305TIP3   OH264405   2.591   4.926  14.458 -0.0493  0.2193 -0.0522
14305TIP3    H164406   2.654   4.978  14.409  0.4340 -0.7665 -0.4985
14305TIP3    H264407   2.639   4.896  14.535  0.0271 -0.5277 -0.3883
14306TIP3   OH264408   1.209   0.471   4.813  0.0539 -0.2573 -0.1486
14306TIP3    H164409   1.160   0.457   4.731 -0.2519  0.8851 -0.1730
14306TIP3    H264410   1.295   0.434   4.795 -0.4724 -1.3704 -0.4637
14307TIP3   OH264411   0.167   0.873   5.188  0.0699  0.2469 -0.0676
14307TIP3    H164412   0.120   0.907   5.112 -0.1829  0.5583  0.2191
14307TIP3    H264413   0.167   0.778   5.177  2.1526  0.3709 -1.6960
14308TIP3   OH264414   3.060   1.423   4.674 -0.5501  0.4011 -0.1950
14308TIP3    H164415   2.974   1.464   4.663 -0.5443  0.1095 -1.5401
14308TIP3    H264416   3.053   1.341   4.625 -0.3486 -0.9403  1.8778
14309TIP3   OH264417   2.038   2.920  12.579  0.0739 -0.2721  0.1282
14309TIP3    H164418   1.966   2.874  12.536  0.0506  1.6750 -2.1166
14309TIP3    H264419   1.995   2.984  12.636  0.0734 -0.7509  0.6720
14310TIP3   OH264420   5.189   1.866  14.649 -0.0245  0.3508 -1.1245
14310TIP3    H164421   5.247   1.867  14.573  0.1971 -0.6205 -0.9793
14310TIP3    H264422   5.147   1.780  14.646 -0.5206  0.5638 -0.5218
14311TIP3   OH264423   6.040   5.416  16.127 -0.8769  0.4334 -0.0289
14311TIP3    H164424   5.954   5.446  16.099 -1.3729  0.7274  1.7243
14311TIP3    H264425   6.101   5.481  16.090 -1.3657  0.1433 -1.3903
14312TIP3   OH264426   3.931   1.331   4.754 -0.0922  0.4942 -0.5417
14312TIP3    H164427   3.924   1.245   4.794 -1.7996  0.5130 -0.7037
14312TIP3    H264428   3.975   1.385   4.820 -0.4877 -0.1161  0.2397
14313TIP3   OH264429   3.926   4.515   2.375 -0.2198 -0.2279 -0.3740
14313TIP3    H164430   3.862   4.575   2.338 -0.8769 -0.1518  0.8685
14313TIP3    H264431   3.906   4.431   2.333 -0.9032 -0.1276 -0.2560
14314TIP3   OH264432   6.494   3.631  16.890 -0.4861  0.3678  0.2682
14314TIP3    H164433   6.443   3.555  16.918  1.6271 -0.5766  1.8366
14314TIP3    H264434   6.497   3.688  16.966 -1.6481  1.8768 -0.7474
14315TIP3   OH264435   3.532   0.958  14.342  0.1497 -0.0056  0.0842
14315TIP3    H164436   3.599   0.961  14.273 -1.1185 -1.3774 -1.2829
14315TIP3    H264437   3.582   0.957  14.424  1.7227  1.3411 -0.7732
14316TIP3   OH264438   1.066   1.321  13.526 -0.0677 -0.4116  0.1547
14316TIP3    H164439   1.038   1.342  13.615 -0.2824  0.5447 -0.1231
14316TIP3    H264440   0.987   1.331  13.473  0.0203 -1.1420 -0.1179
14317TIP3   OH264441   6.188   4.014   2.573  0.4825 -0.4183  0.3864
14317TIP3    H164442   6.128   4.034   2.644  0.0665 -0.3059  0.0121
14317TIP3    H264443   6.274   4.040   2.605 -0.0120  2.1213 -0.1137
14318TIP3   OH264444   2.116   2.738   5.711  0.3437  0.7596  0.2084
14318TIP3    H164445   2.158   2.824   5.711  2.1401 -0.0873 -0.0599
14318TIP3    H264446   2.184   2.678   5.740 -0.9452 -0.5670  0.6086
14319TIP3   OH264447   6.211   4.580  11.637  0.3712  0.3053 -0.0572
14319TIP3    H164448   6.132   4.592  11.584  0.7303 -0.5823 -0.8313
14319TIP3    H264449   6.211   4.487  11.659  1.4240  0.1913 -0.4580
14320TIP3   OH264450   3.885   1.660  11.949  0.3350 -0.1064 -0.2654
14320TIP3    H164451   3.976   1.687  11.935  0.5617  1.0608  2.5572
14320TIP3    H264452   3.890   1.597  12.021 -1.1811  1.8261  1.6699
14321TIP3   OH264453   0.783   5.546   4.353 -0.1154 -0.0862 -0.8656
14321TIP3    H164454   0.820   5.621   4.399 -3.7305  0.4787  1.5680
14321TIP3    H264455   0.822   5.470   4.396 -0.6705  0.4664  0.6852
14322TIP3   OH264456   1.148   2.200  12.595 -0.2701  0.1453 -0.5693
14322TIP3    H164457   1.137   2.153  12.678 -0.8251  1.5513  0.1831
14322TIP3    H264458   1.173   2.289  12.621 -1.7854  0.9945 -1.8459
14323TIP3   OH264459   0.615   5.270   5.678  0.1694 -0.2262 -0.4107
14323TIP3    H164460   0.678   5.222   5.625  2.9848  2.1280  0.5371
14323TIP3    H264461   0.662   5.289   5.759 -1.0759  3.2015 -0.3598
14324TIP3   OH264462   5.963   0.921   4.472 -0.4474  0.3730  0.3442
14324TIP3    H164463   5.940   0.895   4.383 -0.5755  0.2297  0.4177
14324TIP3    H264464   5.936   1.013   4.478 -1.9128 -0.0516  0.7333
14325TIP3   OH264465   6.560   0.359  12.200  0.1613  0.6765  0.0269
14325TIP3    H164466   6.623   0.319  12.139 -0.2186 -0.0502  0.0972
14325TIP3    H264467   6.590   0.449  12.209  0.7659  0.5423 -0.5153
14326TIP3   OH264468   1.842   5.536  16.941 -0.1735  0.3889  0.0183
14326TIP3    H164469   1.857   5.587  16.861 -0.4010 -0.3734 -0.5179
14326TIP3    H264470   1.918   5.478  16.946  0.3213  1.0821  0.8824
14327TIP3   OH264471   0.656   2.455  12.011  0.1741 -0.2901  0.6478
14327TIP3    H164472   0.626   2.539  12.043 -0.1711 -0.5017  0.8849
14327TIP3    H264473   0.724   2.428  12.073  0.7064  0.0814  0.2401
14328TIP3   OH264474   6.100   6.424   5.862  0.2510  0.4894 -0.3926
14328TIP3    H164475   6.163   6.380   5.805  0.5396  0.7721 -0.2956
14328TIP3    H264476   6.153   6.455   5.936 -0.0565  0.4538 -0.1579
14329TIP3   OH264477   2.418   3.432  15.742 -0.1420  0.3398 -0.6356
14329TIP3    H164478   2.447   3.408  15.654 -0.3746 -0.4867 -0.4948
14329TIP3    H264479   2.329   3.398  15.748  0.3886 -1.0000  0.4331
14330TIP3   OH264480   0.072   3.138  13.151  0.2522  0.4174 -0.4869
14330TIP3    H164481   0.086   3.151  13.057 -2.2738  0.3895 -0.9340
14330TIP3    H264482  -0.023   3.141  13.162  0.4642  0.1336  2.0469
14331TIP3   OH264483   1.715   2.826   3.970 -0.3832 -0.5492 -0.0032
14331TIP3    H164484   1.741   2.918   3.980  0.2912 -0.4878 -1.8946
14331TIP3    H264485   1.622   2.825   3.992 -0.2212  0.4171  0.8245
14332TIP3   OH264486   3.734   4.345  13.962 -0.5626 -1.1739  0.0059
14332TIP3    H164487   3.706   4.339  14.053 -3.0838  3.9298 -0.0788
14332TIP3    H264488   3.812   4.400  13.964 -3.7002  4.0501 -0.7364
14333TIP3   OH264489   3.681   1.493   3.447  0.4211  0.0408  0.4398
14333TIP3    H164490   3.624   1.459   3.378  0.7650 -0.2450  0.2933
14333TIP3    H264491   3.750   1.540   3.400  0.6997 -0.2222  0.5850
14334TIP3   OH264492   6.285   4.100   0.623 -0.1534  0.3624  0.0767
14334TIP3    H164493   6.317   4.022   0.578  0.4616 -0.2700  1.5229
14334TIP3    H264494   6.222   4.066   0.688  0.2964  1.0260  0.8859
14335TIP3   OH264495   2.314   0.810  13.457  0.0325  0.3692  0.5931
14335TIP3    H164496   2.340   0.724  13.423 -0.7536 -0.4713  2.0154
14335TIP3    H264497   2.269   0.790  13.539 -2.0684  2.0057 -0.1006
14336TIP3   OH264498   0.674   2.312   5.950  0.6704  0.0018 -0.0840
14336TIP3    H164499   0.763   2.348   5.955  1.1691 -1.3107  3.7577
14336TIP3    H264500   0.684   2.219   5.973 -1.3951 -1.0669 -2.8653
14337TIP3   OH264501   6.303   6.714  12.388 -0.3365  0.2079 -0.2230
14337TIP3    H164502   6.291   6.721  12.293 -0.6646  1.2581 -0.1202
14337TIP3    H264503   6.215   6.724  12.424 -0.2836 -0.6964  0.1762
14338TIP3   OH264504   0.216   1.889   4.967 -0.3605  0.1930  0.1239
14338TIP3    H164505   0.292   1.839   4.939 -0.1025  0.0419  1.0495
14338TIP3    H264506   0.185   1.843   5.046 -1.7908 -0.1144 -0.5937
14339TIP3   OH264507   6.181   3.276   4.694 -0.5175  0.9576 -0.0794
14339TIP3    H164508   6.147   3.188   4.676 -0.5107  0.7035  1.0272
14339TIP3    H264509   6.215   3.270   4.784  0.6244  1.7529 -0.4377
14340TIP3   OH264510   5.092   3.080  11.858  0.1468 -0.2250 -0.1176
14340TIP3    H164511   5.027   3.016  11.830  0.2067 -1.1789  1.7834
14340TIP3    H264512   5.048   3.165  11.848 -0.8845 -0.7531 -0.1592
14341TIP3   OH264513   4.432   2.951   0.877  0.4614  0.3308  0.3511
14341TIP3    H164514   4.433   3.043   0.849 -0.8861 -0.0040 -0.9400
14341TIP3    H264515   4.463   2.903   0.800 -1.5754 -0.4842 -0.0079
14342TIP3   OH264516   2.888   5.325  12.754 -0.5244 -0.3337 -0.4508
14342TIP3    H164517   2.953   5.309  12.686 -0.1566  0.4782 -0.2986
14342TIP3    H264518   2.933   5.304  12.836 -0.4482  0.1967 -0.3480
14343TIP3   OH264519   2.587   0.235  12.954  0.4525  0.3656 -0.3333
14343TIP3    H164520   2.618   0.147  12.974  1.0630  0.8692  1.0726
14343TIP3    H264521   2.643   0.264  12.882 -0.6015 -0.8360 -1.6943
14344TIP3   OH264522   4.799   1.624  17.195 -0.1077 -0.3004 -0.5354
14344TIP3    H164523   4.840   1.556  17.248  0.5471 -0.4655 -1.2437
14344TIP3    H264524   4.840   1.706  17.223 -0.4083 -0.2707 -0.1649
14345TIP3   OH264525   2.386   5.982   0.962  0.1978  0.2306  0.5837
14345TIP3    H164526   2.303   6.023   0.937 -0.2748  0.1232  1.9152
14345TIP3    H264527   2.365   5.931   1.040  1.1788 -1.0881  0.0258
14346TIP3   OH264528   4.388   5.929  11.040  0.1513 -0.2366  0.0562
14346TIP3    H164529   4.402   5.838  11.016 -1.8285 -0.6626  0.3807
14346TIP3    H264530   4.432   5.979  10.971  2.2571 -1.3900  0.4931
14347TIP3   OH264531   4.131   0.873  13.911  1.0180  0.5921 -0.1281
14347TIP3    H164532   4.167   0.924  13.839  0.7789  1.6924  0.5005
14347TIP3    H264533   4.067   0.932  13.953  0.1663 -0.4875  0.1658
14348TIP3   OH264534   3.381   2.597   3.954 -0.2169  0.3982 -0.0904
14348TIP3    H164535   3.453   2.577   4.015  0.6491 -0.0362 -1.2278
14348TIP3    H264536   3.373   2.519   3.900 -0.9056  0.8193 -0.6048
14349TIP3   OH264537   0.787   1.023   0.283  0.0106 -0.4553  0.4880
14349TIP3    H164538   0.864   1.020   0.340 -0.2584 -0.0073  0.8896
14349TIP3    H264539   0.740   1.102   0.312 -1.0095 -1.1601  0.7961
14350TIP3   OH264540   1.366   5.142   4.932 -0.4254 -0.1312 -0.2435
14350TIP3    H164541   1.312   5.081   4.982  1.2738 -0.4552  1.2944
14350TIP3    H264542   1.448   5.095   4.917  0.7674  1.5869  0.6051
14351TIP3   OH264543   6.516   4.221  10.665  0.5333 -0.9099  0.0787
14351TIP3    H164544   6.438   4.258  10.705  1.2175 -0.3426  0.9361
14351TIP3    H264545   6.549   4.290  10.607  0.3403 -1.1871 -0.3632
14352TIP3   OH264546   6.570   3.563   0.508  0.5453 -0.0959 -0.9706
14352TIP3    H164547   6.486   3.575   0.553  0.4449  0.4671 -1.3114
14352TIP3    H264548   6.577   3.468   0.496  1.4299 -0.5039  1.8949
14353TIP3   OH264549   6.048   3.715  15.007 -0.1508 -0.4190  0.4243
14353TIP3    H164550   5.968   3.755  15.041  0.4054  1.0669  0.0768
14353TIP3    H264551   6.099   3.788  14.972  1.1757 -1.3788  0.2352
14354TIP3   OH264552   4.855   4.846  13.277  0.4742 -0.3129  0.2409
14354TIP3    H164553   4.886   4.797  13.201 -0.4759 -1.0628  0.3104
14354TIP3    H264554   4.783   4.793  13.311 -1.6338  1.8500 -0.5622
14355TIP3   OH264555   2.038   4.864   2.210 -0.3329 -0.1792  0.0696
14355TIP3    H164556   2.061   4.777   2.243 -1.6422 -0.5495  0.0750
14355TIP3    H264557   2.077   4.925   2.272  1.1314 -0.7324 -0.2781
14356TIP3   OH264558   4.119   6.396   2.361  0.6459  0.0945 -0.5955
14356TIP3    H164559   4.088   6.479   2.326 -1.0601  0.4120  1.4196
14356TIP3    H264560   4.183   6.420   2.428  0.4894 -0.2092 -0.3290
14357TIP3   OH264561   3.404   3.195  15.576 -0.1621 -0.3619  1.0534
14357TIP3    H164562   3.473   3.253  15.608  1.4774 -1.3774 -0.4596
14357TIP3    H264563   3.330   3.254  15.559  1.1080  1.1652  0.5096
14358TIP3   OH264564   4.519   0.003   4.432 -0.3913 -0.3969  0.1880
14358TIP3    H164565   4.565   0.085   4.411  0.0579 -0.0623  2.2188
14358TIP3    H264566   4.569  -0.064   4.386  1.6129  0.0861  1.4738
14359TIP3   OH264567   3.101   1.558  13.852  0.1608  0.5827 -0.2318
14359TIP3    H164568   3.132   1.502  13.781 -2.3168  2.0411 -2.6745
14359TIP3    H264569   3.126   1.646  13.825 -0.7151  1.1650  0.7832
14360TIP3   OH264570   2.260   3.710  10.978 -0.1356 -0.0856 -0.3455
14360TIP3    H164571   2.300   3.645  10.920 -0.4508  0.1001 -0.7794
14360TIP3    H264572   2.313   3.708  11.057 -0.6228 -1.4567 -0.0318
14361TIP3   OH264573   0.070   0.701  14.446  0.0089  0.4591 -0.2774
14361TIP3    H164574   0.149   0.734  14.487 -0.4194  1.7730 -0.4732
14361TIP3    H264575   0.033   0.776  14.399 -0.7181 -0.4285 -1.1828
14362TIP3   OH264576   4.180   1.599   5.641 -0.5599 -0.4107 -0.1766
14362TIP3    H164577   4.224   1.648   5.710 -0.2738 -0.3556 -0.3986
14362TIP3    H264578   4.109   1.657   5.612  0.8287  0.6501 -1.6436
14363TIP3   OH264579   4.781   1.656   0.442 -0.5322 -0.5023  0.3783
14363TIP3    H164580   4.779   1.563   0.465  0.2288 -0.7118 -0.3287
14363TIP3    H264581   4.813   1.699   0.521  2.0232 -1.2033 -0.1734
14364TIP3   OH264582   5.753   4.335  11.943  0.2017 -0.7445 -0.8255
14364TIP3    H164583   5.716   4.251  11.916 -0.6301 -0.3704 -0.8776
14364TIP3    H264584   5.750   4.333  12.039 -0.1312 -0.6380 -0.8338
14365TIP3   OH264585   3.251   3.312  17.120  0.1283 -0.0297 -0.6271
14365TIP3    H164586   3.314   3.277  17.056  1.0000  0.9887 -0.3621
14365TIP3    H264587   3.203   3.379  17.071  0.6359  0.5877 -0.2879
14366TIP3   OH264588   4.174   5.707   5.855  0.0938  0.1260 -0.2534
14366TIP3    H164589   4.186   5.613   5.837  1.0010 -0.0025  0.9012
14366TIP3    H264590   4.081   5.716   5.875  0.0441 -0.5640 -0.1582
14367TIP3   OH264591   4.486   3.449   2.380  0.5121  0.2359 -0.1232
14367TIP3    H164592   4.498   3.355   2.391 -0.9845  0.0905  0.5875
14367TIP3    H264593   4.522   3.488   2.460 -0.1576  0.1252  0.2439
14368TIP3   OH264594   2.354   0.691   3.143 -0.0759  0.3978 -0.0505
14368TIP3    H164595   2.378   0.725   3.057  1.1346 -0.3429 -0.0250
14368TIP3    H264596   2.260   0.671   3.135  0.0112  0.3743 -1.1906
14369TIP3   OH264597   2.913   1.321  12.186  0.0157 -0.1448 -0.1334
14369TIP3    H164598   2.979   1.253  12.187  1.0585  0.7909 -1.4308
14369TIP3    H264599   2.904   1.345  12.093 -3.8414 -1.8142 -0.3916
14370TIP3   OH264600   1.304   4.216   5.345 -0.1449 -0.3329  0.3057
14370TIP3    H164601   1.265   4.250   5.426 -2.9078 -0.4543 -0.8333
14370TIP3    H264602   1.279   4.280   5.278  1.0328 -0.8512 -0.6654
14371TIP3   OH264603   4.660   3.745  10.869  0.0720  0.3882 -0.5518
14371TIP3    H164604   4.701   3.658  10.860 -1.7091 -0.8044  1.7426
14371TIP3    H264605   4.657   3.759  10.964 -0.3120  2.6972 -0.8688
14372TIP3   OH264606   0.563   3.351  12.996 -0.7184 -0.1089  0.7415
14372TIP3    H164607   0.541   3.385  13.082  0.6046 -0.5605  1.2838
14372TIP3    H264608   0.552   3.256  13.004  2.5437 -0.5437  1.4827
14373TIP3   OH264609   6.013   5.207   4.388 -0.3376  0.1387  1.3386
14373TIP3    H164610   5.945   5.140   4.394  1.0248 -1.4203  0.2010
14373TIP3    H264611   6.033   5.213   4.294 -0.1149  1.8446  1.4610
14374TIP3   OH264612   5.237   5.740  14.772  0.3300  0.2309  0.4346
14374TIP3    H164613   5.274   5.825  14.745 -0.0866  0.2741 -0.0218
14374TIP3    H264614   5.181   5.761  14.847  0.5030  0.3043  0.5445
14375TIP3   OH264615   1.590   6.268   1.339  0.2708 -0.3008  0.2819
14375TIP3    H164616   1.580   6.287   1.432 -1.3757 -0.9125  0.2593
14375TIP3    H264617   1.563   6.177   1.330  0.0022 -0.1229 -0.8578
14376TIP3   OH264618   1.587   3.466  15.456 -0.0300  0.6428  0.5856
14376TIP3    H164619   1.581   3.448  15.362 -1.5582  0.6294  0.6515
14376TIP3    H264620   1.679   3.485  15.471  0.1625  1.1398 -1.0137
14377TIP3   OH264621   5.904   2.396  15.696 -0.3333  0.3392  0.1176
14377TIP3    H164622   5.875   2.395  15.605  1.5396 -1.1958 -0.5479
14377TIP3    H264623   5.977   2.458  15.697 -0.6113  0.6671  0.6877
14378TIP3   OH264624   2.811   5.944   2.908  0.4826 -0.0118 -0.0806
14378TIP3    H164625   2.775   5.925   2.821  0.2639 -1.1733  0.2477
14378TIP3    H264626   2.897   5.903   2.909  0.8393  0.7138 -0.0267
14379TIP3   OH264627   5.049   0.643   1.364  0.4587  0.2621 -0.1515
14379TIP3    H164628   5.057   0.548   1.369 -0.8228  0.2002  1.4673
14379TIP3    H264629   4.983   0.658   1.297  1.9901  0.1394 -1.7716
14380TIP3   OH264630   5.495   5.301   0.031  0.2137 -0.3722  0.2402
14380TIP3    H164631   5.461   5.372  -0.023 -0.0404 -0.0785  0.7712
14380TIP3    H264632   5.516   5.343   0.115  0.6925 -0.7976  0.3402
14381TIP3   OH264633   6.000   0.516  13.627  0.3074  0.6663  0.7059
14381TIP3    H164634   5.938   0.533  13.556  1.0752  0.6895  0.0216
14381TIP3    H264635   5.948   0.522  13.707 -0.0806  3.2524  0.3324
14382TIP3   OH264636   5.301   2.103   2.959 -0.2363  0.1103  0.2398
14382TIP3    H164637   5.263   2.117   3.045  0.7158  1.3149  0.5030
14382TIP3    H264638   5.394   2.090   2.976 -0.0866  0.0651 -0.5807
14383TIP3   OH264639   4.135   5.491  12.410 -0.1482 -0.0933 -0.3600
14383TIP3    H164640   4.154   5.529  12.496 -0.2432  2.8567 -1.5469
14383TIP3    H264641   4.065   5.428  12.426  1.5424 -1.5646  2.0596
14384TIP3   OH264642   5.791   1.129   1.068  0.7765  0.5742 -1.0472
14384TIP3    H164643   5.752   1.216   1.059 -1.2529 -0.1822 -0.1669
14384TIP3    H264644   5.723   1.077   1.110  2.4388 -1.1139 -0.3337
14385TIP3   OH264645   4.296   5.476  15.830 -0.3812 -0.5826  0.3135
14385TIP3    H164646   4.273   5.387  15.804  1.6237 -1.1970  0.4091
14385TIP3    H264647   4.261   5.532  15.760  0.3412 -1.6913 -0.9839
14386TIP3   OH264648   6.362   5.496   4.988 -0.4563  0.2863  0.0887
14386TIP3    H164649   6.340   5.489   4.895  0.0372  0.3750 -0.0372
14386TIP3    H264650   6.442   5.549   4.990  0.9275 -1.6973  0.3592
14387TIP3   OH264651   5.173   1.621   4.427  0.3038 -0.5947  0.5934
14387TIP3    H164652   5.211   1.544   4.468  1.3168  0.1519  1.0943
14387TIP3    H264653   5.152   1.593   4.338  3.5647 -0.6370 -0.2704
14388TIP3   OH264654   1.006   4.241  15.002  0.1154 -0.5146  0.3269
14388TIP3    H164655   1.023   4.197  15.086  0.1389 -0.7975  0.1749
14388TIP3    H264656   0.911   4.244  14.996 -0.0587  2.9491  2.1734
14389TIP3   OH264657   3.629   4.131  12.125  0.2487  0.2332  0.4685
14389TIP3    H164658   3.693   4.125  12.196  0.6571  0.1745  0.1015
14389TIP3    H264659   3.680   4.159  12.049 -0.3981  1.4957  0.4735
14390TIP3   OH264660   3.419   2.220  16.539 -0.1266 -0.0738  0.2393
14390TIP3    H164661   3.378   2.137  16.515 -0.2420 -0.1002  0.5279
14390TIP3    H264662   3.492   2.195  16.595  2.6144 -0.3537 -3.0897
14391TIP3   OH264663   5.631   5.544  12.913  0.3635 -0.7651 -0.3727
14391TIP3    H164664   5.595   5.458  12.890 -1.2795 -0.0447 -0.6292
14391TIP3    H264665   5.707   5.524  12.967 -1.3239 -2.3933  1.6087
14392TIP3   OH264666   4.960   0.427   0.412 -0.2531 -0.1609  0.0252
14392TIP3    H164667   4.886   0.384   0.369  0.5082  1.0206 -2.7285
14392TIP3    H264668   4.962   0.514   0.374  0.7142  0.9284  2.3921
14393TIP3   OH264669   4.912   4.941   1.466  0.0646 -0.4913 -0.4734
14393TIP3    H164670   4.838   4.950   1.406  0.5036  0.5350 -0.8900
14393TIP3    H264671   4.987   4.923   1.410  0.4687  0.4083 -0.2419
14394TIP3   OH264672   0.468   3.721  11.042 -0.4367  0.2455 -0.4669
14394TIP3    H164673   0.476   3.802  10.992 -1.6333  0.1417 -0.8569
14394TIP3    H264674   0.540   3.666  11.011 -0.8684  0.3630 -1.7473
14395TIP3   OH264675   1.778   4.003   3.527 -0.3285 -0.1373  0.3088
14395TIP3    H164676   1.867   3.990   3.495 -0.7694  0.1073 -1.0584
14395TIP3    H264677   1.738   3.916   3.526 -1.1268  0.1779 -2.3050
14396TIP3   OH264678   2.957   3.762   4.402 -0.1771  0.6139 -0.0191
14396TIP3    H164679   3.051   3.748   4.413  0.1366  2.8931  0.7188
14396TIP3    H264680   2.929   3.691   4.344  2.0974  0.1865 -0.6997
14397TIP3   OH264681   4.856   2.676   6.196  0.4094 -0.2524  0.5028
14397TIP3    H164682   4.873   2.586   6.225 -0.8687 -0.3606  0.9572
14397TIP3    H264683   4.942   2.718   6.198  1.2131 -1.7320 -0.6877
14398TIP3   OH264684   1.025   3.939   5.819  0.0979 -0.3818 -0.2982
14398TIP3    H164685   1.020   3.862   5.875 -1.3317 -0.1292 -0.0418
14398TIP3    H264686   0.936   3.975   5.819  0.8707  1.6608  0.1603
14399TIP3   OH264687   5.644   6.597   6.398 -0.6611 -0.3606 -0.6394
14399TIP3    H164688   5.728   6.556   6.377 -0.6971  0.6280 -3.0338
14399TIP3    H264689   5.588   6.524   6.425  1.3577 -0.8627  2.8767
14400TIP3   OH264690   2.510   6.636  16.570 -0.4652  0.5598 -0.0715
14400TIP3    H164691   2.504   6.555  16.621 -0.5362  0.3185 -0.4570
14400TIP3    H264692   2.421   6.651  16.539 -0.2353  0.1640 -0.9471
14401TIP3   OH264693   1.379   4.781  12.677 -0.5150 -0.1844  0.3027
14401TIP3    H164694   1.343   4.765  12.764 -0.8262  0.9035  0.3838
14401TIP3    H264695   1.356   4.872  12.658  1.4333  0.2979  0.0098
14402TIP3   OH264696   6.332   1.138  13.093 -0.6083  0.0581 -0.2758
14402TIP3    H164697   6.240   1.136  13.067 -0.0366  0.6057 -2.5948
14402TIP3    H264698   6.379   1.101  13.018  1.1496  0.7398  0.4229
14403TIP3   OH264699   6.280   6.299   1.133 -0.1773 -0.3889 -0.4220
14403TIP3    H164700   6.341   6.225   1.135  0.6890  0.3199  0.3589
14403TIP3    H264701   6.236   6.292   1.048 -0.2645 -1.9033 -0.2857
14404TIP3   OH264702   3.382   3.592   4.994 -0.0205  0.2542  0.2805
14404TIP3    H164703   3.424   3.657   5.051  0.6420  0.0205  0.0730
14404TIP3    H264704   3.368   3.638   4.911 -0.1932  0.3383  0.3560
14405TIP3   OH264705   0.071   4.576   3.466 -0.1987 -0.0075 -0.2680
14405TIP3    H164706   0.058   4.667   3.441 -2.0071 -0.7672 -2.3966
14405TIP3    H264707  -0.007   4.555   3.518 -0.0972 -0.5268 -0.3255
14406TIP3   OH264708   4.466   4.602   5.314  0.5987  0.2647 -0.6800
14406TIP3    H164709   4.549   4.560   5.292  0.5223 -0.5476  0.5094
14406TIP3    H264710   4.453   4.582   5.407 -1.7301 -1.0298 -1.2214
14407TIP3   OH264711   2.779   6.397   5.899  0.3210  0.4629 -0.3859
14407TIP3    H164712   2.714   6.466   5.891  0.2213  0.5020  0.6214
14407TIP3    H264713   2.861   6.443   5.918  0.0449  0.2838  1.4160
14408TIP3   OH264714   3.584   4.332  16.758 -0.3059  0.3178 -0.0617
14408TIP3    H164715   3.660   4.373  16.799  0.7006 -2.1920  0.8094
14408TIP3    H264716   3.605   4.238  16.758 -3.2729 -0.4484 -0.0513
14409TIP3   OH264717   4.347   5.326  12.698 -0.2123 -0.7572  0.7527
14409TIP3    H164718   4.347   5.393  12.767  0.0367  1.1487 -1.0215
14409TIP3    H264719   4.424   5.345  12.646 -1.5879 -0.7035 -1.3685
14410TIP3   OH264720   4.302   1.361   4.438 -0.2633 -0.6081 -0.2757
14410TIP3    H164721   4.262   1.445   4.461  0.2773 -1.2622  3.9494
14410TIP3    H264722   4.376   1.384   4.383  0.2505  1.8537  1.2725
14411TIP3   OH264723   2.807   5.922   5.299  0.0830  0.0247 -0.2118
14411TIP3    H164724   2.811   5.909   5.204 -0.0918 -0.9198 -0.0992
14411TIP3    H264725   2.834   5.838   5.336 -0.8768  0.0459  0.5698
14412TIP3   OH264726   4.960   4.710  13.595 -0.0058 -0.5572 -0.0900
14412TIP3    H164727   4.909   4.631  13.615 -1.2189  0.1474 -0.3608
14412TIP3    H264728   4.908   4.782  13.629  1.6659  0.0791  1.2630
14413TIP3   OH264729   3.857   2.667   3.315  0.3548  0.7596  0.6725
14413TIP3    H164730   3.913   2.743   3.299 -0.0960  1.2113  1.2071
14413TIP3    H264731   3.827   2.678   3.405  0.4535 -0.1665  0.8285
14414TIP3   OH264732   4.056   0.995  14.837  0.0102 -0.2650 -0.1645
14414TIP3    H164733   4.044   1.088  14.821  2.1329  0.1236  0.1418
14414TIP3    H264734   3.968   0.961  14.853 -0.8392  1.6024 -0.6324
14415TIP3   OH264735   2.346   2.171  17.292  0.1100 -0.1074 -0.1514
14415TIP3    H164736   2.414   2.217  17.340 -0.2765 -0.6529  0.9488
14415TIP3    H264737   2.390   2.138  17.214  0.8168  0.5466 -0.0377
14416TIP3   OH264738   0.227   2.179  14.158  0.2201 -0.3022  0.2367
14416TIP3    H164739   0.162   2.247  14.180 -0.6971 -1.1613  0.2781
14416TIP3    H264740   0.311   2.221  14.175 -0.2833  1.0658 -0.4295
14417TIP3   OH264741   5.417   6.081   5.493  0.7535  0.8194  0.3376
14417TIP3    H164742   5.405   6.126   5.410  0.8127  1.1966  0.5330
14417TIP3    H264743   5.435   5.990   5.468 -1.7126  0.3453 -0.0028
14418TIP3   OH264744   0.120   4.884   2.708 -0.5499  0.0722  0.2036
14418TIP3    H164745   0.025   4.878   2.696 -1.0489  1.0857  2.8944
14418TIP3    H264746   0.139   4.819   2.776  0.6467  0.0874 -0.0975
14419TIP3   OH264747   6.355   3.074  16.644  0.3933  0.3940 -0.2771
14419TIP3    H164748   6.397   3.087  16.559  0.1986 -2.2979 -0.8759
14419TIP3    H264749   6.287   3.141  16.647  1.6289  1.7788 -1.3718
14420TIP3   OH264750   2.085   3.391  14.188 -0.2019 -0.4561 -0.0266
14420TIP3    H164751   2.069   3.478  14.225  2.4110 -0.2682  0.8674
14420TIP3    H264752   2.000   3.348  14.189 -1.0396  1.0858  2.2648
14421TIP3   OH264753   1.188   3.820  13.112  0.2523 -0.7239 -0.1901
14421TIP3    H164754   1.221   3.865  13.034  0.8735 -0.2878  0.3205
14421TIP3    H264755   1.266   3.785  13.155 -0.1498 -1.5899 -0.1340
14422TIP3   OH264756   0.083   2.953  15.623 -0.1108  0.7231 -0.2158
14422TIP3    H164757   0.014   2.891  15.602  0.2954 -0.5128  1.8888
14422TIP3    H264758   0.037   3.034  15.645 -0.8497  0.1673  0.3103
14423TIP3   OH264759   6.190   1.479   4.780  0.4079 -0.2315 -0.0146
14423TIP3    H164760   6.282   1.486   4.755  0.4748 -0.1253  0.2599
14423TIP3    H264761   6.145   1.450   4.701  0.5662  0.4376 -0.3495
14424TIP3   OH264762   3.056   6.540   5.449 -0.3719 -0.1966 -0.2638
14424TIP3    H164763   3.134   6.573   5.405  1.0487 -0.4102  1.9199
14424TIP3    H264764   2.983   6.583   5.404  1.1542  2.6433 -0.3024
14425TIP3   OH264765   5.370   3.058  11.818 -0.7640  0.1998  0.5727
14425TIP3    H164766   5.427   3.070  11.894 -1.9453 -2.7727  2.1034
14425TIP3    H264767   5.282   3.054  11.855 -1.5765  0.7568 -1.2368
14426TIP3   OH264768   5.036   4.497  16.442 -0.0462  0.2008 -0.0516
14426TIP3    H164769   4.950   4.532  16.418 -0.0727 -1.1966 -2.3585
14426TIP3    H264770   5.097   4.569  16.426 -0.4944  0.3725 -1.0515
14427TIP3   OH264771   0.098   4.050   3.295 -0.2483 -0.1570  0.1648
14427TIP3    H164772   0.054   4.061   3.211  0.7991  0.1088 -0.3702
14427TIP3    H264773   0.112   4.140   3.327 -2.2962 -0.2533  1.5578
14428TIP3   OH264774   5.027   3.972   1.664  0.1232 -0.1642 -0.4453
14428TIP3    H164775   5.012   4.042   1.601  2.8782  0.0277 -1.0240
14428TIP3    H264776   5.072   3.904   1.614  1.3423 -0.4946  1.0205
14429TIP3   OH264777   0.769   5.382  12.452  0.5435 -0.2968  0.4768
14429TIP3    H164778   0.790   5.292  12.474 -2.6345 -0.9905  1.1450
14429TIP3    H264779   0.749   5.424  12.536  0.1505  0.4812  0.0102
14430TIP3   OH264780   5.569   1.826   0.167 -0.0033  0.3120 -0.0872
14430TIP3    H164781   5.609   1.801   0.083 -1.1955 -1.0542 -0.2881
14430TIP3    H264782   5.547   1.743   0.209 -0.3619  0.9967  1.1219
14431TIP3   OH264783   2.430   3.852   0.659 -0.5012 -0.0583  0.1629
14431TIP3    H164784   2.423   3.944   0.685 -1.3626  0.0182 -0.3256
14431TIP3    H264785   2.523   3.832   0.669 -0.3480  0.7852  0.5392
14432TIP3   OH264786   5.663   6.269   4.526 -0.3671 -0.1549 -0.1152
14432TIP3    H164787   5.606   6.326   4.474  0.3560  0.5339 -0.1666
14432TIP3    H264788   5.696   6.204   4.464  1.9623  1.7474 -1.0144
14433TIP3   OH264789   4.216   2.767   2.410  0.3145  0.0568 -0.0243
14433TIP3    H164790   4.171   2.839   2.454  2.7757  1.4035  0.4857
14433TIP3    H264791   4.181   2.688   2.452 -0.6828  1.0743  1.1438
14434TIP3   OH264792   4.478   1.073   0.977 -0.6395 -0.4716  0.2514
14434TIP3    H164793   4.482   0.987   0.934  0.0462  0.4987 -1.7150
14434TIP3    H264794   4.458   1.052   1.069  2.4399 -2.9190  0.5294
14435TIP3   OH264795   3.532   5.262  10.447 -0.3680  0.1123  0.6398
14435TIP3    H164796   3.616   5.254  10.492  0.1475  0.7580 -0.1710
14435TIP3    H264797   3.536   5.198  10.376 -1.4133 -1.3221  1.8107
14436TIP3   OH264798   5.601   2.143  15.608  0.0068 -0.5822  0.1415
14436TIP3    H164799   5.604   2.224  15.659 -0.6483 -1.8519  2.3618
14436TIP3    H264800   5.677   2.147  15.551 -0.5304  1.9919 -0.5168
14437TIP3   OH264801   1.537   2.574   1.851 -0.5550  0.3793 -0.2436
14437TIP3    H164802   1.543   2.652   1.906  2.7107 -0.4706  0.8242
14437TIP3    H264803   1.561   2.604   1.764  4.1664  0.2475  0.7438
14438TIP3   OH264804   2.777   3.054  13.304  0.1179  0.0819  0.2062
14438TIP3    H164805   2.708   2.988  13.296  1.7814 -1.8404  0.7561
14438TIP3    H264806   2.769   3.088  13.393  0.6659 -1.1374  0.7489
14439TIP3   OH264807   1.895   1.138   1.008 -0.4160  0.0412 -0.2440
14439TIP3    H164808   1.911   1.058   1.058 -0.9680  0.1958  0.1855
14439TIP3    H264809   1.930   1.208   1.063  1.9446 -0.0428 -1.4956
14440TIP3   OH264810   1.597   3.072  11.532  0.3058  0.3619  0.1609
14440TIP3    H164811   1.648   3.014  11.476 -0.6819 -1.9311  1.4951
14440TIP3    H264812   1.659   3.103  11.598  0.8800  0.9888 -0.6599
14441TIP3   OH264813   0.280   3.155  12.256 -0.3366  0.1785  0.6892
14441TIP3    H164814   0.300   3.223  12.192 -0.3961  0.3853  0.8877
14441TIP3    H264815   0.322   3.184  12.337  0.1822 -0.3410  0.6119
14442TIP3   OH264816   0.678   5.785   5.362 -1.1751  0.8167 -0.1526
14442TIP3    H164817   0.674   5.727   5.286 -0.4563  0.5503 -0.0043
14442TIP3    H264818   0.651   5.870   5.329 -2.5024  0.3531 -0.3133
14443TIP3   OH264819   0.940   2.044  15.285 -0.3797  0.1445  0.1289
14443TIP3    H164820   0.968   2.054  15.376  1.5174  0.7801 -0.4576
14443TIP3    H264821   0.877   1.973  15.286  0.6814 -0.8393  1.7469
14444TIP3   OH264822   4.915   5.004   4.772 -0.4738  0.2180 -0.0572
14444TIP3    H164823   4.931   4.972   4.683  2.3899 -1.5699  0.9602
14444TIP3    H264824   4.820   5.003   4.780 -0.8534  0.4434 -3.0528
14445TIP3   OH264825   3.802   0.489   4.755  0.0452  0.2840 -0.0458
14445TIP3    H164826   3.886   0.475   4.799  0.4248  0.4919 -0.6918
14445TIP3    H264827   3.766   0.401   4.744  0.1116  0.2054  0.3604
14446TIP3   OH264828   2.804   3.268   3.579  0.8394 -0.2928 -0.0436
14446TIP3    H164829   2.873   3.314   3.532  2.9090 -1.6761  1.4946
14446TIP3    H264830   2.781   3.327   3.651  0.0641  0.3560 -0.8023
14447TIP3   OH264831   3.183   0.254   0.937  0.1957  0.7339 -0.8891
14447TIP3    H164832   3.168   0.349   0.935  1.2319  0.9414  0.1677
14447TIP3    H264833   3.264   0.242   0.888  1.0943  0.6359  0.5726
14448TIP3   OH264834   4.874   3.755   0.493 -0.4051 -0.2141 -0.7926
14448TIP3    H164835   4.834   3.835   0.460 -0.0677 -0.6114 -2.2545
14448TIP3    H264836   4.824   3.733   0.572 -2.4066 -0.1340 -1.9904
14449TIP3   OH264837   6.723   3.747  11.587 -0.3822 -0.0986 -0.0124
14449TIP3    H164838   6.721   3.803  11.509 -0.5997  2.0738  1.4583
14449TIP3    H264839   6.749   3.661  11.555 -0.5699  0.7059 -2.4785
14450TIP3   OH264840   6.138   3.235  16.704 -0.5909 -0.2906 -0.4216
14450TIP3    H164841   6.169   3.278  16.784  1.0299 -1.1697 -0.5377
14450TIP3    H264842   6.063   3.183  16.732 -0.0735 -0.5513  0.5300
14451TIP3   OH264843   0.393   5.256  13.050 -0.0691 -0.1335 -0.2481
14451TIP3    H164844   0.418   5.346  13.027  0.8635 -0.4039 -0.3464
14451TIP3    H264845   0.341   5.265  13.130  1.8719  0.3566  1.0332
14452TIP3   OH264846   6.322   6.179  13.892 -0.2741  0.7600 -0.5818
14452TIP3    H164847   6.384   6.117  13.931 -0.5473  0.0676 -1.2357
14452TIP3    H264848   6.250   6.125  13.860 -1.1143  1.5316 -0.0577
14453TIP3   OH264849   5.377   0.002  16.284 -0.6276 -0.4467 -0.1172
14453TIP3    H164850   5.397  -0.063  16.216 -2.3199 -0.7367 -0.3899
14453TIP3    H264851   5.370  -0.048  16.365 -0.6449 -0.4080 -0.0941
14454TIP3   OH264852   1.126   3.621   5.216  0.7629  0.0280 -0.2033
14454TIP3    H164853   1.103   3.707   5.251  2.0961  1.0561 -1.7456
14454TIP3    H264854   1.166   3.575   5.290  1.3895  1.2765  0.2451
14455TIP3   OH264855   3.726   5.714  11.194 -0.2471  0.0023  0.4294
14455TIP3    H164856   3.725   5.627  11.154 -0.0598  0.0533  0.3123
14455TIP3    H264857   3.782   5.704  11.271  1.2862  0.4477 -0.5814
14456TIP3   OH264858   4.641   1.223   5.727 -0.8349 -0.3246 -0.1675
14456TIP3    H164859   4.590   1.295   5.764  0.0866  0.4371 -0.3553
14456TIP3    H264860   4.626   1.150   5.787  0.8299  0.9401  1.9269
14457TIP3   OH264861   4.642   5.987   3.818 -0.2260 -0.4484 -0.3097
14457TIP3    H164862   4.676   5.929   3.750 -0.4521 -0.7810 -0.1470
14457TIP3    H264863   4.575   5.934   3.863  0.0890 -0.3222  0.3236
14458TIP3   OH264864   1.182   3.329  15.530  0.0757  0.2761 -0.9009
14458TIP3    H164865   1.137   3.395  15.582  0.4946  1.3928 -1.9226
14458TIP3    H264866   1.155   3.246  15.568 -0.9508  1.0114  0.0128
14459TIP3   OH264867   1.896   3.008  16.945  0.5334 -0.1360  0.2515
14459TIP3    H164868   1.888   3.072  16.875  1.1923 -1.9336 -1.5676
14459TIP3    H264869   1.811   3.010  16.990 -0.2205  0.4540 -1.1393
14460TIP3   OH264870   4.729   1.383  13.731 -0.3226 -0.4658 -0.3540
14460TIP3    H164871   4.634   1.374  13.726 -0.3941  0.8342 -2.3536
14460TIP3    H264872   4.750   1.451  13.667  1.8217  0.3194  1.0709
14461TIP3   OH264873   4.147   0.142   1.866 -0.1530 -0.1634  0.4153
14461TIP3    H164874   4.195   0.077   1.917 -0.4282 -0.9837 -0.3488
14461TIP3    H264875   4.212   0.177   1.804  0.5104  1.7260  2.0832
14462TIP3   OH264876   0.564   1.430  16.041 -0.1608  0.1185  0.0190
14462TIP3    H164877   0.648   1.383  16.046  1.4292  2.8273  1.2095
14462TIP3    H264878   0.547   1.438  15.947  1.1745 -0.0942 -0.2661
14463TIP3   OH264879   1.879   4.596   2.011 -0.6310  0.0657 -0.0317
14463TIP3    H164880   1.905   4.688   2.010  0.6711 -0.2794 -0.4135
14463TIP3    H264881   1.858   4.578   2.103  2.2206 -0.0450  0.6747
14464TIP3   OH264882   6.740   5.396  14.179  0.0895  0.0753  0.7289
14464TIP3    H164883   6.665   5.339  14.165  0.4287 -0.3633  0.6657
14464TIP3    H264884   6.741   5.412  14.273  0.0773 -0.1447  0.7672
14465TIP3   OH264885   3.928   6.378  15.635 -0.3401 -0.4890 -0.6591
14465TIP3    H164886   3.958   6.469  15.641 -1.5844 -0.1193  0.4883
14465TIP3    H264887   3.931   6.357  15.542  0.9559  0.3677 -0.8314
14466TIP3   OH264888   3.514   0.270   2.161  0.6292 -0.1177  0.1063
14466TIP3    H164889   3.493   0.232   2.075  0.1632 -0.3479  0.3143
14466TIP3    H264890   3.440   0.246   2.216  1.7730 -1.6128  1.0833
14467TIP3   OH264891   2.966   6.375  16.447  0.6978 -0.1523  0.2871
14467TIP3    H164892   2.951   6.381  16.353  1.0506 -1.1089  0.1628
14467TIP3    H264893   3.005   6.459  16.471 -0.0463  0.3682 -0.2873
14468TIP3   OH264894   3.518   4.628  11.310 -0.1674  0.0063  0.0253
14468TIP3    H164895   3.510   4.617  11.216  2.1351 -0.3712 -0.1801
14468TIP3    H264896   3.611   4.618  11.328 -0.2873  1.7981  2.1293
14469TIP3   OH264897   0.452   1.871  13.494 -0.0325 -0.0012 -0.5940
14469TIP3    H164898   0.369   1.834  13.525 -0.7562  0.5257 -1.8252
14469TIP3    H264899   0.509   1.870  13.571 -0.9422 -1.0328  0.1003
14470TIP3   OH264900   1.511   4.843   4.457  0.6424 -0.0149 -0.1110
14470TIP3    H164901   1.492   4.822   4.365  1.9598  1.3124 -0.7197
14470TIP3    H264902   1.606   4.845   4.462  0.6231 -1.1266  1.5746
14471TIP3   OH264903   0.115   0.690   2.832 -0.3607  0.0476 -0.4226
14471TIP3    H164904   0.152   0.775   2.853 -0.6490 -0.1364  0.9016
14471TIP3    H264905   0.074   0.702   2.746 -0.2931  1.2034 -0.2994
14472TIP3   OH264906   1.819   2.918  14.624  0.3200 -0.2716 -0.5310
14472TIP3    H164907   1.889   2.962  14.672  0.5076 -1.9309  0.8368
14472TIP3    H264908   1.831   2.946  14.534  0.0415  2.8758  0.2757
14473TIP3   OH264909   0.254   1.591  12.664 -0.1698 -0.2831 -1.4403
14473TIP3    H164910   0.346   1.591  12.637  0.2521 -0.1188 -0.1054
14473TIP3    H264911   0.255   1.550  12.751 -1.0765  1.4915 -0.5407
14474TIP3   OH264912   2.133   6.028  12.694 -0.1514 -0.4908 -0.4423
14474TIP3    H164913   2.089   6.018  12.779  1.5311  0.3740  0.5843
14474TIP3    H264914   2.076   6.085  12.643  0.4965  1.9677  1.4412
14475TIP3   OH264915   1.909   2.276   3.096  0.1633 -0.1879  0.0696
14475TIP3    H164916   1.988   2.323   3.071  0.0170  0.0809  0.1152
14475TIP3    H264917   1.889   2.308   3.184 -0.8126  0.8221 -0.4986
14476TIP3   OH264918   1.051   5.334  14.504  0.2479  0.2707 -0.3733
14476TIP3    H164919   0.982   5.369  14.448 -0.7813  1.8054  1.7111
14476TIP3    H264920   1.131   5.375  14.470 -0.4899  2.0510 -0.1169
14477TIP3   OH264921   2.692   0.317   5.807  0.5208 -0.3132  0.3403
14477TIP3    H164922   2.634   0.329   5.882  1.3541 -1.0409  1.1232
14477TIP3    H264923   2.763   0.262   5.840  1.4684  0.2453 -0.6958
14478TIP3   OH264924   5.123   0.491   5.955 -0.5819  0.4903 -0.0051
14478TIP3    H164925   5.156   0.444   5.878 -0.2094  1.3021 -0.3685
14478TIP3    H264926   5.083   0.424   6.010  0.7762 -0.3941 -0.0402
14479TIP3   OH264927   6.803   6.327   3.634  0.1058  1.0516  0.0184
14479TIP3    H164928   6.868   6.290   3.694  0.0845  0.9818 -0.0011
14479TIP3    H264929   6.724   6.275   3.650  0.0840  1.0701 -0.0307
14480TIP3   OH264930   2.529   5.456   1.195 -0.1783  0.1763 -0.1713
14480TIP3    H164931   2.568   5.526   1.142 -0.8468 -0.4474 -1.5419
14480TIP3    H264932   2.556   5.375   1.151  0.1591 -0.4187  1.0953
14481TIP3   OH264933   2.232   3.152   1.398 -0.0884 -0.0074  0.0869
14481TIP3    H164934   2.248   3.068   1.443 -0.1756  0.3402  0.7900
14481TIP3    H264935   2.267   3.140   1.310  0.7243 -0.4866  0.4679
14482TIP3   OH264936   4.318   4.601   4.679 -0.0420  0.1948 -0.1818
14482TIP3    H164937   4.358   4.516   4.666 -0.2355  0.1814 -0.7072
14482TIP3    H264938   4.269   4.618   4.598 -0.1115  0.7437 -0.0326
14483TIP3   OH264939   4.044   4.776  16.353  0.7560  0.6359  0.0255
14483TIP3    H164940   4.088   4.734  16.427  1.7844  2.0155  0.2364
14483TIP3    H264941   3.961   4.807  16.389  1.0981  0.9876  0.5236
14484TIP3   OH264942   0.882   2.101   0.878 -0.3477 -0.0125 -0.3856
14484TIP3    H164943   0.813   2.057   0.928 -0.4522 -0.4851 -0.9469
14484TIP3    H264944   0.957   2.103   0.938 -0.5376 -0.3819 -0.1314
14485TIP3   OH264945   5.382   0.143   6.101  0.0608 -0.0862  0.1444
14485TIP3    H164946   5.435   0.178   6.172 -0.6661  2.2134 -0.3608
14485TIP3    H264947   5.397   0.049   6.104  3.6170  0.3509  0.4372
14486TIP3   OH264948   0.108   0.933  16.537  0.8309 -0.1353 -0.9900
14486TIP3    H164949   0.034   0.877  16.559  0.0506  1.4609  0.6991
14486TIP3    H264950   0.145   0.960  16.621  2.0608  0.7555 -1.7675
14487TIP3   OH264951   0.338   1.616   4.039 -0.1745 -0.4107  0.2518
14487TIP3    H164952   0.402   1.679   4.072 -1.0556  1.8384 -2.0544
14487TIP3    H264953   0.258   1.634   4.089 -0.5839  0.7169 -0.7939
14488TIP3   OH264954   6.279   2.505  15.874 -0.2372 -0.3246 -0.4321
14488TIP3    H164955   6.315   2.537  15.957  0.1160 -1.4768 -0.1298
14488TIP3    H264956   6.354   2.504  15.814  0.1617 -2.1520  0.0329
14489TIP3   OH264957   0.017   1.695  12.152 -0.0812 -0.3751 -0.2624
14489TIP3    H164958   0.026   1.784  12.186 -2.5543 -0.4424  0.8144
14489TIP3    H264959   0.067   1.641  12.213 -0.1502  0.0931  0.2260
14490TIP3   OH264960   3.479   2.599   0.040 -0.0390 -0.1104  0.9505
14490TIP3    H164961   3.484   2.605  -0.056  0.4543  0.4155  0.9976
14490TIP3    H264962   3.539   2.527   0.062  1.4252  1.0633  0.9785
14491TIP3   OH264963   1.856   1.752   5.775 -0.1088  0.7220  0.3169
14491TIP3    H164964   1.866   1.742   5.870  1.1424 -2.6650 -0.0354
14491TIP3    H264965   1.921   1.692   5.738 -2.9775 -0.8692 -2.6208
14492TIP3   OH264966   6.107   6.516  12.159  0.3837 -0.5801 -0.2952
14492TIP3    H164967   6.060   6.558  12.086 -0.4941 -0.5863  0.2531
14492TIP3    H264968   6.059   6.435  12.175  1.5328 -1.3785 -0.7463
14493TIP3   OH264969   2.579   3.143   1.614 -0.0534 -0.0127  0.0090
14493TIP3    H164970   2.602   3.121   1.524 -1.4469 -0.2549 -0.3018
14493TIP3    H264971   2.537   3.065   1.649 -0.3586  0.3922  0.5724
14494TIP3   OH264972   2.707   4.941   3.908  0.6412  0.9572  0.5668
14494TIP3    H164973   2.725   5.035   3.915 -0.5685  1.2155  0.5358
14494TIP3    H264974   2.646   4.934   3.835  0.3025  0.2115  0.9102
14495TIP3   OH264975   4.737   4.730  15.052 -0.3895 -0.3217 -0.2667
14495TIP3    H164976   4.765   4.738  14.960  1.4134  0.7548  0.3177
14495TIP3    H264977   4.723   4.820  15.080 -0.5314 -0.6162  0.6189
14496TIP3   OH264978   1.865   6.504  13.540  0.6074 -0.6048  0.0125
14496TIP3    H164979   1.810   6.583  13.536  1.2061 -0.0337  1.8224
14496TIP3    H264980   1.834   6.450  13.468 -3.7881 -1.2256  2.0163
14497TIP3   OH264981   1.594   0.286  11.186 -0.6106  0.1440 -0.1312
14497TIP3    H164982   1.640   0.313  11.266  1.1371 -0.0029 -1.0581
14497TIP3    H264983   1.642   0.328  11.115 -1.7030 -0.3167 -1.1796
14498TIP3   OH264984   2.771   6.504   0.227 -0.2567  0.7483  0.5369
14498TIP3    H164985   2.859   6.533   0.204 -0.0673  0.0603  0.3758
14498TIP3    H264986   2.716   6.533   0.154  0.3581 -1.5069 -0.9081
14499TIP3   OH264987   6.553   1.420   4.014 -1.0607 -0.1753 -0.7422
14499TIP3    H164988   6.536   1.483   4.084  0.1683 -0.9427  0.3022
14499TIP3    H264989   6.479   1.360   4.018 -0.6160 -0.6912  0.5056
14500TIP3   OH264990   3.578   4.011  13.526  0.0677 -0.2187 -0.0255
14500TIP3    H164991   3.488   4.033  13.502  0.0611 -1.4225 -1.2407
14500TIP3    H264992   3.631   4.079  13.486 -0.2676  0.4125  0.5692
14501TIP3   OH264993   0.999   5.925   6.012  0.8657 -0.4136 -0.5801
14501TIP3    H164994   1.025   5.980   6.086 -0.4218 -0.5066 -0.0283
14501TIP3    H264995   0.904   5.923   6.016  0.8106 -1.1074 -1.7547
14502TIP3   OH264996   2.896   6.133  14.327 -0.5453 -0.3985  0.2755
14502TIP3    H164997   2.860   6.045  14.343 -2.2556 -0.0166 -1.1139
14502TIP3    H264998   2.825   6.192  14.350 -0.2960  0.4899 -1.1571
14503TIP3   OH264999   6.539   1.801  11.085  0.4783  0.3244 -0.0415
14503TIP3    H165000   6.543   1.868  11.154 -1.5561 -0.0503  0.4880
14503TIP3    H265001   6.463   1.824  11.033  1.4812  0.0808 -1.6736
14504TIP3   OH265002   3.931   4.557  12.112 -0.5500 -0.3213  0.3013
14504TIP3    H165003   3.893   4.612  12.044 -0.0637 -1.2035 -0.7214
14504TIP3    H265004   3.862   4.493  12.133 -1.6479  1.4152  2.4910
14505TIP3   OH265005   3.965   3.193   1.722 -0.4476 -0.1832  0.2004
14505TIP3    H165006   4.051   3.170   1.688 -0.9742 -2.3291  0.1998
14505TIP3    H265007   3.969   3.172   1.816 -1.8927 -3.5250 -0.3499
14506TIP3   OH265008   6.303   5.926   0.504 -0.6777  0.1406 -0.5870
14506TIP3    H165009   6.252   5.873   0.564 -0.6987 -0.1202 -0.8287
14506TIP3    H265010   6.320   6.007   0.551  0.5914 -0.6345  0.3588
14507TIP3   OH265011   5.475   3.257   4.735 -0.2239 -0.1181  0.3944
14507TIP3    H165012   5.520   3.339   4.717 -0.5310 -0.3835 -1.7791
14507TIP3    H265013   5.545   3.195   4.754  0.0162  0.5726  1.9261
14508TIP3   OH265014   1.399   0.796   1.050  0.8315  0.4148 -0.7865
14508TIP3    H165015   1.404   0.807   0.955 -0.6307  0.8048 -0.8537
14508TIP3    H265016   1.315   0.752   1.064  0.8069  0.7987  0.3546
14509TIP3   OH265017   2.697   6.527   3.642  0.1045 -0.1682  0.2997
14509TIP3    H165018   2.668   6.464   3.577 -0.6062  1.3316 -0.9188
14509TIP3    H265019   2.782   6.556   3.611 -0.7967  1.5196 -0.7851
14510TIP3   OH265020   3.610   5.325  13.836  0.3646 -0.0933  0.0890
14510TIP3    H165021   3.613   5.417  13.860  0.5098 -0.2059  0.5059
14510TIP3    H265022   3.527   5.315  13.789  0.1438  0.1611  0.4205
14511TIP3   OH265023   0.363   1.861   2.176  0.0652  0.4270  0.1253
14511TIP3    H165024   0.282   1.906   2.196 -0.6960 -0.0422 -1.6692
14511TIP3    H265025   0.336   1.773   2.151  1.0900  0.3224 -0.6933
14512TIP3   OH265026   2.726   0.378  13.855  0.4482  0.3136 -0.4159
14512TIP3    H165027   2.684   0.316  13.795  4.3943 -1.7856 -1.3468
14512TIP3    H265028   2.743   0.456  13.801 -1.0436  0.7496 -0.3174
14513TIP3   OH265029   0.421   4.556  16.622  0.4294 -0.4566  0.0587
14513TIP3    H165030   0.373   4.629  16.583  1.4929  0.7411  0.8923
14513TIP3    H265031   0.435   4.495  16.550 -3.0064 -1.3007 -0.0706
14514TIP3   OH265032   5.253   0.422  16.060 -0.3097 -0.5021  0.1107
14514TIP3    H165033   5.344   0.402  16.084 -0.4909 -1.7299 -0.1817
14514TIP3    H265034   5.234   0.504  16.106  0.4144 -1.0789  1.4903
14515TIP3   OH265035   5.985   2.775   3.997 -0.3921  0.6372 -0.5022
14515TIP3    H165036   6.069   2.821   3.998  0.0693 -0.2113 -0.3075
14515TIP3    H265037   5.981   2.734   3.911 -1.0980  1.5376 -0.9294
14516TIP3   OH265038   4.444   3.288  12.511  0.6529  0.7879  0.4664
14516TIP3    H165039   4.447   3.283  12.606 -0.4390  1.0495  0.5307
14516TIP3    H265040   4.465   3.199  12.482 -2.3795 -0.2762  1.0992
14517TIP3   OH265041   1.807   1.980   4.859 -0.4443  0.2880 -0.1987
14517TIP3    H165042   1.807   2.055   4.919  0.4096 -1.1794  1.7216
14517TIP3    H265043   1.881   1.927   4.887 -1.4303 -1.6313 -1.0615
14518TIP3   OH265044   0.233   2.041   2.764 -0.0662 -0.2857  0.0220
14518TIP3    H165045   0.217   2.001   2.850 -0.2224 -1.7498 -0.6532
14518TIP3    H265046   0.175   2.117   2.763  0.3212  0.0612  1.4074
14519TIP3   OH265047   1.329   1.982   5.870  0.3688 -0.3341  0.1997
14519TIP3    H165048   1.282   2.063   5.890 -1.2575 -1.5746  1.8725
14519TIP3    H265049   1.421   2.008   5.862 -0.1647  1.7203  0.1619
14520TIP3   OH265050   2.322   4.744   0.810 -0.4030  0.3719 -0.0162
14520TIP3    H165051   2.238   4.789   0.808  0.5023  2.1134 -0.7958
14520TIP3    H265052   2.347   4.742   0.902 -2.2416 -2.1578  0.5619
14521TIP3   OH265053   0.171   2.946  12.495  0.2850 -0.4174 -0.0904
14521TIP3    H165054   0.119   3.026  12.498 -0.9055 -1.1681  0.0610
14521TIP3    H265055   0.255   2.970  12.534 -0.0424  0.7584 -0.0737
14522TIP3   OH265056   1.706   0.561   6.099 -0.0673 -0.4879  0.0327
14522TIP3    H165057   1.647   0.573   6.173  1.7777  0.6133  1.4166
14522TIP3    H265058   1.653   0.517   6.033 -1.8466 -1.3296  1.9173
14523TIP3   OH265059   3.793   4.901   4.980  0.2544  0.5779 -0.0620
14523TIP3    H165060   3.768   4.822   4.933 -1.2153  1.9262 -1.7290
14523TIP3    H265061   3.725   4.913   5.046  1.0806 -0.1006  0.9415
14524TIP3   OH265062   2.225   5.137   0.642 -0.3593  0.4717  0.2623
14524TIP3    H165063   2.296   5.188   0.603 -0.8917  0.5183 -0.6753
14524TIP3    H265064   2.265   5.095   0.718  0.5337  0.9146  0.0554
14525TIP3   OH265065   5.923   1.678  16.609  0.1021 -0.3732 -0.2866
14525TIP3    H165066   5.974   1.741  16.558 -1.3672  0.3426 -0.9430
14525TIP3    H265067   5.878   1.625  16.544 -0.1636 -0.8393  0.2699
14526TIP3   OH265068   3.553   4.464  12.736 -0.4648  0.7758  0.5033
14526TIP3    H165069   3.589   4.428  12.817 -0.5382  0.1989  0.2830
14526TIP3    H265070   3.613   4.433  12.668 -0.4030  1.2618  0.3369
14527TIP3   OH265071   2.524   1.002  14.362  0.4709  0.0707 -0.8205
14527TIP3    H165072   2.542   0.912  14.336  1.0401  0.2387 -1.0307
14527TIP3    H265073   2.468   1.036  14.292  0.1290 -0.1649 -0.6623
14528TIP3   OH265074   3.787   4.573  16.432 -0.0648  0.0636  0.5688
14528TIP3    H165075   3.703   4.539  16.400  0.8211 -2.2204  0.4484
14528TIP3    H265076   3.853   4.525  16.382  1.3260  0.0220  2.3286
14529TIP3   OH265077   0.455   1.081   5.882  0.6422 -0.0618  0.2877
14529TIP3    H165078   0.450   1.007   5.943 -0.9236  1.1082  1.6755
14529TIP3    H265079   0.437   1.042   5.796  0.0235 -1.3145  0.9558
14530TIP3   OH265080   3.767   3.974  10.354  0.1308  0.0101 -0.5572
14530TIP3    H165081   3.846   4.019  10.324 -0.3369  0.0526 -1.7931
14530TIP3    H265082   3.705   4.044  10.372 -0.0109 -0.0589 -0.7626
14531TIP3   OH265083   6.640   2.531  14.122 -0.3638  0.0311 -0.4269
14531TIP3    H165084   6.560   2.575  14.093  0.4675  1.3314 -0.8237
14531TIP3    H265085   6.672   2.585  14.195  0.2417 -0.3841 -0.3789
14532TIP3   OH265086   6.048   1.856  12.435 -0.0506 -0.1671 -0.4009
14532TIP3    H165087   5.966   1.810  12.454 -1.1953  1.2114 -1.7603
14532TIP3    H265088   6.112   1.787  12.419 -1.6724 -1.3252 -2.2233
14533TIP3   OH265089   5.457   3.693  16.056  0.3131  0.2783  0.8809
14533TIP3    H165090   5.439   3.599  16.054  0.1313  0.2884 -1.8080
14533TIP3    H265091   5.378   3.732  16.018  0.3365  1.5645  2.0832
14534TIP3   OH265092   6.597   5.677  15.689 -0.0617  0.3885  0.2557
14534TIP3    H165093   6.682   5.642  15.662  0.0926  1.2260 -0.4057
14534TIP3    H265094   6.549   5.601  15.721  1.6412  0.1812  2.5657
14535TIP3   OH265095   2.699   0.083   1.981 -0.2812 -0.4464 -0.6195
14535TIP3    H165096   2.679   0.132   1.901 -0.3735 -2.2473 -1.7577
14535TIP3    H265097   2.615   0.080   2.028  0.1315  2.0432  0.4540
14536TIP3   OH265098   5.561   0.053   0.304  0.1296  0.3790  0.4266
14536TIP3    H165099   5.524   0.062   0.392  0.9210 -0.0021  0.8063
14536TIP3    H265100   5.544   0.138   0.262 -1.5620  0.0683  0.4238
14537TIP3   OH265101   0.850   3.507   5.914 -0.3228 -0.1978 -0.3431
14537TIP3    H165102   0.778   3.568   5.900 -0.8705 -0.0277  2.6035
14537TIP3    H265103   0.811   3.420   5.904 -0.9202 -0.1028  1.0382
14538TIP3   OH265104   3.759   0.234  16.885 -0.0755  0.1047 -0.2000
14538TIP3    H165105   3.726   0.323  16.874 -0.2864  0.0567  0.0191
14538TIP3    H265106   3.689   0.189  16.933  0.9947  0.4452  1.7867
14539TIP3   OH265107   1.341   2.306  15.328  0.5959 -0.3986  0.1363
14539TIP3    H165108   1.250   2.304  15.299  1.4011 -0.0936 -2.6730
14539TIP3    H265109   1.365   2.214  15.337  0.2776 -0.5065 -0.0886
14540TIP3   OH265110   2.462   3.135   3.695  0.2761  0.1100  0.4397
14540TIP3    H165111   2.401   3.118   3.624  1.0353  1.9263 -0.7341
14540TIP3    H265112   2.493   3.225   3.680  2.2201 -0.2552  1.7341
14541TIP3   OH265113   4.643   3.364   2.685 -0.3333  0.2798  0.2842
14541TIP3    H165114   4.682   3.279   2.665  0.7903  0.5635  1.1297
14541TIP3    H265115   4.549   3.348   2.688 -0.4265 -0.2465 -2.7869
14542TIP3   OH265116   0.316   2.527   4.369  0.0597 -0.2893 -0.3312
14542TIP3    H165117   0.410   2.529   4.386  0.3055  1.1197 -1.7132
14542TIP3    H265118   0.307   2.551   4.277 -1.5641 -2.1244 -0.7288
14543TIP3   OH265119   5.096   5.308   1.650  0.1270  0.7136 -0.4617
14543TIP3    H165120   5.028   5.374   1.634  0.3211  1.2005  0.5752
14543TIP3    H265121   5.047   5.230   1.676 -0.0745  1.4252  1.5549
14544TIP3   OH265122   2.984   6.687  15.962 -0.3017  0.4499 -0.3534
14544TIP3    H165123   2.964   6.713  16.052  0.8320 -0.1209  0.0863
14544TIP3    H265124   2.942   6.754  15.908 -1.3928  0.5399  0.5785
14545TIP3   OH265125   1.489   5.646  14.460 -0.2196  0.0111  0.0196
14545TIP3    H165126   1.516   5.654  14.552  0.6768  1.2380 -0.3310
14545TIP3    H265127   1.566   5.614  14.414 -0.4820 -0.0292 -0.3987
14546TIP3   OH265128   1.058   1.031  12.049  0.1002 -0.5933  0.0137
14546TIP3    H165129   1.079   0.950  12.003  0.5179  0.1185 -1.0779
14546TIP3    H265130   0.963   1.038  12.041 -0.1451 -1.7307  1.4427
14547TIP3   OH265131   6.187   0.839   3.979 -0.8872 -0.5723  0.2529
14547TIP3    H165132   6.130   0.765   3.956  0.3342 -1.6997  0.7238
14547TIP3    H265133   6.253   0.840   3.910 -0.5296 -0.3170  0.5967
14548TIP3   OH265134   1.155   4.933  13.462 -0.9415 -0.5199  0.0277
14548TIP3    H165135   1.129   4.914  13.552  2.1514 -2.2491  0.7046
14548TIP3    H265136   1.186   5.023  13.464 -1.2272 -0.4288  0.6292
14549TIP3   OH265137   1.148   3.570   3.171  0.5072 -0.1318 -0.3733
14549TIP3    H165138   1.114   3.637   3.230 -0.1852 -1.6297  1.0168
14549TIP3    H265139   1.227   3.609   3.134  0.3866  1.2655  0.7449
14550TIP3   OH265140   3.669   6.560   3.558 -0.2481 -0.3883 -0.4821
14550TIP3    H165141   3.654   6.526   3.647  1.5177  0.6168  0.2489
14550TIP3    H265142   3.724   6.493   3.516  0.2326 -0.1367 -0.2638
14551TIP3   OH265143   2.826   5.138  15.527  0.2363 -0.4641 -0.2666
14551TIP3    H165144   2.848   5.176  15.441 -2.0194  0.4254 -0.5313
14551TIP3    H265145   2.757   5.074  15.508 -1.9750  1.3496  0.9967
14552TIP3   OH265146   2.223   4.186   4.650 -0.3081  0.2978  0.2938
14552TIP3    H165147   2.199   4.121   4.584  0.7814  3.2486 -3.3241
14552TIP3    H265148   2.307   4.220   4.621 -0.5437  2.9042  2.3381
14553TIP3   OH265149   2.790   4.463  16.744 -0.1688  0.8846  0.0956
14553TIP3    H165150   2.783   4.511  16.826  1.0223  1.1576  0.0667
14553TIP3    H265151   2.748   4.520  16.679 -0.8314  0.8098  0.4524
14554TIP3   OH265152   5.577   0.999  16.105  0.2023 -0.0315 -0.5320
14554TIP3    H165153   5.507   1.035  16.050 -0.5587 -1.3233 -0.4550
14554TIP3    H265154   5.658   1.032  16.066 -0.4028  0.6057 -1.2865
14555TIP3   OH265155   5.011   4.668   3.448 -0.1770 -0.9388  0.2229
14555TIP3    H165156   4.933   4.613   3.443 -1.0817  0.4312 -1.9410
14555TIP3    H265157   5.001   4.716   3.530 -2.4863  0.3701 -0.7435
14556TIP3   OH265158   4.812   3.448  13.910 -0.6959 -0.0098 -0.0103
14556TIP3    H165159   4.720   3.440  13.935 -0.5628 -0.3452  0.3885
14556TIP3    H265160   4.835   3.538  13.930 -0.9858  0.1218 -0.2698
14557TIP3   OH265161   0.552   2.185  12.636  0.5182  0.4748 -0.3507
14557TIP3    H165162   0.481   2.243  12.663 -0.0100 -0.3534  0.0771
14557TIP3    H265163   0.513   2.098  12.635  1.1913  0.1652 -1.3784
14558TIP3   OH265164   1.650   4.334   1.558  0.5316 -0.3138 -0.4546
14558TIP3    H165165   1.710   4.287   1.616  0.6859 -0.1462 -0.4777
14558TIP3    H265166   1.565   4.291   1.571  0.2127  0.7275  1.0551
14559TIP3   OH265167   2.736   5.552  13.447  0.3925 -0.1745  0.1523
14559TIP3    H165168   2.738   5.618  13.378  1.0009  0.9494  1.2082
14559TIP3    H265169   2.826   5.522  13.455  0.7376  1.2013  1.8244
14560TIP3   OH265170   3.080   3.202  14.218 -0.1556 -0.3314 -0.1846
14560TIP3    H165171   3.010   3.153  14.261  1.7179 -2.1232  1.0620
14560TIP3    H265172   3.091   3.158  14.133 -0.1075 -0.4923 -0.0964
14561TIP3   OH265173   3.156   1.386   0.809 -0.1325 -0.3984  0.7801
14561TIP3    H165174   3.080   1.443   0.807 -0.4374 -0.8247 -0.1002
14561TIP3    H265175   3.175   1.367   0.717  2.0697  1.0615  0.8355
14562TIP3   OH265176   0.785   5.340   2.719  0.0537 -0.2108  0.3532
14562TIP3    H165177   0.767   5.250   2.689  3.1410 -0.9369  0.3391
14562TIP3    H265178   0.763   5.339   2.812  1.2817 -1.4555  0.6740
14563TIP3   OH265179   3.166   6.136   1.099 -0.4070 -0.0033  0.2015
14563TIP3    H165180   3.176   6.225   1.064  0.0200  0.1121  0.6184
14563TIP3    H265181   3.153   6.082   1.021 -2.8942  0.6976  0.0369
14564TIP3   OH265182   6.719   0.658  16.843  1.1024 -0.0534  0.0421
14564TIP3    H165183   6.650   0.617  16.792 -0.2213  0.3821  1.4163
14564TIP3    H265184   6.724   0.607  16.923  1.4604  0.7113  0.5190
14565TIP3   OH265185   1.623   4.342   5.182 -0.1046 -0.4837 -0.4236
14565TIP3    H165186   1.546   4.354   5.127  0.2352 -2.4684 -1.4206
14565TIP3    H265187   1.690   4.310   5.122  1.4883  1.0782  0.4535
14566TIP3   OH265188   5.185   5.660   4.491  0.1646  0.1078 -0.3330
14566TIP3    H165189   5.269   5.695   4.521  0.8677 -0.9603 -0.9959
14566TIP3    H265190   5.132   5.738   4.474  0.3060  0.7861  1.9920
14567TIP3   OH265191   3.814   4.531  10.565  0.7801 -0.5865 -0.0485
14567TIP3    H165192   3.896   4.514  10.519  0.5610 -1.8331 -0.0015
14567TIP3    H265193   3.816   4.472  10.640 -1.5000 -2.9454 -1.6915
14568TIP3   OH265194   3.818   1.408   3.796  0.5719 -0.2121  0.2667
14568TIP3    H165195   3.742   1.449   3.754  0.0532 -1.1472  0.2584
14568TIP3    H265196   3.834   1.461   3.874  0.9585  0.9846 -0.6061
14569TIP3   OH265197   6.818   4.041   1.710  0.1488  0.1000 -0.1062
14569TIP3    H165198   6.815   4.137   1.710  0.7522  0.1258  0.1475
14569TIP3    H265199   6.749   4.015   1.770 -0.0635  0.3762 -0.2281
14570TIP3   OH265200   1.160   4.591   3.896 -0.3127 -0.2782  0.0859
14570TIP3    H165201   1.070   4.577   3.866 -0.9779  0.0529  1.8398
14570TIP3    H265202   1.200   4.504   3.890 -1.5076 -0.9722  1.6305
14571TIP3   OH265203   6.169   2.677  17.302  0.6280 -0.0481  0.1280
14571TIP3    H165204   6.222   2.646  17.228  0.8491 -0.2139  0.3527
14571TIP3    H265205   6.204   2.764  17.321  0.5044  0.0352 -0.0270
14572TIP3   OH265206   3.834   4.334   2.033  0.5915  0.5968 -0.1258
14572TIP3    H165207   3.780   4.341   1.955 -1.3125 -0.2853  1.0392
14572TIP3    H265208   3.893   4.261   2.016 -0.3977 -0.1401 -0.4224
14573TIP3   OH265209   5.517   5.988   0.410  0.1239  0.0532  0.4158
14573TIP3    H165210   5.440   6.006   0.463  0.5245  2.0728  0.3898
14573TIP3    H265211   5.586   6.041   0.450  1.1503 -0.6195 -0.4150
14574TIP3   OH265212   3.711   4.980   1.562 -0.0747  0.4125  0.3706
14574TIP3    H165213   3.757   4.943   1.638 -1.4918 -0.3554  0.9003
14574TIP3    H265214   3.703   4.908   1.501 -1.1236  0.3374  0.5695
14575TIP3   OH265215   1.508   6.756  10.800 -0.1179 -0.1231  0.1387
14575TIP3    H165216   1.510   6.723  10.711 -0.0040 -0.0221  0.1026
14575TIP3    H265217   1.480   6.848  10.791 -0.1318 -0.1205  0.2075
14576TIP3   OH265218   5.163   0.566   0.026  0.0444  0.4594 -0.7390
14576TIP3    H165219   5.258   0.579   0.025  0.4927 -1.8066  2.0195
14576TIP3    H265220   5.133   0.614   0.103 -0.3521 -2.1700  0.8452
14577TIP3   OH265221   1.633   1.981   1.847  0.6263  0.5190  0.2476
14577TIP3    H165222   1.540   1.980   1.870  0.4124  1.8555 -0.4686
14577TIP3    H265223   1.644   1.908   1.786 -0.5636  1.8974 -1.7377
14578TIP3   OH265224   1.368   4.052   2.846  0.2436  0.1712 -0.3375
14578TIP3    H165225   1.329   4.130   2.885 -1.6252  0.2827 -2.2348
14578TIP3    H265226   1.294   4.006   2.806  1.4724 -1.9889 -0.2526
14579TIP3   OH265227   5.639   0.392  13.317  0.0488  0.2682  0.1453
14579TIP3    H165228   5.713   0.337  13.289  0.5920  1.3002 -0.5108
14579TIP3    H265229   5.562   0.339  13.299  0.5318 -0.0747 -0.9673
14580TIP3   OH265230   0.223   0.235   2.991  0.3725  0.3640  0.6299
14580TIP3    H165231   0.247   0.311   3.044 -0.0935 -0.1289  1.5600
14580TIP3    H265232   0.305   0.189   2.975  0.3036 -0.5289  2.5612
14581TIP3   OH265233   6.085   4.782   5.533 -0.2880 -0.2748  0.2023
14581TIP3    H165234   6.166   4.748   5.494 -0.2180  1.3769 -1.2059
14581TIP3    H265235   6.093   4.761   5.626  1.2182 -1.1772 -0.0855
14582TIP3   OH265236   0.631   3.645   1.171 -0.5700  0.0224 -0.4074
14582TIP3    H165237   0.719   3.620   1.143 -0.0425 -0.4328  1.4851
14582TIP3    H265238   0.587   3.561   1.189 -1.1793  0.2663 -0.7189
14583TIP3   OH265239   6.142   0.732  15.823 -0.7004  0.1301 -0.1497
14583TIP3    H165240   6.051   0.704  15.813 -0.9757  0.8838  0.1514
14583TIP3    H265241   6.171   0.754  15.734 -0.8380 -0.0417 -0.2362
14584TIP3   OH265242   5.159   6.369  15.140  0.1592 -0.0525 -0.2857
14584TIP3    H165243   5.143   6.304  15.072  1.0557  0.9451 -1.4892
14584TIP3    H265244   5.247   6.350  15.172  0.6541  0.8838 -1.0398
14585TIP3   OH265245   6.349   1.226   2.137  0.6175  0.6772  0.1691
14585TIP3    H165246   6.261   1.191   2.125 -0.0314  1.2954  2.6512
14585TIP3    H265247   6.407   1.157   2.103 -0.7684 -0.6171  0.3137
14586TIP3   OH265248   1.934   3.425   2.096  0.0343  0.5646 -0.5708
14586TIP3    H165249   2.007   3.405   2.037 -0.2857 -2.6552 -0.0395
14586TIP3    H265250   1.859   3.436   2.039  0.1630 -0.3039 -0.9251
14587TIP3   OH265251   3.085   3.262  11.637 -0.4317 -0.0567  0.2337
14587TIP3    H165252   3.021   3.192  11.646 -1.5958  0.5697 -2.2044
14587TIP3    H265253   3.094   3.299  11.725 -1.3003 -1.9501  1.1545
14588TIP3   OH265254   2.324   2.011  12.069  0.7907 -0.2402 -0.7327
14588TIP3    H165255   2.397   1.960  12.106 -0.8328 -2.1442  0.0345
14588TIP3    H265256   2.280   2.048  12.146  0.1980 -0.1829 -1.0957
14589TIP3   OH265257   0.631   3.829   3.711 -0.1552 -0.4329 -0.0203
14589TIP3    H165258   0.662   3.853   3.798  1.6069 -0.8052 -0.5042
14589TIP3    H265259   0.646   3.735   3.705 -0.7421 -0.5008 -0.5391
14590TIP3   OH265260   3.452   0.939   2.720  0.3821  0.1521  0.4928
14590TIP3    H165261   3.415   1.024   2.695  1.4023  0.6475  0.6387
14590TIP3    H265262   3.524   0.961   2.779  0.3329 -0.8421  0.9327
14591TIP3   OH265263   4.812   5.536  14.483 -0.1613 -0.3392  0.3923
14591TIP3    H165264   4.839   5.628  14.480 -1.4062  0.0877  1.3786
14591TIP3    H265265   4.884   5.489  14.441  0.5925  1.0556  0.0390
14592TIP3   OH265266   4.570   5.074  12.719  0.3285 -0.4025  0.1926
14592TIP3    H165267   4.560   5.146  12.656 -0.6748 -1.4095 -0.8606
14592TIP3    H265268   4.664   5.069  12.734  0.6438 -0.3022 -1.4736
14593TIP3   OH265269   6.070   6.595   3.838 -0.1479  0.3955  0.1281
14593TIP3    H165270   6.045   6.527   3.776 -1.1762  2.2434 -1.6190
14593TIP3    H265271   6.156   6.625   3.807  0.0112  0.3415  0.5083
14594TIP3   OH265272   2.958   2.817  13.469 -0.1191  0.2536 -0.6099
14594TIP3    H165273   2.996   2.903  13.489 -0.0002 -0.1563  1.0769
14594TIP3    H265274   3.026   2.755  13.496 -1.2153 -0.4308  0.6869
14595TIP3   OH265275   4.132   0.603   0.767  0.0503 -0.1650  0.4729
14595TIP3    H165276   4.135   0.556   0.683 -2.0633 -0.9269  0.7606
14595TIP3    H265277   4.070   0.674   0.753 -1.0890 -0.8870  1.6253
14596TIP3   OH265278   1.588   0.505  12.144 -0.0093 -0.1383  0.0054
14596TIP3    H165279   1.505   0.532  12.103  0.4991  1.3810 -0.1044
14596TIP3    H265280   1.611   0.423  12.101 -1.2043 -0.3221 -0.3196
14597TIP3   OH265281   6.030   0.185  11.296 -0.4343  0.6205 -0.2206
14597TIP3    H165282   6.076   0.220  11.221 -1.2473  1.4680 -0.3473
14597TIP3    H265283   6.084   0.208  11.371 -0.0023  0.4454 -0.4796
14598TIP3   OH265284   6.433   5.869   3.395 -0.3762 -0.1058  0.2191
14598TIP3    H165285   6.340   5.854   3.381  0.1946 -1.4123 -2.9538
14598TIP3    H265286   6.445   5.962   3.377 -0.9897  0.0051  0.3461
14599TIP3   OH265287   1.253   1.040  16.035  0.5314 -0.0370 -0.2545
14599TIP3    H165288   1.273   1.005  16.122  2.8499 -1.1839 -1.1677
14599TIP3    H265289   1.312   0.994  15.976 -0.6476  1.0464 -2.4136
14600TIP3   OH265290   4.049   2.983   5.399  0.3935  0.8884  0.3841
14600TIP3    H165291   4.058   3.001   5.493 -0.1257  1.3980  0.3435
14600TIP3    H265292   3.969   2.931   5.393  0.3016  1.0507  0.2038
14601TIP3   OH265293   5.567   5.715   0.394 -0.2222 -0.1902 -0.2219
14601TIP3    H165294   5.548   5.809   0.394  0.4675 -0.0357 -1.1510
14601TIP3    H265295   5.593   5.696   0.485 -0.2923  0.5268 -0.0458
14602TIP3   OH265296   2.392   2.099   4.204  0.3957  0.0911 -0.6241
14602TIP3    H165297   2.395   2.103   4.109 -0.1509  0.7242 -0.6243
14602TIP3    H265298   2.315   2.047   4.225  0.2642  0.3171 -0.5321
14603TIP3   OH265299   0.978   0.312  11.653  0.2050  0.1506 -0.1108
14603TIP3    H165300   0.951   0.358  11.573  0.8784 -1.8998 -1.6151
14603TIP3    H265301   0.910   0.245  11.666 -0.8633  1.5546  2.1396
14604TIP3   OH265302   1.322   4.981  17.151 -0.4216  0.0627  0.0169
14604TIP3    H165303   1.367   4.987  17.066  2.2615 -0.9614  1.2427
14604TIP3    H265304   1.264   4.906  17.142  1.4196 -1.3968 -0.3206
14605TIP3   OH265305   2.479   2.357   3.522  0.7228 -0.1083 -0.2239
14605TIP3    H165306   2.562   2.403   3.531  0.5704 -0.0112  0.8508
14605TIP3    H265307   2.497   2.269   3.555  0.2446  0.1153  0.6809
14606TIP3   OH265308   0.715   3.470  15.872  0.0428  0.1696 -0.3147
14606TIP3    H165309   0.707   3.559  15.908  1.0653  0.1397  0.0120
14606TIP3    H265310   0.764   3.422  15.938 -0.3850 -0.6127 -0.5571
14607TIP3   OH265311   5.761   1.039  13.817 -0.5199  0.0436  0.2170
14607TIP3    H165312   5.816   0.971  13.778 -2.1507 -0.0116 -2.1821
14607TIP3    H265313   5.822   1.108  13.841  1.2114 -2.1379  2.7803
14608TIP3   OH265314   0.665   5.263   4.476  0.1906  0.1880  0.0608
14608TIP3    H165315   0.725   5.192   4.453 -1.1385 -0.7901 -0.5275
14608TIP3    H265316   0.631   5.294   4.392 -0.8102  0.0900  0.4092
14609TIP3   OH265317   0.249   2.350   5.504  0.0551 -0.0013 -0.2922
14609TIP3    H165318   0.234   2.315   5.591 -1.1047  0.5609 -0.2551
14609TIP3    H265319   0.343   2.371   5.503  0.1940 -0.5409  0.6124
14610TIP3   OH265320   2.204   0.896   6.353  0.1681  0.1829 -0.0196
14610TIP3    H165321   2.257   0.839   6.297  1.7402  0.6557  0.9286
14610TIP3    H265322   2.192   0.976   6.302 -1.1841 -0.5707 -0.9457
14611TIP3   OH265323   5.237   4.099   4.996 -0.1864 -0.2212  0.2192
14611TIP3    H165324   5.246   4.194   4.997 -0.5904 -0.1370 -1.1699
14611TIP3    H265325   5.327   4.067   4.989 -0.1169  0.1337 -0.7674
14612TIP3   OH265326   4.468   1.662  11.212  0.3488 -0.2230  0.7572
14612TIP3    H165327   4.516   1.581  11.197  0.8502 -0.0624  1.4711
14612TIP3    H265328   4.532   1.732  11.200 -0.0411  0.0698  0.3081
14613TIP3   OH265329   2.144   2.294  15.652  0.0575 -0.5845  0.3106
14613TIP3    H165330   2.052   2.321  15.656  0.2559  0.2123 -0.2487
14613TIP3    H265331   2.158   2.272  15.560  0.8469  0.9226  0.0328
14614TIP3   OH265332   5.989   3.223  17.158  0.0282 -0.7501  0.1086
14614TIP3    H165333   5.956   3.313  17.157 -2.1536 -1.4799 -0.9902
14614TIP3    H265334   6.084   3.232  17.151 -0.1525  1.4405 -0.4191
14615TIP3   OH265335   6.644   4.071  16.645  0.1273  0.2177  0.0028
14615TIP3    H165336   6.552   4.046  16.640 -0.1515  1.2208 -0.0300
14615TIP3    H265337   6.644   4.154  16.693  0.8415  1.0570 -1.3839
14616TIP3   OH265338   0.766   5.793  12.692  0.3092  0.1770 -0.1999
14616TIP3    H165339   0.707   5.817  12.764 -0.0410  0.9347 -0.7236
14616TIP3    H265340   0.847   5.841  12.711  0.4976 -0.2578  0.1104
14617TIP3   OH265341   5.069   0.597   1.779  0.2410  0.0293  0.1593
14617TIP3    H165342   5.074   0.637   1.692 -1.7239 -0.1073 -0.0691
14617TIP3    H265343   5.076   0.671   1.839 -0.6399  0.4129 -0.1876
14618TIP3   OH265344   6.187   5.753   3.398  0.0487  0.1253  0.1761
14618TIP3    H165345   6.112   5.782   3.450  0.4954  0.1798  0.7992
14618TIP3    H265346   6.235   5.694   3.455  0.0661 -0.5276 -0.4989
14619TIP3   OH265347   4.159   2.903   0.097 -0.1130 -0.4916 -0.1614
14619TIP3    H165348   4.147   2.889   0.191  0.3108 -0.7784 -0.1486
14619TIP3    H265349   4.079   2.868   0.057 -0.2936 -0.3689  0.0925
14620TIP3   OH265350   6.426   0.960  12.893  0.1382 -0.2863  0.1532
14620TIP3    H165351   6.381   0.980  12.811  0.7197 -1.0769 -0.3829
14620TIP3    H265352   6.394   0.872  12.917  0.9320 -0.6067  0.0775
14621TIP3   OH265353   2.243   4.690  12.778 -0.5280 -0.0304  0.0044
14621TIP3    H165354   2.257   4.606  12.735  0.4484 -0.6081  1.3700
14621TIP3    H265355   2.241   4.669  12.872  1.2509  1.6243  0.4831
14622TIP3   OH265356   4.345   5.072   4.281  0.2664 -0.5203  0.5893
14622TIP3    H165357   4.307   5.051   4.196 -1.0835  2.0682  0.4787
14622TIP3    H265358   4.430   5.111   4.260 -0.0274  0.0358  0.4064
14623TIP3   OH265359   3.532   2.868  11.499  0.2678 -0.1025  0.2455
14623TIP3    H165360   3.546   2.872  11.404  1.1303  0.2162  0.3738
14623TIP3    H265361   3.494   2.953  11.521 -0.5640 -0.4278  0.0990
14624TIP3   OH265362   0.917   2.129  14.965  0.3190  0.2720  0.2558
14624TIP3    H165363   0.934   2.041  15.000 -1.3577  0.9460  3.0657
14624TIP3    H265364   1.001   2.174  14.970  0.8482 -0.6763  0.2497
14625TIP3   OH265365   3.890   2.102   3.050 -0.0713 -0.2876  0.5729
14625TIP3    H165366   3.811   2.056   3.080  0.0966 -0.1782  1.2129
14625TIP3    H265367   3.928   2.138   3.131  2.6497 -3.4349  0.8917
14626TIP3   OH265368   0.508   0.525   3.999  0.3297  0.1217 -0.1231
14626TIP3    H165369   0.594   0.489   4.020 -0.4234 -1.7564 -0.1171
14626TIP3    H265370   0.526   0.611   3.960  2.1460  0.1214  0.6540
14627TIP3   OH265371   5.547   5.127   5.129 -0.4976  0.1958 -0.3817
14627TIP3    H165372   5.504   5.067   5.069 -0.5762 -1.8679  1.6139
14627TIP3    H265373   5.640   5.123   5.105 -0.1115 -2.7196  1.2184
14628TIP3   OH265374   0.025   2.512   3.467  0.4896 -0.0968  0.4620
14628TIP3    H165375   0.001   2.586   3.524  0.4150 -0.2296  0.6043
14628TIP3    H265376  -0.051   2.501   3.410 -0.0925 -0.9465  1.3542
14629TIP3   OH265377   2.575   6.006  12.910 -0.3094  0.7522  0.1607
14629TIP3    H165378   2.535   6.089  12.887 -0.4952  0.5671 -0.2033
14629TIP3    H265379   2.526   5.941  12.859 -0.6961  0.3344  1.0551
14630TIP3   OH265380   2.701   6.816  13.340 -0.0924  0.5008 -0.0956
14630TIP3    H165381   2.689   6.909  13.357  0.9601  0.5571  0.4206
14630TIP3    H265382   2.792   6.808  13.311  0.0979 -0.4607  0.6939
14631TIP3   OH265383   5.963   6.217  16.069 -0.4296  0.1133  0.3025
14631TIP3    H165384   5.874   6.190  16.091  0.0491  0.0303  2.3388
14631TIP3    H265385   6.001   6.140  16.027 -1.4783  0.3697 -1.2044
14632TIP3   OH265386   0.368   3.258  17.118  0.4991  0.4330 -0.3679
14632TIP3    H165387   0.291   3.208  17.145  0.0592  1.2997  0.0111
14632TIP3    H265388   0.423   3.262  17.196  0.3904  0.8018 -0.3097
14633TIP3   OH265389   0.640   0.308   0.475 -0.6551 -0.3512  0.5886
14633TIP3    H165390   0.726   0.347   0.458 -1.1564  0.6005  0.1761
14633TIP3    H265391   0.621   0.331   0.566 -0.2469 -1.0243  0.8520
14634TIP3   OH265392   4.675   3.790   2.211 -0.3906 -0.5351 -0.1007
14634TIP3    H165393   4.643   3.879   2.227 -0.0953 -0.5595  0.6963
14634TIP3    H265394   4.736   3.799   2.137  0.2653  0.0731  0.4913
14635TIP3   OH265395   4.014   0.672   3.095  0.1490 -0.0861 -0.0022
14635TIP3    H165396   3.987   0.617   3.168  0.1595  1.5749  1.2875
14635TIP3    H265397   4.109   0.683   3.106  0.0236  0.8451  0.2234
14636TIP3   OH265398   2.059   4.379   5.700 -0.1940 -0.0720 -0.0107
14636TIP3    H165399   2.023   4.428   5.626  0.0110 -0.7101 -0.5419
14636TIP3    H265400   2.090   4.297   5.662 -0.6367 -0.6739  0.8811
14637TIP3   OH265401   3.328   4.887   1.852 -0.1577 -0.9049  0.3913
14637TIP3    H165402   3.359   4.798   1.834 -1.6525 -1.0939 -1.5641
14637TIP3    H265403   3.234   4.877   1.868 -0.2666  0.2850  0.6144
14638TIP3   OH265404   4.140   3.949  16.375  0.4390 -0.4605  0.5394
14638TIP3    H165405   4.187   3.878  16.332  1.1500  0.9999 -1.2605
14638TIP3    H265406   4.207   3.998  16.421  0.3119  0.2277  0.0084
14639TIP3   OH265407   4.768   5.576  13.461  0.3171 -0.0085  0.2110
14639TIP3    H165408   4.839   5.561  13.523  1.6192 -0.6040 -1.3395
14639TIP3    H265409   4.759   5.671  13.457  1.4668  0.1020 -0.0281
14640TIP3   OH265410   4.923   4.636   3.793  0.2385 -0.1539  0.3454
14640TIP3    H165411   4.943   4.555   3.746 -0.7579 -0.6475  0.7305
14640TIP3    H265412   4.862   4.682   3.735  0.1235 -0.0968  0.5102
14641TIP3   OH265413   5.870   5.159  13.610 -0.5329  0.5137  0.5909
14641TIP3    H165414   5.932   5.115  13.551 -0.3488  1.1677  0.2913
14641TIP3    H265415   5.862   5.248  13.575 -0.5500  0.8625  1.4604
14642TIP3   OH265416   0.471   0.712   6.399  0.0423 -0.4621  0.5194
14642TIP3    H165417   0.417   0.635   6.414 -2.4602  0.5287 -2.2484
14642TIP3    H265418   0.522   0.691   6.321 -1.5707  0.9125 -1.0300
14643TIP3   OH265419   0.919   4.900   4.167 -0.4857 -0.0912 -0.2675
14643TIP3    H165420   0.825   4.910   4.180 -0.1718  3.5051  0.3546
14643TIP3    H265421   0.957   4.925   4.251  1.0693  1.4699 -1.3780
14644TIP3   OH265422   6.776   1.403   1.220 -0.2230 -0.2536 -0.7126
14644TIP3    H165423   6.850   1.430   1.167 -0.9356 -0.7498 -2.0197
14644TIP3    H265424   6.709   1.376   1.157 -0.4249 -2.7417  0.4179
14645TIP3   OH265425   5.485   6.172  11.301  0.1077 -0.5269  0.2591
14645TIP3    H165426   5.559   6.204  11.250 -0.2185 -0.0245  0.0941
14645TIP3    H265427   5.445   6.106  11.246 -0.9009  0.7818 -0.6437
14646TIP3   OH265428   5.483   6.222   3.280  0.5364 -0.7147  0.5797
14646TIP3    H165429   5.500   6.206   3.187 -0.7104 -3.1913  0.6939
14646TIP3    H265430   5.388   6.210   3.289  0.3983  0.9885  1.9446
14647TIP3   OH265431   2.947   0.683   3.631 -0.6003  0.3759 -0.0894
14647TIP3    H165432   2.923   0.618   3.565 -0.4337 -0.6209  0.7909
14647TIP3    H265433   3.023   0.728   3.594 -0.7201  0.0652 -0.7257
14648TIP3   OH265434   3.135   0.511  13.822 -0.7985 -0.5047  0.1255
14648TIP3    H165435   3.111   0.424  13.788 -2.6912 -0.0155  0.0721
14648TIP3    H265436   3.118   0.505  13.916 -0.9563 -0.1895  0.1179
14649TIP3   OH265437   0.465   5.445   1.009 -0.4606 -0.1185  0.3311
14649TIP3    H165438   0.465   5.526   1.060  0.3065 -0.3298  0.6790
14649TIP3    H265439   0.376   5.439   0.974 -0.8782  0.2459  1.3021
14650TIP3   OH265440   4.042   3.637  13.674  0.1341  0.6776 -0.3393
14650TIP3    H165441   4.136   3.637  13.691 -0.1880 -0.5731  1.8658
14650TIP3    H265442   4.027   3.716  13.621  2.1127  2.1906  1.1747
14651TIP3   OH265443   0.071   4.170  15.062 -0.0657  0.3479 -0.4270
14651TIP3    H165444  -0.023   4.172  15.080 -0.2340 -0.4894 -1.1779
14651TIP3    H265445   0.084   4.095  15.004  0.9388  0.9813 -1.0702
14652TIP3   OH265446   1.958   2.168  15.941  0.0228  0.0341 -0.1046
14652TIP3    H165447   1.929   2.259  15.929 -0.7457  0.0047  1.3393
14652TIP3    H265448   1.879   2.120  15.964  0.4073 -1.0480 -0.9400
14653TIP3   OH265449   4.783   0.760   1.562  0.3546  0.3391 -0.4935
14653TIP3    H165450   4.875   0.759   1.587  0.4388 -1.5756 -0.7386
14653TIP3    H265451   4.740   0.703   1.625 -0.5748  0.7505 -0.7334
14654TIP3   OH265452   0.782   6.756   6.151 -0.0260  0.1152  0.0227
14654TIP3    H165453   0.874   6.761   6.178  0.3908  2.5731 -1.5533
14654TIP3    H265454   0.734   6.790   6.226  0.5779  1.1498 -0.0466
14655TIP3   OH265455   0.595   5.673   4.191  0.3102  0.4247 -0.4537
14655TIP3    H165456   0.654   5.611   4.236 -1.0604 -0.5533  0.0820
14655TIP3    H265457   0.515   5.623   4.178 -0.3108  1.6384 -1.4272
14656TIP3   OH265458   2.147   6.112  11.902 -0.1813 -0.0594  0.1633
14656TIP3    H165459   2.149   6.186  11.841 -1.9763  0.3778  0.5808
14656TIP3    H265460   2.186   6.146  11.982  0.5683 -0.1019 -0.1751
14657TIP3   OH265461   1.045   2.309  15.287 -0.2489  0.1427 -0.1684
14657TIP3    H165462   1.001   2.230  15.317  1.6192 -0.7026  0.4657
14657TIP3    H265463   1.072   2.289  15.197  1.3765 -0.4739  0.4333
14658TIP3   OH265464   2.577   5.075  10.587  0.0478 -0.0879 -0.4800
14658TIP3    H165465   2.504   5.071  10.525 -0.0800  0.3538 -0.3581
14658TIP3    H265466   2.615   5.162  10.575 -0.0550  0.0510  0.1538
14659TIP3   OH265467   0.007   6.611  13.673 -0.3702 -0.0770  0.3912
14659TIP3    H165468  -0.044   6.541  13.633 -0.9608  0.2335  0.5834
14659TIP3    H265469   0.085   6.619  13.619 -0.2020 -1.0130  0.4793
14660TIP3   OH265470   3.691   3.689   1.594  0.4346 -0.4772 -0.2201
14660TIP3    H165471   3.717   3.649   1.510 -1.3089  1.0431 -1.5748
14660TIP3    H265472   3.622   3.752   1.570 -0.5058 -0.3752  2.4538
14661TIP3   OH265473   4.276   6.281  16.061 -0.2079 -0.0832  0.4614
14661TIP3    H165474   4.307   6.362  16.100 -1.4446  0.5300  0.2180
14661TIP3    H265475   4.236   6.307  15.978 -1.5040 -0.7840  0.8334
14662TIP3   OH265476   5.935   4.955   1.266  0.1812  0.3264  0.3731
14662TIP3    H165477   6.029   4.959   1.283  0.1193  1.2921  0.5463
14662TIP3    H265478   5.912   4.863   1.281  1.0713  0.1019  0.4367
14663TIP3   OH265479   3.873   2.051  16.922  0.0045  0.0175  0.2646
14663TIP3    H165480   3.927   2.121  16.885 -1.0936  1.2246  0.8524
14663TIP3    H265481   3.899   2.047  17.014 -0.5180  0.2622  0.4309
14664TIP3   OH265482   1.688   0.615  13.404  0.1415 -0.1257 -0.2332
14664TIP3    H165483   1.696   0.613  13.499 -3.3511  0.9787  0.2303
14664TIP3    H265484   1.694   0.524  13.376 -0.1954 -0.6100  1.2320
14665TIP3   OH265485   6.789   1.570   1.450 -0.2518  0.5154  0.0850
14665TIP3    H165486   6.824   1.499   1.397 -0.7535  0.7236 -0.5372
14665TIP3    H265487   6.767   1.529   1.534  0.6760  0.2129  0.1854
14666TIP3   OH265488   0.519   6.573  11.310  0.8171  0.1706 -0.7679
14666TIP3    H165489   0.490   6.585  11.220  0.2362  1.5635 -0.4130
14666TIP3    H265490   0.467   6.499  11.342  1.4967 -0.7598 -1.7568
14667TIP3   OH265491   2.253   0.004  14.570 -0.2671 -0.4011 -0.2421
14667TIP3    H165492   2.270  -0.090  14.579 -0.2846 -0.5789 -1.8822
14667TIP3    H265493   2.165   0.009  14.532  0.4595  0.2079 -1.9229
14668TIP3   OH265494   2.442   6.225  11.406  0.0361  0.4231 -0.0727
14668TIP3    H165495   2.488   6.220  11.323 -1.7549 -0.7776 -1.0415
14668TIP3    H265496   2.401   6.139  11.417 -1.9050  1.3851  0.7501
14669TIP3   OH265497   6.236   0.109   1.126 -0.6695  0.1442 -0.2379
14669TIP3    H165498   6.160   0.164   1.148 -0.5526  0.2495 -0.0989
14669TIP3    H265499   6.312   0.164   1.145 -0.4961 -0.6433  1.5518
14670TIP3   OH265500   4.610   6.609   4.978 -0.7843  0.3392  0.5555
14670TIP3    H165501   4.566   6.585   5.059 -2.2216  0.0523 -0.2825
14670TIP3    H265502   4.566   6.559   4.910  0.0267  0.9810 -0.4839
14671TIP3   OH265503   2.582   4.334   1.718  0.0774 -0.7333 -0.3035
14671TIP3    H165504   2.667   4.376   1.722  0.1394 -0.8173 -0.6440
14671TIP3    H265505   2.595   4.261   1.658 -0.4842 -0.1428 -1.1676
14672TIP3   OH265506   1.643   4.546  15.592  0.1983 -0.0943  0.2373
14672TIP3    H165507   1.551   4.533  15.617 -0.0674 -0.1510 -0.7359
14672TIP3    H265508   1.639   4.593  15.508  1.0668  0.4047  0.4626
14673TIP3   OH265509   0.131   2.713   5.081  0.2084  0.1259 -0.9486
14673TIP3    H165510   0.172   2.727   4.996  0.5273  0.0950 -0.8008
14673TIP3    H265511   0.060   2.651   5.063  1.4422 -1.3503 -0.8843
14674TIP3   OH265512   3.624   3.087   0.966 -0.4643 -0.1063 -0.0854
14674TIP3    H165513   3.542   3.043   0.945  0.3333 -1.2868 -0.9097
14674TIP3    H265514   3.686   3.015   0.980  0.5457  0.7581 -0.0121
14675TIP3   OH265515   5.970   1.675   0.895 -1.0437  0.1441 -0.1896
14675TIP3    H165516   6.030   1.731   0.945 -1.0208 -0.4314  0.4467
14675TIP3    H265517   6.027   1.613   0.850 -1.1073  0.1617 -0.2927
14676TIP3   OH265518   3.151   2.751   0.497  0.2276  0.2876 -0.7834
14676TIP3    H165519   3.126   2.711   0.413  1.8376  0.8217 -1.5625
14676TIP3    H265520   3.244   2.769   0.488  0.2881  1.0025  0.8868
14677TIP3   OH265521   5.353   0.308  12.413 -0.6493 -0.0835 -0.4112
14677TIP3    H165522   5.417   0.353  12.356 -2.5143 -0.2838 -2.8099
14677TIP3    H265523   5.388   0.321  12.501  4.1689 -2.4865 -1.6208
14678TIP3   OH265524   3.008   0.036   1.305 -0.1082  0.1754  0.5700
14678TIP3    H165525   3.053   0.093   1.368 -0.5035  1.4606 -0.2771
14678TIP3    H265526   2.956  -0.023   1.359  0.3019  0.6240  1.4798
14679TIP3   OH265527   6.600   1.248  14.784 -0.8107 -0.7024  0.8184
14679TIP3    H165528   6.695   1.240  14.776  0.0795  3.6974  3.1784
14679TIP3    H265529   6.570   1.268  14.696  0.6801 -0.8042  0.2546
14680TIP3   OH265530   5.311   2.747  11.739 -0.2988  0.2468  0.1129
14680TIP3    H165531   5.266   2.825  11.708 -0.5891  0.8884  2.0059
14680TIP3    H265532   5.404   2.771  11.738 -0.2173 -0.0396 -0.9747
14681TIP3   OH265533   2.541   0.489   0.698 -0.2047 -0.5147 -0.5297
14681TIP3    H165534   2.537   0.543   0.619 -1.2400  0.7050  0.2872
14681TIP3    H265535   2.612   0.527   0.749 -1.2943  0.5224  0.2972
14682TIP3   OH265536   5.112   6.543   1.960 -0.1280 -0.1623 -0.2549
14682TIP3    H165537   5.156   6.610   2.012 -0.2118 -0.5631  0.3474
14682TIP3    H265538   5.083   6.589   1.881 -0.8538  0.7019  0.4728
14683TIP3   OH265539   1.058   3.063   4.973 -0.2536 -0.0340  0.0573
14683TIP3    H165540   1.038   3.058   4.879 -0.9993  1.1864  0.1351
14683TIP3    H265541   0.981   3.026   5.016  0.4046 -1.3208  0.2051
14684TIP3   OH265542   3.592   2.799   2.763  0.3560  0.2568  0.6843
14684TIP3    H165543   3.649   2.757   2.698  1.4416  2.3444  0.2084
14684TIP3    H265544   3.637   2.785   2.846 -0.0900 -0.8285  0.7560
14685TIP3   OH265545   2.673   2.578   3.866  0.6724  0.3930  0.1348
14685TIP3    H165546   2.617   2.515   3.909 -0.7073  0.5223 -1.3650
14685TIP3    H265547   2.646   2.576   3.774  1.2701  2.4313 -0.1497
14686TIP3   OH265548   1.972   5.445  14.830  0.2034  0.1537  0.5241
14686TIP3    H165549   1.897   5.395  14.863  0.7557 -0.3725  0.9991
14686TIP3    H265550   1.935   5.530  14.806 -0.7758 -0.4924 -0.3863
14687TIP3   OH265551   0.280   2.479  11.249 -0.2681  0.5234  0.2401
14687TIP3    H165552   0.267   2.501  11.157 -1.3225 -0.5158  0.1055
14687TIP3    H265553   0.201   2.430  11.273  0.0604  0.6380  1.6540
14688TIP3   OH265554   4.160   4.104  17.125  0.4735 -0.1834  0.0309
14688TIP3    H165555   4.135   4.026  17.175 -0.7243  0.9595  1.3100
14688TIP3    H265556   4.172   4.072  17.036  1.0440 -2.0073  0.7122
14689TIP3   OH265557   1.202   3.637  16.126  0.6858  0.5388  0.0873
14689TIP3    H165558   1.249   3.646  16.043 -1.3252  1.6398 -1.0053
14689TIP3    H265559   1.127   3.696  16.118 -1.2157 -1.5302  1.4972
14690TIP3   OH265560   4.668   2.054  10.822 -0.5047 -0.4866  0.4823
14690TIP3    H165561   4.615   2.124  10.783  0.1656  0.3898  1.1065
14690TIP3    H265562   4.604   1.988  10.851 -1.3668  0.9819  2.0992
14691TIP3   OH265563   3.961   1.411   1.015 -0.2215 -0.1807 -0.1523
14691TIP3    H165564   3.948   1.503   1.038 -0.5285 -0.1247 -0.5338
14691TIP3    H265565   4.045   1.388   1.055 -1.3177 -0.4704  2.1764
14692TIP3   OH265566   0.316   0.102  13.993 -0.0079 -0.2615 -0.0402
14692TIP3    H165567   0.312   0.014  14.032 -0.6004 -0.2351 -0.0450
14692TIP3    H265568   0.303   0.087  13.900 -1.4195 -0.0464  0.1058
14693TIP3   OH265569   1.524   2.459   4.365  0.4114 -0.5275  0.6704
14693TIP3    H165570   1.614   2.459   4.399  0.3995  2.3082  0.9023
14693TIP3    H265571   1.532   2.495   4.277 -0.3708 -1.5597  0.1539
14694TIP3   OH265572   0.898   2.952  15.155  0.7131 -0.0584  0.0376
14694TIP3    H165573   0.949   2.964  15.235 -0.4344  0.7366  0.6709
14694TIP3    H265574   0.946   3.002  15.089  1.1521  0.0705  0.4458
14695TIP3   OH265575   0.929   5.737   2.376  0.0213  0.2122 -0.6945
14695TIP3    H165576   0.868   5.677   2.334  1.6870 -0.4974 -2.2231
14695TIP3    H265577   0.945   5.806   2.311  1.0610  0.2223 -0.4507
14696TIP3   OH265578   3.666   0.407   1.509 -0.4355  0.0002 -0.2054
14696TIP3    H165579   3.753   0.388   1.543 -0.4442  0.6200  0.1871
14696TIP3    H265580   3.660   0.503   1.509 -1.0798 -0.0309 -0.3056
14697TIP3   OH265581   4.287   4.788   2.578 -0.1413  0.4244  0.1998
14697TIP3    H165582   4.302   4.693   2.575 -0.3838  0.4047 -0.7250
14697TIP3    H265583   4.250   4.803   2.665 -2.4129 -0.7040 -0.4815
14698TIP3   OH265584   5.686   6.524  17.270 -0.3393 -0.3695  0.2843
14698TIP3    H165585   5.726   6.496  17.188  2.4709 -2.2867  2.1214
14698TIP3    H265586   5.757   6.567  17.318 -2.3713  2.3862  1.0738
14699TIP3   OH265587   4.971   2.371  11.447  0.5629  0.1999 -0.3491
14699TIP3    H165588   5.007   2.307  11.386 -2.3234 -2.0086  0.0253
14699TIP3    H265589   4.996   2.339  11.533 -3.0658 -2.2573  0.0270
14700TIP3   OH265590   5.772   4.706   5.535 -0.4098 -0.1282 -0.5507
14700TIP3    H165591   5.733   4.793   5.524 -0.1655  0.1939  0.9347
14700TIP3    H265592   5.865   4.720   5.516 -0.6454 -0.4894 -2.1539
14701TIP3   OH265593   4.289   1.118   5.695  0.3002  0.1625 -0.7001
14701TIP3    H165594   4.332   1.033   5.703 -2.5704 -1.3946 -0.3000
14701TIP3    H265595   4.284   1.134   5.601  0.0710 -0.5890 -0.8242
14702TIP3   OH265596   5.418   6.594   2.460 -0.1720 -0.2091 -0.6867
14702TIP3    H165597   5.370   6.661   2.413 -2.3802 -0.5658  0.9093
14702TIP3    H265598   5.449   6.534   2.392 -1.0967  0.5923 -1.8528
14703TIP3   OH265599   2.304   0.290  13.422 -0.0374  0.2660  0.2496
14703TIP3    H165600   2.330   0.355  13.487  0.5031  1.8803 -1.4961
14703TIP3    H265601   2.360   0.307  13.347  0.0516 -2.1859 -0.3322
14704TIP3   OH265602   6.407   5.876   5.050 -0.1274  0.1476  0.0545
14704TIP3    H165603   6.398   5.886   5.145 -0.2502  0.2919  0.0279
14704TIP3    H265604   6.318   5.889   5.016 -0.3508 -1.2331  0.0363
14705TIP3   OH265605   2.785   4.184  16.515 -0.0492 -0.0969 -0.0108
14705TIP3    H165606   2.864   4.235  16.535  0.0440 -1.3278  3.5043
14705TIP3    H265607   2.717   4.250  16.499  0.8539  1.0869  0.8090
14706TIP3   OH265608   4.775   3.361  14.640  0.5221  0.6151 -0.4146
14706TIP3    H165609   4.812   3.344  14.727 -0.8223 -0.0605  0.0624
14706TIP3    H265610   4.721   3.439  14.651 -0.0385  0.2529 -0.4981
14707TIP3   OH265611   2.541   2.620  13.139 -0.3027  0.2346 -0.0924
14707TIP3    H165612   2.471   2.655  13.195  0.2641  0.9506  0.1853
14707TIP3    H265613   2.617   2.612  13.197  0.3944  1.3189 -0.8117
14708TIP3   OH265614   2.125   2.784   4.676  0.0934 -0.2027 -0.3120
14708TIP3    H165615   2.099   2.815   4.589  0.8497 -2.0771 -1.2692
14708TIP3    H265616   2.218   2.761   4.666 -0.2474 -2.1368  0.4290
14709TIP3   OH265617   0.878   2.485   0.444 -0.3563  0.6578 -0.1491
14709TIP3    H165618   0.796   2.497   0.397 -1.1313  2.6233  1.5162
14709TIP3    H265619   0.915   2.574   0.452  1.1047  0.0356  0.5414
14710TIP3   OH265620   4.244   2.575   3.057 -0.2411  0.2266 -0.9635
14710TIP3    H165621   4.217   2.532   2.976  1.0757 -0.6360 -0.9850
14710TIP3    H265622   4.294   2.652   3.027  1.2440 -0.7193 -1.0423
14711TIP3   OH265623   3.200   5.299   1.440 -0.0677  0.7350 -0.0572
14711TIP3    H165624   3.261   5.366   1.409  2.0853 -0.3043  1.6460
14711TIP3    H265625   3.201   5.307   1.535 -1.2395 -0.4903  0.0904
14712TIP3   OH265626   5.715   4.281  16.133  0.4565 -0.0593  0.4632
14712TIP3    H165627   5.781   4.264  16.066 -1.3882 -0.9110 -1.2520
14712TIP3    H265628   5.733   4.218  16.202  3.3875  1.8770  1.6617
14713TIP3   OH265629   5.237   0.057  14.648 -0.3460 -0.7221 -0.1607
14713TIP3    H165630   5.212  -0.025  14.690 -1.0845 -0.0506  0.7822
14713TIP3    H265631   5.317   0.037  14.600 -0.9947 -2.1936 -0.6766
14714TIP3   OH265632   3.703   4.913  12.563 -0.8434 -0.5344  0.0324
14714TIP3    H165633   3.616   4.891  12.596  0.1929 -0.5498  3.0661
14714TIP3    H265634   3.742   4.828  12.540 -2.4143 -0.3695 -3.9223
14715TIP3   OH265635   0.667   0.907  13.474  0.2569  0.6042 -0.2741
14715TIP3    H165636   0.715   0.867  13.547 -0.2297 -2.9626 -1.7538
14715TIP3    H265637   0.624   0.983  13.514  2.6384  0.7573  2.3520
14716TIP3   OH265638   3.601   3.970  13.940 -0.1117  0.2280  0.0685
14716TIP3    H165639   3.688   3.933  13.950 -0.9246 -2.0059 -0.5529
14716TIP3    H265640   3.585   4.018  14.022  1.0149 -0.7990  0.9098
14717TIP3   OH265641   4.964   3.570   5.997  0.1712  0.1472 -0.2138
14717TIP3    H165642   5.022   3.613   5.934 -1.0468  1.7120 -0.3284
14717TIP3    H265643   4.900   3.637   6.020 -1.9784 -1.6861 -0.5559
14718TIP3   OH265644   6.560   3.252   0.007 -0.2157  0.1761 -0.3918
14718TIP3    H165645   6.553   3.263  -0.088  1.1749  0.6619 -0.4663
14718TIP3    H265646   6.542   3.160   0.022 -0.4731  0.0977 -1.1212
14719TIP3   OH265647   4.587   2.150  15.092 -0.3055 -0.1716  0.1872
14719TIP3    H165648   4.662   2.092  15.081  0.1676  0.6205 -0.9263
14719TIP3    H265649   4.623   2.238  15.085 -1.3620  0.2144 -0.7155
14720TIP3   OH265650   4.837   5.581   0.829 -0.6668  0.4170 -0.5728
14720TIP3    H165651   4.862   5.489   0.822  0.4231  0.7234 -1.0152
14720TIP3    H265652   4.901   5.627   0.773  0.1807  1.6731  1.3290
14721TIP3   OH265653   1.655   1.575   0.455  0.5917 -0.4704  0.6512
14721TIP3    H165654   1.690   1.638   0.392  0.5459 -1.3172 -0.2419
14721TIP3    H265655   1.607   1.511   0.402 -1.2885 -0.0234  1.7442
14722TIP3   OH265656   1.567   3.058  14.504 -0.2167 -0.7556  0.2587
14722TIP3    H165657   1.641   2.998  14.511 -0.1930 -0.9689 -1.3022
14722TIP3    H265658   1.521   3.051  14.588  0.8672 -1.4994  0.8057
14723TIP3   OH265659   3.521   2.507  12.170 -0.1668 -0.2732  0.0326
14723TIP3    H165660   3.439   2.556  12.169  1.6708  3.2150 -1.8523
14723TIP3    H265661   3.496   2.417  12.147 -3.6949 -0.2200  2.7914
14724TIP3   OH265662   2.912   5.146  16.780  0.8908  0.2475  0.5605
14724TIP3    H165663   2.904   5.240  16.763 -0.6711  0.4578  2.1505
14724TIP3    H265664   2.837   5.107  16.735 -0.1033  0.1547  2.2113
14725TIP3   OH265665   6.676   5.644   0.286  0.2991 -0.7198  0.5160
14725TIP3    H165666   6.601   5.700   0.311  1.3802  0.6745  0.7733
14725TIP3    H265667   6.739   5.657   0.356  0.9469 -1.5830  0.1012
14726TIP3   OH265668   3.759   0.240  14.958  0.4046  0.2992 -0.2284
14726TIP3    H165669   3.710   0.233  15.040  1.6328  0.7581  0.5620
14726TIP3    H265670   3.833   0.297  14.979  0.7822  0.3559 -1.6414
14727TIP3   OH265671   3.197   3.956   2.933  0.3256 -0.8775  0.6309
14727TIP3    H165672   3.135   3.887   2.910  0.1176 -0.5519  0.2052
14727TIP3    H265673   3.196   4.016   2.858 -1.3744  0.9371  1.9745
14728TIP3   OH265674   1.188   4.993   1.971 -0.0001 -0.6351 -0.3357
14728TIP3    H165675   1.253   5.052   1.933  0.8469 -1.8796 -0.8677
14728TIP3    H265676   1.119   5.052   2.002  1.5237  0.7858  0.6147
14729TIP3   OH265677   2.783   5.029   2.812 -0.5835  0.0774  0.1677
14729TIP3    H165678   2.770   4.937   2.793 -0.5270  0.3014 -1.0016
14729TIP3    H265679   2.696   5.062   2.837 -0.4010 -0.5197  1.7425
14730TIP3   OH265680   3.564   3.274   2.193  0.5541 -0.1285  0.2640
14730TIP3    H165681   3.537   3.189   2.228  0.6045 -1.6562 -3.0392
14730TIP3    H265682   3.656   3.262   2.169  0.5836  0.8778 -0.1478
14731TIP3   OH265683   5.669   3.379  11.531  0.3702  0.2108  0.5458
14731TIP3    H165684   5.574   3.370  11.536  0.5204 -0.9045  1.6585
14731TIP3    H265685   5.689   3.366  11.438 -0.4572 -0.7930  0.4864
14732TIP3   OH265686   0.653   6.412  11.706 -0.5708 -0.0234 -0.1422
14732TIP3    H165687   0.588   6.400  11.775 -0.0920  0.7743  0.4782
14732TIP3    H265688   0.684   6.502  11.718  0.3787 -0.2642 -0.6486
14733TIP3   OH265689   3.087   1.760   1.013  0.3478 -0.1878 -0.2442
14733TIP3    H165690   3.014   1.705   1.042 -0.0345 -0.3735 -1.5148
14733TIP3    H265691   3.069   1.779   0.921  1.9914 -0.3749 -0.6407
14734TIP3   OH265692   3.975   3.897   0.357  0.3446 -0.4533  0.3088
14734TIP3    H165693   3.989   3.803   0.355  0.1358 -0.5375  1.5357
14734TIP3    H265694   4.063   3.935   0.355  0.4418 -0.4717 -3.6526
14735TIP3   OH265695   2.914   5.320   1.756  0.8629  0.6479 -0.1208
14735TIP3    H165696   2.998   5.318   1.711  1.3966 -0.3465  0.8579
14735TIP3    H265697   2.877   5.232   1.742  0.6944  0.5746  0.7203
14736TIP3   OH265698   6.790   3.909  16.130 -0.2419 -0.3682  0.6653
14736TIP3    H165699   6.756   3.914  16.219 -0.0507  0.3393  0.7080
14736TIP3    H265700   6.840   3.827  16.127  1.3907  0.5331  1.7966
14737TIP3   OH265701   5.764   2.656  12.990  0.2350  0.2146 -0.5220
14737TIP3    H165702   5.833   2.643  13.055 -1.1343 -1.2661  0.7185
14737TIP3    H265703   5.749   2.569  12.953 -3.4638 -0.4210  1.9440
14738TIP3   OH265704   0.794   4.177   5.396 -0.2845 -0.3927  0.2909
14738TIP3    H165705   0.801   4.257   5.447  0.1901 -0.5695  0.5166
14738TIP3    H265706   0.835   4.110   5.452 -1.0608 -0.8770  0.2941
14739TIP3   OH265707   2.794   5.907   3.387 -0.3388  0.1447 -0.1748
14739TIP3    H165708   2.859   5.940   3.325  0.2669  0.3069  0.5401
14739TIP3    H265709   2.845   5.864   3.455 -1.0795 -1.5730 -0.6588
14740TIP3   OH265710   1.655   0.253   1.993 -0.0097  0.7262  0.4288
14740TIP3    H165711   1.603   0.331   1.971  0.8247  1.3694  0.6627
14740TIP3    H265712   1.739   0.269   1.950  0.2366  0.0430  0.6571
14741TIP3   OH265713   4.554   1.901  16.614 -0.6990 -0.6647  1.1616
14741TIP3    H165714   4.585   1.820  16.572 -0.1340  0.0543  0.1280
14741TIP3    H265715   4.608   1.908  16.693  0.3618 -0.5075  0.4503
14742TIP3   OH265716   2.500   3.321   3.979  0.2149  0.1770  0.0202
14742TIP3    H165717   2.466   3.336   4.067  0.1257  0.8925 -0.1303
14742TIP3    H265718   2.425   3.286   3.930 -0.0371  0.8117 -0.0532
14743TIP3   OH265719   5.228   2.933   3.619 -0.5577 -0.5160 -0.3227
14743TIP3    H165720   5.319   2.921   3.647 -0.4158 -0.1702 -0.6393
14743TIP3    H265721   5.185   2.974   3.694 -0.2811  0.0004 -0.4460
14744TIP3   OH265722   2.882   1.906  17.046  0.3884  0.5366 -0.0252
14744TIP3    H165723   2.903   1.833  17.104  0.1463  0.8342  0.4532
14744TIP3    H265724   2.930   1.980  17.083  0.8433  0.5618 -0.6616
14745TIP3   OH265725   3.435   5.516  15.164 -1.1610  0.4052 -0.4315
14745TIP3    H165726   3.513   5.572  15.160 -0.1860 -0.7820  0.8994
14745TIP3    H265727   3.390   5.532  15.081 -0.8342  2.9784 -0.1924
14746TIP3   OH265728   4.493   5.091   1.108  0.0571  0.3778  0.3984
14746TIP3    H165729   4.510   5.136   1.024 -0.0141  0.1557  0.2655
14746TIP3    H265730   4.426   5.145   1.150  0.6336  0.9203  0.6542
14747TIP3   OH265731   3.132   1.132   5.191 -0.7071 -0.2474 -0.1088
14747TIP3    H165732   3.145   1.134   5.096  1.7232  0.6057  0.1631
14747TIP3    H265733   3.133   1.224   5.218  0.3676 -0.5253  0.8960
14748TIP3   OH265734   5.757   1.438   6.675 -0.8492  0.2699 -0.1915
14748TIP3    H165735   5.790   1.451   6.586  0.0064 -0.4331  0.0093
14748TIP3    H265736   5.736   1.526   6.707 -1.4970  0.4966 -1.2016
14749TIP3   OH265737   1.618   2.319  16.206 -0.3767  0.0578  0.2305
14749TIP3    H165738   1.642   2.409  16.185 -1.3551  0.2233 -0.2157
14749TIP3    H265739   1.702   2.275  16.219  0.1200  1.0406  0.5316
14750TIP3   OH265740   5.311   6.304   3.934  0.3779 -0.0463  0.1478
14750TIP3    H165741   5.365   6.316   4.012  0.1845  1.1176  0.1109
14750TIP3    H265742   5.221   6.313   3.965  0.2529 -0.5754 -0.0441
14751TIP3   OH265743   4.509   1.002  12.450 -0.0535  0.0236  0.1440
14751TIP3    H165744   4.574   0.936  12.426  2.1441  0.9189  2.9892
14751TIP3    H265745   4.479   0.976  12.537 -1.4376  1.1374  0.0387
14752TIP3   OH265746   2.562   2.823   1.223 -0.0769 -0.5198 -0.2458
14752TIP3    H165747   2.494   2.855   1.164 -0.0796 -1.9194 -1.0633
14752TIP3    H265748   2.607   2.901   1.253 -0.6255  0.2919 -1.4638
14753TIP3   OH265749   5.959   3.090  11.444  0.1250 -0.1939  0.4422
14753TIP3    H165750   6.001   3.123  11.524 -0.6777 -0.6152  1.0445
14753TIP3    H265751   5.986   2.998  11.439 -1.3152 -0.6787  1.2462
14754TIP3   OH265752   0.621   0.219   4.082 -0.6797 -0.0548  0.0373
14754TIP3    H165753   0.709   0.251   4.065 -0.8678 -0.0918 -1.1104
14754TIP3    H265754   0.604   0.240   4.173  0.4254  0.1615  0.1983
14755TIP3   OH265755   0.445   6.022  17.132  0.6457  0.5801 -0.1897
14755TIP3    H165756   0.470   6.012  17.040  0.5364 -0.8829 -0.0740
14755TIP3    H265757   0.525   6.054  17.175  1.1840 -0.2885 -0.5158
14756TIP3   OH265758   4.576   6.245   4.477 -0.3181 -0.2172 -0.0028
14756TIP3    H165759   4.535   6.319   4.523 -0.2848  0.6873 -1.3792
14756TIP3    H265760   4.666   6.245   4.509 -0.5178 -0.1500  0.5771
14757TIP3   OH265761   4.474   4.342   5.702  0.3097 -0.5474 -0.1484
14757TIP3    H165762   4.419   4.349   5.780 -0.8951  0.4103 -1.0438
14757TIP3    H265763   4.451   4.257   5.663 -1.0218  0.1011 -0.8350
14758TIP3   OH265764   1.135   0.148  13.642  0.5963  0.0702  0.7702
14758TIP3    H165765   1.148   0.071  13.587  0.5535 -0.8930  2.0452
14758TIP3    H265766   1.221   0.164  13.682  0.7409  1.0289  0.1069
14759TIP3   OH265767   5.960   5.825   3.552 -0.3081  0.1000  0.0926
14759TIP3    H165768   5.917   5.910   3.547  1.6951  1.0872 -2.6075
14759TIP3    H265769   5.905   5.768   3.498  0.1855  0.6245 -0.9938
14760TIP3   OH265770   5.435   3.653   3.821 -0.1937  0.3145 -0.2023
14760TIP3    H165771   5.485   3.699   3.754  0.7113  0.4929  0.5749
14760TIP3    H265772   5.482   3.670   3.902  0.0931 -1.8614  0.1484
14761TIP3   OH265773   4.699   4.448  15.171  0.0997 -0.1728 -0.2045
14761TIP3    H165774   4.710   4.508  15.097  1.9142 -0.2272 -0.0143
14761TIP3    H265775   4.761   4.377  15.154 -1.2101 -1.4406  0.1437
14762TIP3   OH265776   4.040   5.812  12.373  0.2652 -0.1726 -0.8016
14762TIP3    H165777   4.090   5.737  12.342 -0.6978 -1.5645  0.7968
14762TIP3    H265778   4.023   5.864  12.295  1.3758 -1.3495 -1.8797
14763TIP3   OH265779   4.696   3.623   2.539  0.4831  0.0220  0.2368
14763TIP3    H165780   4.756   3.611   2.465  0.0031  0.5337 -0.2418
14763TIP3    H265781   4.697   3.538   2.584  1.8522  0.1249  0.4632
14764TIP3   OH265782   0.725   2.394  13.257 -0.2344 -0.0662 -0.3460
14764TIP3    H165783   0.819   2.396  13.279 -0.6225  1.7392  1.4782
14764TIP3    H265784   0.721   2.349  13.173  2.3435  0.4496 -0.8378
14765TIP3   OH265785   1.371   1.463  15.286 -0.2471  0.1196 -0.5759
14765TIP3    H165786   1.392   1.421  15.203 -0.3651  0.7926 -0.9547
14765TIP3    H265787   1.433   1.424  15.349 -0.2518 -0.4927 -0.9427
14766TIP3   OH265788   4.910   1.275   2.312 -0.1625  0.1151  0.5275
14766TIP3    H165789   5.004   1.286   2.299 -0.2326  0.2640  0.1406
14766TIP3    H265790   4.878   1.363   2.333 -0.5640  0.5419 -1.5866
14767TIP3   OH265791   6.735   6.056  11.620  0.3857 -0.2064 -0.6483
14767TIP3    H165792   6.647   6.028  11.646  0.5243 -1.5396 -1.4938
14767TIP3    H265793   6.792   5.989  11.657  0.8235 -0.6042 -1.9830
14768TIP3   OH265794   4.361   4.155  14.204 -0.1718 -0.3840 -0.8263
14768TIP3    H165795   4.437   4.200  14.167  0.2289 -0.6539 -0.3543
14768TIP3    H265796   4.393   4.117  14.286 -1.2541  0.8956  0.2309
14769TIP3   OH265797   4.396   6.618   0.143  0.3051 -0.1785  0.2570
14769TIP3    H165798   4.359   6.628   0.231 -0.1186  1.6781 -0.0863
14769TIP3    H265799   4.331   6.566   0.096 -1.2481  1.8174  0.0742
14770TIP3   OH265800   3.394   1.722   2.508  0.8460  0.2061 -0.3203
14770TIP3    H165801   3.318   1.743   2.561  1.8068  3.3450  0.0377
14770TIP3    H265802   3.459   1.690   2.571  1.3387  2.0863  0.1943
14771TIP3   OH265803   1.993   1.199  14.878 -0.3083 -0.1294 -0.0104
14771TIP3    H165804   1.932   1.196  14.952 -1.9432  2.1800 -1.1569
14771TIP3    H265805   2.018   1.291  14.871  1.8742 -0.7322 -0.7724
14772TIP3   OH265806   0.278   3.212   1.221 -0.3300  0.1042  0.0536
14772TIP3    H165807   0.209   3.194   1.157  0.6677  1.6508 -1.5336
14772TIP3    H265808   0.307   3.125   1.250 -0.9090 -0.6334 -1.4770
14773TIP3   OH265809   1.793   5.236   0.599  0.1806 -0.7863  0.1917
14773TIP3    H165810   1.725   5.284   0.647  0.0522 -0.7528 -0.0254
14773TIP3    H265811   1.766   5.240   0.508  1.6439  1.1732 -0.1956
14774TIP3   OH265812   0.503   4.305   2.863  0.2297  0.7896 -0.1280
14774TIP3    H165813   0.570   4.272   2.922  1.7412  2.6880 -0.6769
14774TIP3    H265814   0.551   4.358   2.799 -1.4796 -0.1372 -2.3124
14775TIP3   OH265815   4.233   6.124   2.473  0.1113  0.2977 -0.4081
14775TIP3    H165816   4.153   6.076   2.451 -0.4236  0.0368  1.7892
14775TIP3    H265817   4.232   6.201   2.416 -3.4458  2.0034  1.6248
14776TIP3   OH265818   6.336   6.433   6.025 -0.1312 -0.0022 -0.4168
14776TIP3    H165819   6.357   6.492   6.098 -0.7550  0.3840 -0.5424
14776TIP3    H265820   6.340   6.345   6.063 -1.6081  0.2494  0.3931
14777TIP3   OH265821   0.827   2.225   3.414 -0.2020  0.4457 -0.2296
14777TIP3    H165822   0.788   2.289   3.354 -0.2486  0.6057 -0.0265
14777TIP3    H265823   0.797   2.140   3.381 -0.0420  0.5199 -0.5721
14778TIP3   OH265824   6.057   0.941   5.800  0.3340 -0.6786 -0.4450
14778TIP3    H165825   6.054   0.959   5.706  0.7884 -0.8485 -0.4956
14778TIP3    H265826   6.030   0.849   5.807 -0.0562 -0.5579 -0.3760
14779TIP3   OH265827   1.703   3.102   3.335  0.0689 -0.0477 -0.9909
14779TIP3    H165828   1.762   3.148   3.276  0.4812 -0.1604 -0.6689
14779TIP3    H265829   1.675   3.025   3.285  1.7157 -1.0338 -0.4513
14780TIP3   OH265830   0.943   1.057  13.332  0.1654  0.0070 -0.1546
14780TIP3    H165831   0.862   1.077  13.285  0.2029 -0.2064 -0.3112
14780TIP3    H265832   0.978   0.979  13.288 -0.2878 -0.7670  0.8211
14781TIP3   OH265833   0.078   5.096   0.002 -0.2407 -0.4660  0.8147
14781TIP3    H165834  -0.008   5.107  -0.039  0.4544  0.2467 -0.5012
14781TIP3    H265835   0.058   5.077   0.094 -1.7947  2.7844  1.2793
14782TIP3   OH265836   1.733   3.203   1.444  0.0891 -0.1583 -0.4875
14782TIP3    H165837   1.813   3.163   1.477  0.7257  0.9084 -0.7023
14782TIP3    H265838   1.698   3.139   1.381  0.0085 -1.2441  0.6140
14783TIP3   OH265839   5.381   4.703  14.350  0.2377  0.3242 -0.1861
14783TIP3    H165840   5.336   4.695  14.266  0.9445  0.3315 -0.5659
14783TIP3    H265841   5.312   4.688  14.415 -0.1295 -0.5888 -0.7724
14784TIP3   OH265842   3.856   4.896  13.862 -0.3000  0.1116 -0.5382
14784TIP3    H165843   3.900   4.945  13.931 -0.1906 -0.1018 -0.4589
14784TIP3    H265844   3.775   4.945  13.846  0.4473  1.1133 -1.4262
14785TIP3   OH265845   5.924   4.902  11.528 -0.2776 -0.2976 -0.0154
14785TIP3    H165846   5.955   4.828  11.475 -3.2747 -2.2882  0.7451
14785TIP3    H265847   5.863   4.948  11.471 -1.8204 -1.1366  0.8991
14786TIP3   OH265848   1.914   4.007   0.187  0.5545 -0.4264 -0.3109
14786TIP3    H165849   2.001   4.043   0.206 -0.6645  1.5061  2.2441
14786TIP3    H265850   1.869   4.009   0.271 -2.5694  0.3172 -1.8700
14787TIP3   OH265851   6.676   2.649   3.214  0.2404 -0.6789 -0.7939
14787TIP3    H165852   6.688   2.744   3.207  1.6043 -0.5987  1.3480
14787TIP3    H265853   6.764   2.614   3.203 -0.0032 -1.5525 -0.0291
14788TIP3   OH265854   2.435   4.943   3.199 -0.2400 -0.1491  0.2806
14788TIP3    H165855   2.519   4.987   3.200 -1.5235  2.4853  1.3228
14788TIP3    H265856   2.425   4.906   3.287 -1.3228  2.0816  1.1669
14789TIP3   OH265857   3.192   5.529   4.450  0.2665 -0.2117  0.1222
14789TIP3    H165858   3.228   5.618   4.452  1.1242 -0.5321 -0.4493
14789TIP3    H265859   3.268   5.472   4.461 -0.2858 -0.8800  0.5862
14790TIP3   OH265860   6.054   5.470  12.404 -0.1059  0.2620  0.1498
14790TIP3    H165861   6.138   5.440  12.370 -0.0789 -0.4055  0.7748
14790TIP3    H265862   6.009   5.391  12.432  0.3889  0.8042  2.7934
14791TIP3   OH265863   4.234   3.928  10.910 -0.3110 -0.0850 -0.0502
14791TIP3    H165864   4.166   3.989  10.937 -2.0490 -1.7300 -0.4534
14791TIP3    H265865   4.227   3.924  10.815 -1.5976 -2.2521  0.0432
14792TIP3   OH265866   1.914   1.964   4.450  0.1565  0.2099 -0.2826
14792TIP3    H165867   1.973   2.039   4.449 -0.4406  0.7656 -2.7172
14792TIP3    H265868   1.840   1.991   4.395 -1.6224 -1.0380  1.3538
14793TIP3   OH265869   6.371   1.380   0.485 -0.8867 -0.5631  0.4918
14793TIP3    H165870   6.438   1.395   0.551 -0.4072  1.9291 -0.4295
14793TIP3    H265871   6.408   1.314   0.427  1.7571  2.0050 -1.0271
14794TIP3   OH265872   1.911   1.217   3.664 -0.0153 -0.0057  0.6349
14794TIP3    H165873   1.883   1.203   3.574 -0.5117 -2.0547  1.0583
14794TIP3    H265874   1.859   1.292   3.694 -0.6838 -0.0274 -0.4259
14795TIP3   OH265875   0.905   6.098   4.660  0.5689 -0.1820  0.6561
14795TIP3    H165876   0.975   6.056   4.710  1.3020  0.1568 -0.0507
14795TIP3    H265877   0.926   6.078   4.568 -1.3032 -1.6606  0.4763
14796TIP3   OH265878   6.093   3.849  15.924  0.4034  0.0556 -0.4256
14796TIP3    H165879   6.053   3.805  15.998  2.1434 -2.1013 -0.6745
14796TIP3    H265880   6.173   3.799  15.906  1.1947  1.8515 -2.3461
14797TIP3   OH265881   2.145   6.794  10.633 -0.3066  0.3299  0.2288
14797TIP3    H165882   2.129   6.737  10.559  0.8888  2.3749 -1.7279
14797TIP3    H265883   2.087   6.869  10.618  0.5880  1.1672  0.8884
14798TIP3   OH265884   2.371   0.676   4.833  0.0230 -0.1589  0.3661
14798TIP3    H165885   2.296   0.693   4.891  1.0644 -0.2356  1.7877
14798TIP3    H265886   2.386   0.760   4.789  0.8127  0.6793  2.1608
14799TIP3   OH265887   4.839   0.756  13.491  0.0209  0.1610 -0.5799
14799TIP3    H165888   4.816   0.727  13.580  3.0960  1.3826  0.7894
14799TIP3    H265889   4.760   0.797  13.457 -1.4629 -0.9561  1.3255
14800TIP3   OH265890   0.588   3.611   5.551  0.4125 -0.0003  0.2155
14800TIP3    H165891   0.554   3.545   5.489 -0.7259  0.1690  0.6358
14800TIP3    H265892   0.681   3.591   5.557  0.8957  0.8482 -2.6456
14801TIP3   OH265893   4.005   2.736   1.959  0.7074  0.3725  0.3881
14801TIP3    H165894   4.062   2.666   1.926  0.0107  0.3715 -0.8870
14801TIP3    H265895   4.061   2.788   2.017  1.3902 -0.9008  0.9007
14802TIP3   OH265896   1.876   5.961   0.651 -0.2889  0.1652 -0.2339
14802TIP3    H165897   1.791   5.920   0.668 -0.2360  0.2385  0.2357
14802TIP3    H265898   1.893   6.013   0.730  0.1597  0.2080 -0.3569
14803TIP3   OH265899   3.450   1.138   4.148  0.0879 -0.0855  0.0503
14803TIP3    H165900   3.518   1.087   4.192  0.7770  0.2473 -0.5997
14803TIP3    H265901   3.424   1.083   4.074  0.3819  0.2309 -0.2884
14804TIP3   OH265902   6.112   3.057   3.488 -0.1851 -0.3337  0.7526
14804TIP3    H165903   6.197   3.013   3.477  1.0519  2.0342  0.1130
14804TIP3    H265904   6.105   3.069   3.583  0.7367  0.3916  0.7465
14805TIP3   OH265905   3.938   5.247  16.189  0.7665 -0.7331 -0.0510
14805TIP3    H165906   3.960   5.311  16.121  0.2225  0.4584  0.8572
14805TIP3    H265907   4.007   5.182  16.184  0.4091 -1.0067 -2.1447
14806TIP3   OH265908   3.987   5.048  14.033 -0.4523  0.1354  0.7849
14806TIP3    H165909   3.963   5.110  14.101 -1.0205  1.6344 -0.7237
14806TIP3    H265910   4.016   5.102  13.960 -0.9103 -1.3630 -0.5653
14807TIP3   OH265911   3.410   2.328   1.908  0.1528 -0.4486  0.3719
14807TIP3    H165912   3.466   2.291   1.839 -1.9875 -0.2785 -1.5837
14807TIP3    H265913   3.451   2.412   1.930 -0.8138  1.1785 -3.2704
14808TIP3   OH265914   0.005   4.653   1.762 -0.1637  0.2542 -0.5808
14808TIP3    H165915   0.071   4.722   1.770 -1.4296  1.3794  0.6899
14808TIP3    H265916  -0.021   4.633   1.852 -2.7780  1.1140 -1.0379
14809TIP3   OH265917   3.433   0.201   0.712  0.2084 -0.3456 -0.5156
14809TIP3    H165918   3.509   0.184   0.768 -1.3586 -0.4624  1.7565
14809TIP3    H265919   3.437   0.295   0.694  0.6573 -0.2678 -0.0399
14810TIP3   OH265920   6.005   5.251   1.597 -0.2279 -0.3075  0.1933
14810TIP3    H165921   5.995   5.266   1.691 -0.8936  0.7909 -0.0307
14810TIP3    H265922   6.035   5.161   1.590  0.2483 -0.2677  1.4798
14811TIP3   OH265923   6.329   6.074  11.776 -0.0353  0.4675  0.2320
14811TIP3    H165924   6.355   6.080  11.867  1.7633 -0.5325 -0.1705
14811TIP3    H265925   6.245   6.029  11.777 -0.0018  0.4178  1.3767
14812TIP3   OH265926   1.820   3.652   1.471  0.1264  0.1756  0.0910
14812TIP3    H165927   1.745   3.595   1.452  0.6519 -0.2459 -0.7822
14812TIP3    H265928   1.803   3.730   1.417  0.6687 -0.2258 -0.6769
14813TIP3   OH265929   0.262   5.505  15.789 -0.0830  0.1139  0.3757
14813TIP3    H165930   0.349   5.467  15.806  0.9783  2.3168  0.2073
14813TIP3    H265931   0.202   5.449  15.838  1.5402 -0.8787  1.3308
14814TIP3   OH265932   5.021   3.069  14.849 -0.3588  0.0714 -0.1951
14814TIP3    H165933   5.011   2.980  14.881 -0.9104  0.5633  1.0909
14814TIP3    H265934   5.114   3.076  14.826 -0.5764 -1.2106 -1.5932
14815TIP3   OH265935   5.817   5.832   0.341  0.3588 -0.1938 -0.0536
14815TIP3    H165936   5.872   5.770   0.293 -0.0380  0.0175 -0.7819
14815TIP3    H265937   5.728   5.798   0.332 -0.2449  1.7895 -2.6391
14816TIP3   OH265938   4.382   2.674   4.349  0.3070 -0.6326 -0.5286
14816TIP3    H165939   4.375   2.710   4.437 -2.4042 -0.4147 -0.7416
14816TIP3    H265940   4.418   2.746   4.297 -1.1160  0.4073 -0.1576
14817TIP3   OH265941   4.287   1.175  11.647 -0.1399  0.2996 -0.2533
14817TIP3    H165942   4.382   1.192  11.649 -0.4867  2.3442  0.4810
14817TIP3    H265943   4.248   1.253  11.685 -2.2313  0.0362 -1.7557
14818TIP3   OH265944   1.021   1.278  15.788  0.6994  0.5693 -0.2425
14818TIP3    H165945   1.096   1.323  15.827  0.8100 -0.6342  1.0529
14818TIP3    H265946   1.042   1.272  15.695  0.7123  3.0409 -0.4467
14819TIP3   OH265947   0.142   0.462   2.483  0.5083  0.0373 -0.3216
14819TIP3    H165948   0.203   0.482   2.411 -0.3317  0.7084 -0.8662
14819TIP3    H265949   0.090   0.389   2.451  1.3497 -0.8952  0.3578
14820TIP3   OH265950   4.667   1.607   4.099 -0.2050 -0.0299  0.5569
14820TIP3    H165951   4.667   1.667   4.173 -0.7871 -0.5834  1.0110
14820TIP3    H265952   4.689   1.662   4.024 -0.4574  0.6994  1.0081
14821TIP3   OH265953   4.518   2.632  11.900 -0.6066  0.5495 -0.3081
14821TIP3    H165954   4.559   2.704  11.948  1.7539  0.0395 -1.4291
14821TIP3    H265955   4.520   2.660  11.809 -1.8314  0.0314 -0.5093
14822TIP3   OH265956   1.774   5.951  12.022 -0.4490  0.2429  0.0939
14822TIP3    H165957   1.855   5.913  11.988 -2.0216 -1.7292 -1.7326
14822TIP3    H265958   1.768   6.037  11.980  0.4745  0.2498 -0.0431
14823TIP3   OH265959   1.539   1.379   5.322 -0.4788 -0.3967 -0.5565
14823TIP3    H165960   1.483   1.389   5.398 -0.2507 -0.4073 -0.3871
14823TIP3    H265961   1.608   1.444   5.334  0.1921 -1.1677 -0.1781
14824TIP3   OH265962   6.553   5.193  12.736  0.6858  0.1438  0.1665
14824TIP3    H165963   6.599   5.235  12.809 -1.6820 -0.5834  2.2026
14824TIP3    H265964   6.463   5.225  12.742  0.5106  0.5571 -2.9041
14825TIP3   OH265965   3.668   2.064   2.842  0.4618 -0.4031 -0.1643
14825TIP3    H165966   3.705   2.030   2.923 -0.8141  0.7738  0.9586
14825TIP3    H265967   3.724   2.139   2.820  0.1980 -0.0999  0.1938
14826TIP3   OH265968   4.149   4.449  12.251  0.0719 -0.1388 -0.2929
14826TIP3    H165969   4.072   4.475  12.201 -1.5909 -0.4439  1.9625
14826TIP3    H265970   4.181   4.371  12.206  0.2774  1.0649 -2.3764
14827TIP3   OH265971   1.175   5.048  12.309  0.2466 -0.4420 -0.4491
14827TIP3    H165972   1.125   5.130  12.311 -0.4739 -0.8642  1.6417
14827TIP3    H265973   1.265   5.075  12.289 -0.2969  0.6171 -1.6660
14828TIP3   OH265974   0.023   2.632   0.813 -0.1952  0.2334 -0.2525
14828TIP3    H165975   0.084   2.590   0.753 -0.2877  0.7685 -0.7314
14828TIP3    H265976  -0.023   2.697   0.759  0.0183  1.0167  0.4775
14829TIP3   OH265977   5.286   4.813   2.320  0.1132 -0.0505 -0.5115
14829TIP3    H165978   5.225   4.740   2.324 -1.0179  0.9412  1.4171
14829TIP3    H265979   5.360   4.786   2.375 -0.6024  0.4925  0.7397
14830TIP3   OH265980   0.707   3.269   5.480 -0.0957 -0.6977 -0.0431
14830TIP3    H165981   0.698   3.205   5.550  0.0970 -1.4759 -0.7188
14830TIP3    H265982   0.754   3.342   5.521  1.3077 -1.7312  0.2865
14831TIP3   OH265983   4.840   4.233   0.686  0.3984 -0.3246  0.4861
14831TIP3    H165984   4.814   4.241   0.594  1.3612  0.2503  0.2446
14831TIP3    H265985   4.853   4.324   0.714  0.4535 -0.5176  1.0856
14832TIP3   OH265986   1.830   5.871   4.496 -0.0557 -0.8857 -0.6573
14832TIP3    H165987   1.904   5.932   4.505  0.1398 -1.2992  0.7432
14832TIP3    H265988   1.867   5.795   4.452  0.7104 -1.5992  1.1033
14833TIP3   OH265989   0.760   3.691  10.943 -0.1755 -0.2853 -0.4540
14833TIP3    H165990   0.805   3.676  10.860 -0.0548  0.4997 -0.5370
14833TIP3    H265991   0.787   3.779  10.969  1.0494 -1.0867  1.2017
14834TIP3   OH265992   6.534   1.513   4.269 -0.0467 -0.2681 -0.0674
14834TIP3    H165993   6.452   1.522   4.317 -0.8904 -1.6749 -1.1716
14834TIP3    H265994   6.569   1.428   4.298  2.4637  1.4363  2.4411
14835TIP3   OH265995   4.953   3.471   5.306 -0.2388 -0.0301  0.3815
14835TIP3    H165996   4.985   3.422   5.382  0.7685 -0.2712 -0.1693
14835TIP3    H265997   4.981   3.561   5.322  2.0181 -0.4633 -0.7150
14836TIP3   OH265998   2.484   0.916  11.850 -0.2381 -0.2571 -0.4257
14836TIP3    H165999   2.458   1.001  11.885 -0.8252  0.0249 -1.5275
14836TIP3    H266000   2.425   0.854  11.893 -1.2798  0.1392 -1.2486
14837TIP3   OH266001   0.454   0.137  10.372 -0.3816 -0.3948 -0.1104
14837TIP3    H166002   0.413   0.065  10.420  0.5865 -0.3643  0.7742
14837TIP3    H266003   0.517   0.175  10.433  0.8487 -0.3253 -1.3713
14838TIP3   OH266004   5.794   3.827  13.590  0.0928  0.4518 -0.1198
14838TIP3    H166005   5.834   3.872  13.515 -0.0383  0.5040 -0.1597
14838TIP3    H266006   5.714   3.788  13.554  0.9623 -1.1088 -0.4571
14839TIP3   OH266007   4.885   1.192  17.057 -0.8951 -0.4059  0.4211
14839TIP3    H166008   4.961   1.137  17.039 -0.4805  0.2346  0.1799
14839TIP3    H266009   4.823   1.172  16.987 -0.0839  0.6165 -0.6439
14840TIP3   OH266010   3.932   6.660   0.354  0.1367 -0.4379 -0.0287
14840TIP3    H166011   3.956   6.714   0.429 -1.3630 -0.4782  0.5211
14840TIP3    H266012   3.956   6.571   0.381  1.1646 -0.2611 -0.3069
14841TIP3   OH266013   6.768   1.126  15.085 -0.6632  0.6959 -0.1918
14841TIP3    H166014   6.817   1.101  15.007 -2.2911  0.5650 -1.2323
14841TIP3    H266015   6.802   1.069  15.154 -0.2135 -0.2541 -1.1609
14842TIP3   OH266016   2.629   4.017   1.248  0.8048  0.2356  0.2847
14842TIP3    H166017   2.534   4.002   1.255  0.9120 -0.3939  0.3915
14842TIP3    H266018   2.636   4.098   1.197  0.2370 -0.4403 -0.9196
14843TIP3   OH266019   4.754   5.063   5.400 -0.2773  0.3003  0.0117
14843TIP3    H166020   4.730   4.970   5.403 -0.8555  0.4645  0.9970
14843TIP3    H266021   4.776   5.085   5.491  2.9460  0.3679 -0.6790
14844TIP3   OH266022   0.923   6.480   0.338 -0.1455  0.4594 -0.0226
14844TIP3    H166023   0.834   6.497   0.369 -0.2327  0.4655 -0.2799
14844TIP3    H266024   0.918   6.485   0.243  0.0720  0.1686 -0.0526
14845TIP3   OH266025   6.139   6.452   3.148  0.5818  0.5939  0.5402
14845TIP3    H166026   6.085   6.400   3.207  1.4140 -1.9893 -0.8294
14845TIP3    H266027   6.078   6.488   3.084  0.2462 -1.3715 -0.3338
14846TIP3   OH266028   5.338   4.418   2.914  0.2556  0.0454 -0.2849
14846TIP3    H166029   5.294   4.494   2.952  0.1791  0.1828 -0.6435
14846TIP3    H266030   5.417   4.407   2.967  0.2356  0.3388 -0.1924
14847TIP3   OH266031   2.577   5.073  16.264 -0.6055 -0.1308 -0.6834
14847TIP3    H166032   2.621   5.018  16.329 -0.1818  0.0585 -0.8088
14847TIP3    H266033   2.594   5.031  16.180  0.8393  0.8751 -0.9428
14848TIP3   OH266034   2.943   6.770  16.785 -0.0755 -0.0668 -0.1652
14848TIP3    H166035   3.034   6.760  16.756  0.2064  0.3163  0.5662
14848TIP3    H266036   2.914   6.680  16.803  1.2580 -0.0377  2.7946
14849TIP3   OH266037   4.960   1.863   4.373  0.5105  0.1233 -0.1413
14849TIP3    H166038   5.049   1.882   4.343 -0.0705  0.8585 -1.4642
14849TIP3    H266039   4.945   1.924   4.444  1.2317 -0.3547  0.4405
14850TIP3   OH266040   0.832   4.485  13.667 -0.0723 -0.2672  0.2175
14850TIP3    H166041   0.821   4.404  13.715  1.0142  0.3267  1.5381
14850TIP3    H266042   0.747   4.530  13.675  0.0057 -0.3041  1.3693
14851TIP3   OH266043   5.609   1.205  12.793 -0.3435 -0.2211 -0.8549
14851TIP3    H166044   5.697   1.179  12.821 -0.4110  0.8810  0.4471
14851TIP3    H266045   5.612   1.198  12.697  1.8812  1.9325 -1.0348
14852TIP3   OH266046   1.732   4.846  11.337 -1.0725  0.3365 -0.0699
14852TIP3    H166047   1.650   4.886  11.307 -1.0748 -0.4272 -1.1583
14852TIP3    H266048   1.756   4.786  11.266  1.0381  1.3872 -0.3192
14853TIP3   OH266049   4.670   1.838   6.733  0.0088 -0.0776  0.0358
14853TIP3    H166050   4.718   1.776   6.787  1.4581  0.6599 -0.3567
14853TIP3    H266051   4.735   1.903   6.707 -1.4688  1.7227  0.5605
14854TIP3   OH266052   5.403   2.452  11.495  0.1793 -0.1861  0.1397
14854TIP3    H166053   5.448   2.537  11.498  0.0282 -0.1206  0.6138
14854TIP3    H266054   5.416   2.421  11.406  2.6191 -0.9346  0.6755
14855TIP3   OH266055   5.972   4.828   3.082  0.1378  0.1572 -0.3344
14855TIP3    H166056   6.053   4.857   3.124  1.4429 -0.5733 -2.2362
14855TIP3    H266057   5.967   4.734   3.101  0.8016 -0.2029 -1.8463
14856TIP3   OH266058   0.103   3.063   0.697  0.1378  0.2887 -0.6388
14856TIP3    H166059   0.190   3.031   0.719  0.1308 -0.3463 -1.4768
14856TIP3    H266060   0.083   3.023   0.612 -1.9607 -1.5339  0.5889
14857TIP3   OH266061   1.997   4.104   0.842  0.1248  0.6157 -0.1639
14857TIP3    H166062   2.035   4.172   0.788 -0.4595  2.2170  1.3234
14857TIP3    H266063   2.071   4.052   0.873  0.5166  0.1166 -1.8338
14858TIP3   OH266064   4.513   2.108   3.267  0.7280 -0.6053 -0.5821
14858TIP3    H166065   4.527   2.202   3.281 -0.4067 -0.1814 -2.0398
14858TIP3    H266066   4.549   2.091   3.180 -2.4166 -0.6585 -1.9864
14859TIP3   OH266067   4.182   4.369  13.785 -0.2679 -0.0325  0.0010
14859TIP3    H166068   4.094   4.365  13.748 -0.9760  2.1677  1.2327
14859TIP3    H266069   4.169   4.359  13.879  0.7380  0.6375  0.2275
14860TIP3   OH266070   6.810   2.359   0.290 -0.4264  0.3727 -0.3104
14860TIP3    H166071   6.719   2.330   0.279 -0.0823 -2.1116  2.2421
14860TIP3    H266072   6.856   2.325   0.214 -1.2521 -0.2742 -0.5335
14861TIP3   OH266073   3.009   4.962  11.838  0.0869  0.5934  0.3483
14861TIP3    H166074   2.991   5.029  11.772  1.6586  2.1277  1.3917
14861TIP3    H266075   3.075   4.906  11.799 -0.3721  0.3326 -0.0732
14862TIP3   OH266076   4.812   2.072   1.921 -0.0893  0.0215  0.0489
14862TIP3    H166077   4.777   2.007   1.860  0.6308 -0.5072  0.1794
14862TIP3    H266078   4.841   2.020   1.996 -2.1593  0.7741  1.4439
14863TIP3   OH266079   5.814   2.907  12.118 -0.2780 -0.3395  0.8326
14863TIP3    H166080   5.902   2.944  12.118  0.0182 -0.9619 -0.9057
14863TIP3    H266081   5.763   2.968  12.172  0.9905  0.5485  1.0857
14864TIP3   OH266082   1.929   0.372  14.523  0.5162 -0.4287  0.7975
14864TIP3    H166083   1.992   0.324  14.469  0.3797  0.2727 -0.0008
14864TIP3    H266084   1.981   0.442  14.563  0.7230 -1.2325  1.9857
14865TIP3   OH266085   5.503   2.096   1.377 -0.2416 -0.5362  0.2984
14865TIP3    H166086   5.500   2.083   1.472  2.2802  0.3558  0.5607
14865TIP3    H266087   5.556   2.023   1.345  0.8332  0.3959 -0.1143
14866TIP3   OH266088   1.236   6.194  11.867  0.1657 -0.2410 -0.5203
14866TIP3    H166089   1.152   6.204  11.912  0.7079  2.0389  0.1122
14866TIP3    H266090   1.217   6.134  11.794 -1.5203 -1.3416  0.7255
14867TIP3   OH266091   1.155   4.719   4.172 -0.3285 -0.3713 -0.4404
14867TIP3    H166092   1.075   4.770   4.166 -0.4538 -0.5921 -0.6490
14867TIP3    H266093   1.164   4.676   4.087  0.2539  0.0105 -0.5783
14868TIP3   OH266094   6.565   5.100   5.587 -0.2901  0.5244  0.5078
14868TIP3    H166095   6.569   5.130   5.678 -1.8172  1.1812  0.3792
14868TIP3    H266096   6.638   5.145   5.544 -0.3072  1.1539  1.1290
14869TIP3   OH266097   1.458   4.879  14.816  0.0090  0.2071  0.2366
14869TIP3    H166098   1.472   4.952  14.756  0.6052 -0.1718 -0.0969
14869TIP3    H266099   1.388   4.828  14.775 -0.6367  0.7626  0.6374
14870TIP3   OH266100   4.821   4.817   0.018 -0.1768 -0.0546  0.0928
14870TIP3    H166101   4.884   4.885   0.040 -0.7096  0.0131  1.5371
14870TIP3    H266102   4.868   4.735   0.033  0.6146 -0.0582 -2.0943
14871TIP3   OH266103   0.429   1.411  13.409 -0.0925 -0.5471 -0.1203
14871TIP3    H166104   0.439   1.417  13.504 -1.2779 -0.5526  0.0272
14871TIP3    H266105   0.489   1.477  13.374 -0.1426 -0.0712  0.6674
14872TIP3   OH266106   5.621   5.288  14.379 -0.1102  0.1793  0.2183
14872TIP3    H166107   5.530   5.263  14.394  0.1919 -0.5752  0.8566
14872TIP3    H266108   5.672   5.219  14.422  0.7540  0.9135  0.3904
14873TIP3   OH266109   6.164   3.999   1.415 -0.1339  0.1977  0.3748
14873TIP3    H166110   6.079   4.031   1.443 -0.9057 -0.0109 -1.5643
14873TIP3    H266111   6.144   3.934   1.347  1.5553 -0.3608  0.3570
14874TIP3   OH266112   5.525   3.106  14.322 -0.6214 -0.5157  0.2032
14874TIP3    H166113   5.462   3.151  14.379  1.2801  0.6962  1.4410
14874TIP3    H266114   5.589   3.068  14.382 -0.2605 -1.9139 -1.0128
14875TIP3   OH266115   1.751   0.934  16.277  0.1858 -0.2958 -0.0132
14875TIP3    H166116   1.836   0.962  16.310  0.0612 -0.5041  0.5042
14875TIP3    H266117   1.747   0.967  16.188  0.2960  0.7938  0.3698
14876TIP3   OH266118   2.802   3.108  16.002  0.0597  0.3047  0.2028
14876TIP3    H166119   2.809   3.014  15.986  2.1400  0.8667 -3.0672
14876TIP3    H266120   2.882   3.130  16.051 -1.1100  0.2275  2.2311
14877TIP3   OH266121   1.951   5.300   3.671  0.1129  0.8688  0.0439
14877TIP3    H166122   1.927   5.375   3.616 -1.9351 -1.1822 -2.0924
14877TIP3    H266123   1.876   5.289   3.730  0.3712  0.4414  0.2969
14878TIP3   OH266124   4.069   4.344   1.309 -0.1808 -0.0335 -0.1312
14878TIP3    H166125   4.053   4.250   1.319 -0.2272 -0.1640 -1.3108
14878TIP3    H266126   4.049   4.381   1.395  1.3364 -1.2900  0.8250
14879TIP3   OH266127   6.404   5.573  16.308  0.4558 -0.2123 -0.5909
14879TIP3    H166128   6.471   5.508  16.287 -0.3815 -1.1743 -0.3478
14879TIP3    H266129   6.454   5.650  16.334  1.4738 -0.6980 -1.0142
14880TIP3   OH266130   6.485   0.491  10.885  0.2339 -0.0714 -0.0374
14880TIP3    H166131   6.557   0.542  10.922  1.6515 -1.2864 -1.0111
14880TIP3    H266132   6.527   0.416  10.843 -1.6864 -1.5069  0.4337
14881TIP3   OH266133   2.090   3.939   1.704 -0.3419  0.3902  0.0274
14881TIP3    H166134   2.055   3.959   1.791  3.5641 -1.2277  2.2251
14881TIP3    H266135   2.159   4.004   1.690 -0.6160  0.3602 -1.7238
14882TIP3   OH266136   2.473   1.806  16.882  0.0225  0.5938  0.6552
14882TIP3    H166137   2.523   1.724  16.877  0.9618  1.1840 -0.0680
14882TIP3    H266138   2.537   1.874  16.863 -0.9791  1.4136  0.0992
14883TIP3   OH266139   5.126   0.037   4.244 -0.3114  0.2031 -0.7389
14883TIP3    H166140   5.142  -0.057   4.254 -1.2132  0.1908  1.1477
14883TIP3    H266141   5.203   0.078   4.284 -1.1129  0.2021  0.8981
14884TIP3   OH266142   6.515   1.077  14.967  0.1944 -0.3278 -0.2964
14884TIP3    H166143   6.527   1.153  14.910 -1.1207  0.5691  0.5587
14884TIP3    H266144   6.580   1.090  15.037  2.1038 -1.6524 -1.7310
14885TIP3   OH266145   0.635   2.864   5.680 -0.2250  0.7237  0.0743
14885TIP3    H166146   0.636   2.959   5.682 -1.9630  0.7700  1.1574
14885TIP3    H266147   0.557   2.840   5.730  0.3958 -1.2810  0.1706
14886TIP3   OH266148   4.845   4.614  12.812 -0.4795 -0.2803  0.7125
14886TIP3    H166149   4.794   4.548  12.859 -1.5523  1.3292  1.9322
14886TIP3    H266150   4.918   4.634  12.869 -0.4107 -0.0859  0.5591
14887TIP3   OH266151   3.022   3.600   0.964 -0.3616 -0.2473  0.0075
14887TIP3    H166152   2.999   3.678   0.914 -3.0014 -0.7788  0.2424
14887TIP3    H266153   2.969   3.530   0.925  1.6802 -1.8808  0.0198
14888TIP3   OH266154   0.492   3.085  13.004 -0.4686 -0.0060 -0.1171
14888TIP3    H166155   0.416   3.059  13.055 -1.3332 -0.9218 -1.8062
14888TIP3    H266156   0.567   3.050  13.053 -0.8357  2.6783  2.6840
14889TIP3   OH266157   4.246   4.255   3.798  0.1722 -0.2408  0.3748
14889TIP3    H166158   4.193   4.236   3.875 -0.1806 -1.3820 -0.1301
14889TIP3    H266159   4.295   4.175   3.783  0.4845  0.0888 -0.3940
14890TIP3   OH266160   3.858   6.111  11.861 -0.1206 -0.2266  0.2821
14890TIP3    H166161   3.818   6.091  11.945 -0.6374  0.4273  0.1912
14890TIP3    H266162   3.905   6.193  11.875 -0.1156 -0.1727 -0.0396
14891TIP3   OH266163   5.540   3.946   0.734  0.1945  0.3525  0.3338
14891TIP3    H166164   5.481   3.895   0.789 -0.2581 -0.2998 -0.7111
14891TIP3    H266165   5.510   3.928   0.644  1.5866  0.4911 -0.1842
14892TIP3   OH266166   5.201   3.099   0.090  0.3441 -0.1405 -0.2998
14892TIP3    H166167   5.280   3.057   0.125  1.5270  3.0363  1.1811
14892TIP3    H266168   5.233   3.170   0.035 -1.5175  0.4078 -0.7437
14893TIP3   OH266169   3.254   6.547  16.371 -0.0706  0.2513 -0.1181
14893TIP3    H166170   3.297   6.544  16.286 -3.2942  0.0078 -1.8804
14893TIP3    H266171   3.255   6.456  16.401  1.6714  0.4372  0.5121
14894TIP3   OH266172   2.585   3.978   4.741 -0.4440 -0.3747  0.3587
14894TIP3    H166173   2.584   3.912   4.810 -0.6620 -1.0629 -0.2853
14894TIP3    H266174   2.678   3.996   4.726 -0.4055  0.0554  1.0824
14895TIP3   OH266175   2.770   4.812   5.320  0.2454 -0.1554  0.3251
14895TIP3    H166176   2.834   4.880   5.298  1.3229 -1.1469  0.2921
14895TIP3    H266177   2.696   4.860   5.358  0.2881  1.1692 -1.1562
14896TIP3   OH266178   5.726   0.357   5.278  0.0234 -0.4732  0.4056
14896TIP3    H166179   5.658   0.422   5.264  1.6545  1.2343 -0.0506
14896TIP3    H266180   5.771   0.350   5.194  1.2680 -0.4927  1.0380
14897TIP3   OH266181   2.920   2.647  14.767  0.6529 -0.7874  0.0452
14897TIP3    H166182   2.880   2.723  14.811  1.7686  0.4056 -0.9110
14897TIP3    H266183   2.881   2.647  14.679  0.0653 -1.8254  0.2961
14898TIP3   OH266184   4.972   2.757  14.672  0.0676 -0.2151  0.1663
14898TIP3    H166185   4.930   2.766  14.586  0.1870  1.0971  0.2264
14898TIP3    H266186   4.904   2.783  14.734  0.4332  0.2825  0.3673
14899TIP3   OH266187   4.524   1.885   1.743 -0.5719  0.4727  0.3121
14899TIP3    H166188   4.497   1.839   1.663 -0.1779  1.4340 -0.3922
14899TIP3    H266189   4.566   1.965   1.712  0.1814  0.5561  1.4737
14900TIP3   OH266190   5.683   5.018  15.511  0.4182 -0.1492  0.2944
14900TIP3    H166191   5.629   4.938  15.506  0.4401 -0.1576  0.2019
14900TIP3    H266192   5.621   5.087  15.535  0.0748  0.1422 -1.3601
14901TIP3   OH266193   3.915   3.758   0.802 -0.3187 -0.3311  0.6801
14901TIP3    H166194   3.983   3.733   0.740 -0.7090  0.5963 -0.1373
14901TIP3    H266195   3.920   3.692   0.871  0.8406 -0.7529  0.2054
14902TIP3   OH266196   3.578   6.058  17.104 -0.1165  0.3315  0.3816
14902TIP3    H166197   3.651   6.056  17.041  0.1225 -2.1827  0.6615
14902TIP3    H266198   3.522   6.129  17.073  1.1924  0.6999 -1.2875
14903TIP3   OH266199   6.562   2.529   0.095  0.0817 -0.3472 -0.0871
14903TIP3    H166200   6.557   2.542   0.001 -0.1080 -0.4042 -0.0850
14903TIP3    H266201   6.577   2.435   0.106 -2.1973 -0.7642 -0.0025
14904TIP3   OH266202   4.542   5.985  14.665  0.0970  0.3542  0.0338
14904TIP3    H166203   4.450   5.996  14.686 -0.2774 -1.1002 -0.7198
14904TIP3    H266204   4.550   5.894  14.635  1.8056  0.3864  0.2549
14905TIP3   OH266205   3.226   1.713  14.947  0.0792  0.1684 -0.2755
14905TIP3    H166206   3.318   1.739  14.959  0.2294 -0.8978  1.2070
14905TIP3    H266207   3.178   1.796  14.943  1.0733  0.7343 -0.7295
14906TIP3   OH266208   0.227   4.423   3.805  0.0146 -0.2089 -0.0496
14906TIP3    H166209   0.248   4.396   3.715 -0.8515  1.1362 -0.6893
14906TIP3    H266210   0.181   4.348   3.842  1.9809 -1.4967 -0.0759
14907TIP3   OH266211   1.506   5.591   0.592 -0.0189  0.2061 -0.0677
14907TIP3    H166212   1.436   5.631   0.645 -0.2378  0.4564 -0.5403
14907TIP3    H266213   1.461   5.553   0.517  0.1056 -1.5687  0.7087
14908TIP3   OH266214   2.572   3.945   6.195 -0.2308 -0.3120 -0.0786
14908TIP3    H166215   2.519   3.911   6.123 -0.7567 -1.1052  0.6491
14908TIP3    H266216   2.568   4.040   6.185  0.5946 -0.4173 -1.6982
14909TIP3   OH266217   1.466   1.216  14.051 -0.1181  0.0343  0.0329
14909TIP3    H166218   1.514   1.299  14.059 -1.1789  0.6337  0.4266
14909TIP3    H266219   1.522   1.161  13.997  1.8482  0.0524  1.9157
14910TIP3   OH266220   6.677   3.241  16.154 -0.8637  0.3652 -0.2189
14910TIP3    H166221   6.634   3.281  16.229 -2.2036 -0.0838 -0.7299
14910TIP3    H266222   6.615   3.249  16.082 -0.0575 -0.2026 -1.0121
14911TIP3   OH266223   0.763   6.086  13.314  0.7446 -0.4426  0.1229
14911TIP3    H166224   0.855   6.073  13.291  0.6578  1.1052 -1.2866
14911TIP3    H266225   0.755   6.180  13.328 -0.4082 -0.6904  1.3531
14912TIP3   OH266226   5.293   3.694  13.231  0.1781 -0.2542 -0.0597
14912TIP3    H166227   5.272   3.740  13.312  0.2944  0.5697 -0.4801
14912TIP3    H266228   5.386   3.714  13.216 -0.2119  0.8510 -1.1599
14913TIP3   OH266229   1.665   4.272  11.781 -0.4392 -0.1758  0.3007
14913TIP3    H166230   1.576   4.267  11.748  0.8633 -0.8355 -3.5603
14913TIP3    H266231   1.695   4.181  11.782  0.4339  0.1062  0.8492
14914TIP3   OH266232   5.489   2.435   0.734 -0.3792 -0.1339 -0.5897
14914TIP3    H166233   5.430   2.511   0.732 -0.4196 -0.1782 -1.3262
14914TIP3    H266234   5.530   2.434   0.647  1.4253  0.4421  0.2209
14915TIP3   OH266235   4.890   2.399   4.202  0.0493  0.8696  0.7914
14915TIP3    H166236   4.842   2.342   4.141 -0.9158  0.1497  2.1740
14915TIP3    H266237   4.849   2.484   4.193  0.7294  1.0882 -0.4396
14916TIP3   OH266238   4.494   0.693  15.872 -0.4818  0.6340 -0.2302
14916TIP3    H166239   4.455   0.700  15.785  1.3596  2.3780 -1.0239
14916TIP3    H266240   4.588   0.702  15.856  0.1580 -1.6095  1.7247
14917TIP3   OH266241   0.421   5.857  16.753  0.0323  0.2974 -0.1287
14917TIP3    H166242   0.457   5.897  16.832  0.8399 -2.4171  0.9849
14917TIP3    H266243   0.337   5.821  16.781 -1.0785  1.8239 -1.3280
14918TIP3   OH266244   2.321   2.863  14.651 -0.0559 -0.3001 -0.8372
14918TIP3    H166245   2.331   2.915  14.732 -1.0592  0.0684 -0.9413
14918TIP3    H266246   2.405   2.818  14.642  0.5351  0.6397 -0.2706
14919TIP3   OH266247   4.112   0.568  16.713  0.1672  0.2006  0.0075
14919TIP3    H166248   4.019   0.561  16.734  0.0699  0.5549 -0.2797
14919TIP3    H266249   4.156   0.515  16.779 -0.2386  0.0408  0.1533
14920TIP3   OH266250   5.105   6.480  11.669  0.3259 -0.0284 -0.8304
14920TIP3    H166251   5.073   6.466  11.580  0.0500  0.0327 -0.7420
14920TIP3    H266252   5.066   6.409  11.720  0.8569 -0.3363 -0.8449
14921TIP3   OH266253   5.264   2.006  12.892  0.0524 -0.9886 -0.2416
14921TIP3    H166254   5.169   2.011  12.903 -0.1297 -0.9963 -1.6651
14921TIP3    H266255   5.284   2.074  12.827  0.7240 -2.4053 -1.5669
14922TIP3   OH266256   6.572   5.109  16.328  0.1239  0.0838  0.0265
14922TIP3    H166257   6.661   5.133  16.303  0.0920 -0.2506 -0.4119
14922TIP3    H266258   6.551   5.033  16.273  0.0739 -0.7010  1.1071
14923TIP3   OH266259   4.863   4.702  11.885 -0.1430 -0.4766  0.1477
14923TIP3    H166260   4.834   4.788  11.917  2.8532  0.4108  0.8025
14923TIP3    H266261   4.871   4.649  11.964 -0.1031 -0.7434 -0.0341
14924TIP3   OH266262   3.598   6.765   4.685  0.1282  0.2004  0.3739
14924TIP3    H166263   3.590   6.842   4.742  1.8954  0.7327 -0.0352
14924TIP3    H266264   3.611   6.801   4.597  0.8129 -0.5659  0.1466
14925TIP3   OH266265   6.426   2.732  14.687 -0.6791  0.3566  0.0815
14925TIP3    H166266   6.338   2.765  14.703 -0.3638  1.0292  0.4185
14925TIP3    H266267   6.459   2.784  14.614 -0.3151  0.5471  0.3793
14926TIP3   OH266268   4.193   5.840   1.610  0.3060 -0.0060 -0.0458
14926TIP3    H166269   4.156   5.756   1.639  0.0549  0.7683  2.0365
14926TIP3    H266270   4.151   5.856   1.525 -0.1923 -1.6280 -0.1414
14927TIP3   OH266271   3.630   4.517   2.531 -0.5517 -0.5720 -0.7117
14927TIP3    H166272   3.606   4.513   2.438 -1.1426 -0.4174 -0.5728
14927TIP3    H266273   3.580   4.446   2.571 -1.5997  0.4007 -0.2429
14928TIP3   OH266274   5.852   5.368   3.377 -0.0243 -0.1957 -0.7013
14928TIP3    H166275   5.873   5.343   3.467  2.0517  0.5917 -0.9382
14928TIP3    H266276   5.768   5.414   3.384 -0.3829 -1.0047  0.6721
14929TIP3   OH266277   6.486   3.159  10.872 -0.0444 -0.0984 -0.6835
14929TIP3    H166278   6.555   3.094  10.882  0.8128  0.8057 -0.5637
14929TIP3    H266279   6.424   3.119  10.812 -0.4525 -1.7406  0.7450
14930TIP3   OH266280   4.013   4.512  11.717 -0.4196  0.2108  0.1293
14930TIP3    H166281   3.992   4.582  11.780  0.8632 -0.9984  1.9870
14930TIP3    H266282   4.056   4.557  11.645 -0.6144  1.4769  0.7717
14931TIP3   OH266283   0.482   3.909   3.285 -0.6216 -0.3699 -0.0568
14931TIP3    H166284   0.407   3.888   3.229 -0.0926 -2.2548 -0.1344
14931TIP3    H266285   0.460   3.873   3.371 -0.3787  0.2700  0.2763
14932TIP3   OH266286   3.821   5.334   5.290  0.4774 -0.3976 -0.2510
14932TIP3    H166287   3.765   5.292   5.224 -0.6591 -1.0172  1.0743
14932TIP3    H266288   3.903   5.285   5.286 -0.2265 -1.6364  0.0542
14933TIP3   OH266289   5.446   4.692   3.427 -0.5163 -0.2191 -0.2559
14933TIP3    H166290   5.415   4.678   3.517  1.7976  3.3942  1.3590
14933TIP3    H266291   5.374   4.737   3.383 -0.2806  1.6185  1.1414
14934TIP3   OH266292   0.060   4.228  14.431  0.8468  0.2158 -0.0183
14934TIP3    H166293   0.068   4.164  14.502  1.7262  2.2809  1.8915
14934TIP3    H266294  -0.029   4.216  14.398 -0.3100  0.3713  2.7453
14935TIP3   OH266295   5.901   0.261  16.428  0.5063 -0.2933  0.4921
14935TIP3    H166296   5.900   0.323  16.500 -0.1290 -0.1913  0.4058
14935TIP3    H266297   5.971   0.200  16.449 -0.2093 -0.7575  1.6192
14936TIP3   OH266298   3.369   6.515  16.707 -0.3419 -0.0089  0.4102
14936TIP3    H166299   3.428   6.559  16.769 -1.8882  1.5945  0.8345
14936TIP3    H266300   3.421   6.508  16.627  0.9417 -0.0836  1.2068
14937TIP3   OH266301   5.140   3.413  11.516  0.0405 -0.3770  0.0303
14937TIP3    H166302   5.122   3.377  11.429  1.5658 -2.0126  0.3455
14937TIP3    H266303   5.229   3.446  11.511 -0.7870  2.0902  0.2229
14938TIP3   OH266304   5.292   5.182  14.064 -0.5749 -0.0237 -0.2072
14938TIP3    H166305   5.367   5.142  14.021 -2.2393 -2.7038 -0.8581
14938TIP3    H266306   5.247   5.230  13.994  0.1876  1.1187  0.0623
14939TIP3   OH266307   6.354   4.743  14.901 -0.0651  0.4654 -0.1760
14939TIP3    H166308   6.273   4.750  14.851  0.4575  0.2699 -1.0598
14939TIP3    H266309   6.413   4.691  14.847  0.1084 -0.8225  1.1825
14940TIP3   OH266310   2.946   4.343   0.572  0.5473  0.1511  0.1870
14940TIP3    H166311   3.016   4.288   0.536 -0.3368 -0.6690 -0.3397
14940TIP3    H266312   2.918   4.397   0.498 -0.2218 -0.4250  0.0509
14941TIP3   OH266313   4.952   5.197   1.214  0.6176 -0.0910  0.7873
14941TIP3    H166314   4.957   5.138   1.289 -0.1103  0.1331  1.0159
14941TIP3    H266315   4.918   5.279   1.250 -0.0467 -0.0840  0.1574
14942TIP3   OH266316   5.687   3.316  13.325 -0.6376  0.2972 -0.0620
14942TIP3    H166317   5.720   3.227  13.336 -0.3791  0.4432  0.3462
14942TIP3    H266318   5.594   3.305  13.304 -1.3798  0.0069  2.9430
14943TIP3   OH266319   4.095   4.308   2.636  0.6550 -0.2987 -0.5884
14943TIP3    H166320   4.044   4.351   2.705  1.6579  0.7979 -0.4895
14943TIP3    H266321   4.032   4.254   2.589 -0.4151  0.3568  0.0587
14944TIP3   OH266322   4.701   6.308  11.171 -0.4720 -0.2316 -0.2512
14944TIP3    H166323   4.743   6.377  11.221 -1.6262  0.1263  0.2511
14944TIP3    H266324   4.742   6.313  11.085 -0.5721  1.1094 -0.2437
14945TIP3   OH266325   5.446   5.559  12.302 -0.3040 -0.1156  0.0049
14945TIP3    H166326   5.384   5.491  12.274 -0.7825  0.8750 -1.4200
14945TIP3    H266327   5.470   5.533  12.391 -0.4631 -2.1544 -0.4886
14946TIP3   OH266328   4.787   4.932  13.674  0.7011 -0.0869  0.1427
14946TIP3    H166329   4.716   4.888  13.627  2.0306 -2.1560 -0.0571
14946TIP3    H266330   4.810   5.006  13.618 -0.7707  0.1770 -0.1572
14947TIP3   OH266331   4.409   1.582   1.927 -0.0227  0.0663 -0.3174
14947TIP3    H166332   4.364   1.602   2.009 -0.9651  2.1428 -1.2684
14947TIP3    H266333   4.360   1.509   1.889  1.7705 -2.5110  1.9133
14948TIP3   OH266334   0.493   4.559  15.207  0.1193 -0.2874 -0.0672
14948TIP3    H166335   0.409   4.520  15.231 -0.0018  0.5222  0.9030
14948TIP3    H266336   0.490   4.647  15.245  0.9858  0.1331 -0.9211
14949TIP3   OH266337   4.151   4.599   3.542  0.6261  0.1307 -0.2220
14949TIP3    H166338   4.197   4.674   3.504  0.8156  0.2645  0.2639
14949TIP3    H266339   4.192   4.587   3.628  0.2519 -0.2097 -0.0902
14950TIP3   OH266340   4.312   0.630  12.293  0.5566  0.0793 -0.6494
14950TIP3    H166341   4.261   0.695  12.341 -0.0535 -0.7348 -0.1528
14950TIP3    H266342   4.249   0.559  12.277  1.7010 -1.3107  0.6827
14951TIP3   OH266343   0.230   4.691  10.721  0.0072  0.1876 -0.0606
14951TIP3    H166344   0.168   4.741  10.667 -0.0263 -0.5790 -0.7487
14951TIP3    H266345   0.247   4.611  10.671  1.3657  0.2692  0.2361
14952TIP3   OH266346   1.304   2.149   1.290  0.0301  0.4135  0.4838
14952TIP3    H166347   1.321   2.110   1.204 -2.1005  1.5255 -0.5208
14952TIP3    H266348   1.381   2.127   1.342  1.1177 -0.8093 -1.5193
14953TIP3   OH266349   5.188   2.348   2.917  0.0248  0.0543  0.6462
14953TIP3    H166350   5.269   2.297   2.910  1.1747  1.8633 -0.2449
14953TIP3    H266351   5.132   2.315   2.847  1.5624  1.2957 -1.2803
14954TIP3   OH266352   3.967   5.158   5.702  0.5171 -0.8263  0.1821
14954TIP3    H166353   3.897   5.222   5.687  0.1204 -0.8641  1.7105
14954TIP3    H266354   4.004   5.183   5.787  2.8313 -0.3951 -0.8848
14955TIP3   OH266355   5.264   2.123  13.969 -0.0385 -0.4783 -0.7582
14955TIP3    H166356   5.181   2.077  13.983 -0.0973  0.5310  3.7589
14955TIP3    H266357   5.238   2.210  13.939 -0.3532 -1.0213 -2.1538
14956TIP3   OH266358   3.316   4.091  13.519  0.7207 -0.6583 -0.6340
14956TIP3    H166359   3.225   4.078  13.546  0.7706  0.1180 -0.0624
14956TIP3    H266360   3.310   4.141  13.438  0.6481  1.9440  0.8583
14957TIP3   OH266361   3.372   3.474  13.754  0.0285  0.5367 -0.5374
14957TIP3    H166362   3.277   3.473  13.765  0.2311 -1.3235  1.8140
14957TIP3    H266363   3.392   3.564  13.729 -2.0549  2.0831  2.6975
14958TIP3   OH266364   2.557   3.402  15.485  0.1192  0.5200 -0.0062
14958TIP3    H166365   2.549   3.316  15.526 -0.1045  0.4767 -0.1387
14958TIP3    H266366   2.646   3.430  15.505 -0.4379  1.1459  1.8197
14959TIP3   OH266367   5.195   5.466  12.083 -0.2003  0.0485 -0.1165
14959TIP3    H166368   5.284   5.468  12.048 -0.4359  0.8410 -0.6973
14959TIP3    H266369   5.150   5.400  12.031  0.8118 -2.5829  2.1543
14960TIP3   OH266370   4.640   1.279  14.232  0.4926 -0.0726  0.3953
14960TIP3    H166371   4.665   1.327  14.153  0.2779 -0.6708 -0.0379
14960TIP3    H266372   4.722   1.239  14.262  0.7245  0.7358  0.8941
14961TIP3   OH266373   0.783   4.090   1.203  0.1748 -0.2943 -0.1690
14961TIP3    H166374   0.869   4.083   1.161 -0.2659 -1.7520 -0.8878
14961TIP3    H266375   0.798   4.055   1.292  0.6834  1.0616  0.3094
14962TIP3   OH266376   2.966   6.292   5.540  0.1883 -0.2189 -0.2208
14962TIP3    H166377   2.985   6.382   5.513 -0.4352  0.2140  0.7214
14962TIP3    H266378   2.884   6.298   5.589  0.7985 -1.0886  0.9867
14963TIP3   OH266379   5.691   6.109  15.240  0.4706  0.1524  0.3058
14963TIP3    H166380   5.640   6.126  15.319  2.0991  0.8182  1.2775
14963TIP3    H266381   5.740   6.029  15.260  1.5991  0.8386  0.3683
14964TIP3   OH266382   2.499   4.066  16.714  0.4522 -0.2452 -0.2007
14964TIP3    H166383   2.403   4.064  16.719  0.4768  1.1404  1.5626
14964TIP3    H266384   2.526   3.977  16.737 -0.3889 -0.7219 -0.9654
14965TIP3   OH266385   6.072   4.134  16.206 -0.0337 -0.3753 -0.6203
14965TIP3    H166386   6.084   4.203  16.272  0.4641 -0.6152 -0.4573
14965TIP3    H266387   6.052   4.055  16.257  0.4826 -0.5906 -0.7457
14966TIP3   OH266388   2.485   1.795  14.432 -0.1336  0.4244 -0.1498
14966TIP3    H166389   2.552   1.845  14.384  0.7518  0.4762  1.0956
14966TIP3    H266390   2.495   1.706  14.400 -0.1927  0.6223 -0.7414
14967TIP3   OH266391   3.671   6.245   5.374  0.4128 -0.7262  0.3457
14967TIP3    H166392   3.743   6.309   5.377 -0.9803  1.2785 -2.9936
14967TIP3    H266393   3.701   6.179   5.312 -0.9881  0.9211 -2.2837
14968TIP3   OH266394   3.000   4.386   5.744 -0.0852  0.6930 -0.5881
14968TIP3    H166395   3.011   4.329   5.820  0.3021 -1.4243 -2.1394
14968TIP3    H266396   2.927   4.443   5.767 -0.6013 -0.5282  0.9907
14969TIP3   OH266397   2.262   5.819   0.150  0.7197 -0.2620  0.7281
14969TIP3    H166398   2.291   5.871   0.225  1.9270 -1.3786  1.0897
14969TIP3    H266399   2.178   5.781   0.177  2.0434 -2.2673  2.4152
14970TIP3   OH266400   5.789   5.807   6.226 -0.2006 -0.3860  0.2061
14970TIP3    H166401   5.841   5.728   6.242 -0.3509 -0.1515  2.1360
14970TIP3    H266402   5.732   5.814   6.302 -2.8432 -0.3976 -1.6298
14971TIP3   OH266403   2.886   0.167   4.653 -0.2482  0.1973 -0.0063
14971TIP3    H166404   2.920   0.136   4.569 -1.1292 -2.5392  0.5566
14971TIP3    H266405   2.834   0.244   4.630  1.8988  1.2847 -1.5412
14972TIP3   OH266406   4.599   4.343   6.389 -0.1340  0.2202  0.1992
14972TIP3    H166407   4.675   4.390   6.353  0.2496 -1.0958 -0.7909
14972TIP3    H266408   4.533   4.348   6.320 -0.1547 -0.5143  0.1574
14973TIP3   OH266409   3.321   6.631   0.848  0.2989  0.2567 -0.1166
14973TIP3    H166410   3.297   6.695   0.914  0.6049  0.0805  0.1691
14973TIP3    H266411   3.405   6.660   0.815  0.2383  0.2362 -0.2917
14974TIP3   OH266412   2.355   3.315   0.986 -0.1322 -0.0470 -0.0235
14974TIP3    H166413   2.405   3.353   0.914 -0.9723 -1.7469 -1.5809
14974TIP3    H266414   2.350   3.385   1.051 -0.6388  2.1307 -2.2516
14975TIP3   OH266415   2.261   2.748   5.113  0.7242  0.0020  0.0483
14975TIP3    H166416   2.327   2.757   5.182 -0.7918  0.9424  1.4592
14975TIP3    H266417   2.179   2.773   5.155  0.1152  3.7591 -2.8370
14976TIP3   OH266418   5.676   6.641  15.971  0.6581 -0.0816  0.8794
14976TIP3    H166419   5.672   6.638  15.875 -2.9432 -1.0405  0.8935
14976TIP3    H266420   5.699   6.551  15.996  0.3074 -0.1711  0.8912
14977TIP3   OH266421   4.230   2.270   3.319 -0.7722  0.3856 -0.4403
14977TIP3    H166422   4.247   2.324   3.396 -2.2318  1.0539 -0.5492
14977TIP3    H266423   4.219   2.334   3.247  0.7499 -0.2277 -1.2619
14978TIP3   OH266424   5.075   6.271  12.982  0.3440  0.3320  0.1955
14978TIP3    H166425   5.001   6.264  13.043  0.6525  0.9621  0.6557
14978TIP3    H266426   5.149   6.291  13.038  1.1298 -1.5241 -0.1042
14979TIP3   OH266427   2.102   2.090  12.279 -0.3431 -0.5665 -0.0133
14979TIP3    H166428   2.139   2.148  12.346 -0.6144 -0.4966  0.0822
14979TIP3    H266429   2.019   2.133  12.255  1.0915  1.0013 -2.5353
14980TIP3   OH266430   5.505   5.189   5.433 -0.0573 -0.3806  0.5306
14980TIP3    H166431   5.575   5.255   5.433 -0.1948 -0.2293  1.3560
14980TIP3    H266432   5.511   5.149   5.346  1.4722 -0.8211  0.8082
14981TIP3   OH266433   4.259   4.188  11.568 -0.4379 -0.5202 -0.2965
14981TIP3    H166434   4.296   4.110  11.611 -1.6366 -1.0122 -0.1107
14981TIP3    H266435   4.327   4.255  11.576 -0.3610 -0.8006  1.7678
14982TIP3   OH266436   2.720   5.811   4.546  0.3120 -0.5155  0.3267
14982TIP3    H166437   2.749   5.720   4.544 -0.7352 -0.8735  0.8820
14982TIP3    H266438   2.801   5.862   4.550  0.9517 -1.3668 -1.0442
14983TIP3   OH266439   2.674   2.037   5.662  0.8470  0.6820 -0.0695
14983TIP3    H166440   2.729   2.114   5.648 -0.4021  1.4224 -1.2821
14983TIP3    H266441   2.654   2.037   5.755  0.6225  2.0292 -0.1008
14984TIP3   OH266442   3.974   3.448  11.503 -0.2070  0.4147  0.2007
14984TIP3    H166443   3.962   3.493  11.420 -2.4376 -1.1836 -0.4455
14984TIP3    H266444   3.966   3.518  11.569  2.2542  1.8090 -0.8529
14985TIP3   OH266445   2.056   3.900  11.832  0.0754  0.4292 -0.4164
14985TIP3    H166446   2.069   3.825  11.775 -0.9886 -0.0791 -0.0233
14985TIP3    H266447   2.108   3.970  11.792 -0.2685 -0.0395 -1.7424
14986TIP3   OH266448   2.072   5.051  16.974 -0.3002  0.1071 -0.1118
14986TIP3    H166449   2.145   5.056  16.913 -0.1811  0.2412  0.0396
14986TIP3    H266450   2.109   5.013  17.054  0.4317  3.1683  1.1699
14987TIP3   OH266451   3.273   6.471   0.133 -0.3301 -0.1164  0.3676
14987TIP3    H166452   3.245   6.416   0.206  0.5230  0.1656  0.9286
14987TIP3    H266453   3.346   6.423   0.093 -0.5339 -0.0810 -0.0420
14988TIP3   OH266454   2.507   4.295  12.986  0.6719  0.2494 -0.0088
14988TIP3    H166455   2.582   4.237  12.994  1.3118  1.2375  1.7387
14988TIP3    H266456   2.497   4.308  12.892  1.8721 -0.9345 -0.3332
14989TIP3   OH266457   6.064   6.739  10.777 -0.4207 -0.0158  0.3675
14989TIP3    H166458   6.002   6.811  10.786 -1.0701 -0.3201 -1.2837
14989TIP3    H266459   6.059   6.715  10.684  2.0402 -0.1674  0.2116
14990TIP3   OH266460   1.757   1.155   0.595 -0.2333  0.2862  0.1472
14990TIP3    H166461   1.671   1.192   0.614 -0.4395 -0.5488  0.9196
14990TIP3    H266462   1.739   1.063   0.572  0.5021 -0.0645  0.9304
14991TIP3   OH266463   0.613   2.942  16.285  0.1325 -0.8986 -0.3902
14991TIP3    H166464   0.610   3.008  16.215 -1.7433 -0.5542 -0.0168
14991TIP3    H266465   0.706   2.940  16.311  0.4959  0.4751 -1.4549
14992TIP3   OH266466   1.310   0.320  11.765 -0.1855 -0.1283  0.1234
14992TIP3    H166467   1.264   0.253  11.713  0.4058 -0.5762  0.1619
14992TIP3    H266468   1.293   0.402  11.719  0.7023 -0.5763 -1.0663
14993TIP3   OH266469   4.947   5.421   2.989 -0.5953  0.1198  0.1297
14993TIP3    H166470   4.864   5.381   2.962  0.9453 -2.7741 -0.7183
14993TIP3    H266471   4.994   5.436   2.907 -0.0633  1.2438  0.6298
14994TIP3   OH266472   5.317   3.515  12.834  0.5378  0.4053  0.4615
14994TIP3    H166473   5.407   3.488  12.815  0.6508  0.3216  1.1112
14994TIP3    H266474   5.280   3.536  12.748  0.8719 -0.5178  0.0792
14995TIP3   OH266475   6.299   2.611  11.385  0.3316 -0.5111  0.0259
14995TIP3    H166476   6.333   2.582  11.300  1.6754 -1.6777  0.9175
14995TIP3    H266477   6.377   2.631  11.436 -0.3791 -1.3885  1.5208
14996TIP3   OH266478   1.482   1.484   4.500  0.1495  0.1016 -0.4436
14996TIP3    H166479   1.486   1.465   4.594 -1.3353 -0.7312 -0.5135
14996TIP3    H266480   1.519   1.572   4.492 -1.6893  1.1137  1.2475
14997TIP3   OH266481   3.855   0.685  17.103  0.2748  0.0718 -0.1109
14997TIP3    H166482   3.941   0.726  17.098 -0.4759  1.5606 -2.2154
14997TIP3    H266483   3.872   0.598  17.141  3.0388 -0.4994 -2.2958
14998TIP3   OH266484   6.330   3.815  10.649 -0.0099  0.0942 -0.4334
14998TIP3    H166485   6.360   3.746  10.708 -3.8568  0.1093  1.8546
14998TIP3    H266486   6.332   3.775  10.562  1.1758 -1.6197  0.3274
14999TIP3   OH266487   3.439   0.785  13.240 -0.4037 -0.0332 -0.1506
14999TIP3    H166488   3.359   0.818  13.199 -0.9646 -0.2309  0.7420
14999TIP3    H266489   3.416   0.777  13.333  0.9941  0.8935  0.2909
15000TIP3   OH266490   4.748   4.050  16.552 -0.4063  0.4578  0.7548
15000TIP3    H166491   4.687   3.980  16.575  0.0150  0.1564  0.9621
15000TIP3    H266492   4.708   4.129  16.587 -1.3119  0.4621 -0.2141
15001TIP3   OH266493   6.580   3.826  13.742 -0.8415 -0.5757 -0.4637
15001TIP3    H166494   6.663   3.784  13.762 -0.7342 -0.5165 -0.7711
15001TIP3    H266495   6.516   3.755  13.738 -0.3283 -1.0059 -2.8658
15002TIP3   OH266496   6.365   5.844  10.862  0.0328 -0.2782  0.1957
15002TIP3    H166497   6.449   5.879  10.832  0.4081 -1.1658  0.1869
15002TIP3    H266498   6.315   5.830  10.781 -0.5059  1.1480  0.2517
15003TIP3   OH266499   3.766   3.963  12.623  0.3861 -0.5540  0.5392
15003TIP3    H166500   3.727   3.892  12.674  1.0463 -0.1834  1.5943
15003TIP3    H266501   3.856   3.933  12.607  0.6602  0.0208  0.9677
15004TIP3   OH266502   3.828   1.239   2.750 -0.4257  0.2427  0.5280
15004TIP3    H166503   3.841   1.296   2.826 -1.5741 -0.0427  0.9642
15004TIP3    H266504   3.767   1.286   2.694  2.2295  1.5473 -1.4613
15005TIP3   OH266505   4.802   1.686  12.162 -0.4376  0.1882 -0.2059
15005TIP3    H166506   4.765   1.768  12.195  0.3793  0.0080  1.2453
15005TIP3    H266507   4.728   1.626  12.161 -0.8142  0.6431 -0.2039
15006TIP3   OH266508   2.985   2.316  15.813 -0.1112 -0.6621 -0.0613
15006TIP3    H166509   3.046   2.321  15.887  0.3532  1.2341 -0.5237
15006TIP3    H266510   3.009   2.235  15.768  1.1224 -0.6751  0.5766
15007TIP3   OH266511   2.821   2.214   4.124 -0.0357 -0.2271 -0.2373
15007TIP3    H166512   2.890   2.258   4.075  0.1206 -0.0797  0.1139
15007TIP3    H266513   2.856   2.205   4.213 -1.3078  1.8320  0.5329
15008TIP3   OH266514   0.781   2.580   3.590 -0.8367 -0.0766 -0.4311
15008TIP3    H166515   0.833   2.501   3.608  2.4485  1.5297 -1.9762
15008TIP3    H266516   0.773   2.623   3.675 -0.7708 -0.9935  0.0567
15009TIP3   OH266517   1.830   4.034  16.199  0.4971 -0.0049 -0.1404
15009TIP3    H166518   1.890   3.960  16.205  0.7387  0.2005  0.0348
15009TIP3    H266519   1.850   4.087  16.277 -0.3030 -0.2228  0.2172
15010TIP3   OH266520   4.879   0.700   1.127 -0.3571 -0.0107  0.7242
15010TIP3    H166521   4.874   0.605   1.112  0.5183  0.1855 -1.0222
15010TIP3    H266522   4.943   0.731   1.063  0.3883  1.5959  2.1641
15011TIP3   OH266523   4.350   3.717   5.307 -0.0414 -0.5118 -0.0615
15011TIP3    H166524   4.309   3.688   5.225 -0.3972  0.0907 -0.1047
15011TIP3    H266525   4.379   3.636   5.349 -0.3702 -0.8727 -0.5130
15012TIP3   OH266526   4.087   3.127  15.534 -0.0550 -0.0261 -0.3065
15012TIP3    H166527   4.151   3.131  15.463  0.1654  0.0636 -0.1011
15012TIP3    H266528   4.138   3.113  15.613 -0.3211 -0.3661 -0.1914
15013TIP3   OH266529   3.352   3.382   5.936 -0.4041 -0.0879 -0.5993
15013TIP3    H166530   3.329   3.295   5.969  0.0572 -0.1361 -0.3786
15013TIP3    H266531   3.269   3.423   5.912 -0.7388 -0.1504  0.4044
15014TIP3   OH266532   4.784   3.090  13.068 -0.2888  0.3300  0.1777
15014TIP3    H166533   4.850   3.116  13.133 -0.4620  0.4897  0.2905
15014TIP3    H266534   4.732   3.023  13.112  0.6720 -0.8226 -0.3987
15015TIP3   OH266535   6.131   6.221   3.559 -0.5627  0.1105 -0.0040
15015TIP3    H166536   6.038   6.205   3.546 -0.4614  0.8425 -1.8449
15015TIP3    H266537   6.172   6.135   3.550 -0.8569  0.1000 -1.5443
15016TIP3   OH266538   5.912   5.599   3.759 -0.1329  0.1965 -0.3525
15016TIP3    H166539   5.878   5.522   3.714  1.6157 -0.5875 -0.4287
15016TIP3    H266540   5.929   5.662   3.689 -1.6175  0.7106 -0.2849
15017TIP3   OH266541   1.001   5.479  13.601 -0.2807  0.1881 -0.1136
15017TIP3    H166542   1.091   5.510  13.594  0.3034 -1.6240 -1.2960
15017TIP3    H266543   1.002   5.419  13.675 -0.3619 -0.2759 -0.4818
15018TIP3   OH266544   0.538   2.186   3.806 -0.2812 -0.0452 -0.2420
15018TIP3    H166545   0.630   2.177   3.780  0.3209  1.9072  1.0082
15018TIP3    H266546   0.522   2.110   3.862  1.5937  1.1264  2.0879
15019TIP3   OH266547   6.333   5.203  12.409 -0.4651 -0.0682 -0.0780
15019TIP3    H166548   6.323   5.175  12.318 -0.2160  2.1729 -0.8431
15019TIP3    H266549   6.323   5.298  12.406  0.9523  0.1999  2.0409
15020TIP3   OH266550   4.101   4.646   4.480  0.2245 -0.1005  0.1446
15020TIP3    H166551   4.091   4.551   4.466  0.1513  0.1973 -2.1771
15020TIP3    H266552   4.071   4.685   4.398  0.2725  1.9568  1.0629
15021TIP3   OH266553   5.526   0.355  15.647 -0.0662 -0.0281 -0.0285
15021TIP3    H166554   5.539   0.377  15.740 -1.2574  0.4990  0.0338
15021TIP3    H266555   5.558   0.431  15.600  0.9352 -0.4692 -0.0870
15022TIP3   OH266556   5.945   2.005   5.498  0.3569  0.0114  0.3283
15022TIP3    H166557   5.966   2.098   5.492 -2.0139  0.6968  1.4379
15022TIP3    H266558   5.883   1.990   5.426  0.0053 -0.4684  0.7237
15023TIP3   OH266559   0.656   6.791  14.013  0.2582 -0.1061  0.1900
15023TIP3    H166560   0.643   6.834  14.098  0.0292  1.4233 -0.5757
15023TIP3    H266561   0.657   6.863  13.950 -0.6067 -1.2798 -1.2276
15024TIP3   OH266562   2.848   1.337  16.520  0.5953 -0.2224 -0.3504
15024TIP3    H166563   2.933   1.329  16.477  0.7367  0.5274 -0.2213
15024TIP3    H266564   2.846   1.268  16.585  1.2972  0.0507 -0.0385
15025TIP3   OH266565   5.876   5.646  13.129  0.1121 -0.5329 -0.8375
15025TIP3    H166566   5.951   5.690  13.169 -1.3089  2.2316 -0.9906
15025TIP3    H266567   5.813   5.635  13.200 -0.2207 -0.7907 -1.1661
15026TIP3   OH266568   2.173   0.575  14.905  0.1304  0.3175  0.4566
15026TIP3    H166569   2.190   0.669  14.916 -0.2303  0.2496  1.7493
15026TIP3    H266570   2.127   0.569  14.821 -1.4042  1.5185  1.1516
15027TIP3   OH266571   5.582   0.910  14.561  0.1661 -0.3224  0.2223
15027TIP3    H166572   5.579   0.817  14.584  0.4531 -0.6186 -0.8489
15027TIP3    H266573   5.676   0.931  14.559  0.2482 -0.6654 -1.8884
15028TIP3   OH266574   5.722   5.449  14.769  0.0354  0.0588 -0.5368
15028TIP3    H166575   5.721   5.459  14.864  0.3907  1.4075 -0.6615
15028TIP3    H266576   5.781   5.375  14.754 -0.6061 -0.6483  0.3140
15029TIP3   OH266577   1.615   4.038   4.466  0.4566 -0.4573 -0.5615
15029TIP3    H166578   1.671   4.066   4.393 -0.3644  0.5640 -0.8292
15029TIP3    H266579   1.656   3.958   4.499  2.7916  0.9300  0.0839
15030TIP3   OH266580   6.020   1.901   0.360  0.4746  0.0276 -0.0831
15030TIP3    H166581   6.113   1.881   0.346  1.0057  1.9362  0.3509
15030TIP3    H266582   6.006   1.982   0.310 -0.8438  0.0258  0.2564
15031TIP3   OH266583   6.007   4.665   1.871  0.5330 -0.0470  0.0724
15031TIP3    H166584   5.995   4.760   1.864  0.1092 -0.1118 -0.0939
15031TIP3    H266585   6.020   4.635   1.781 -2.3927 -0.5397 -0.2576
15032TIP3   OH266586   0.153   2.748  14.298  0.1963  0.2413 -0.3337
15032TIP3    H166587   0.169   2.838  14.327 -0.5411  0.9895 -2.0915
15032TIP3    H266588   0.058   2.738  14.303  0.4379 -1.3486  2.2504
15033TIP3   OH266589   4.368   6.203   2.234 -0.1551 -0.0257 -0.0345
15033TIP3    H166590   4.326   6.280   2.198 -0.4904  0.0802  0.5709
15033TIP3    H266591   4.456   6.232   2.258  0.2130 -0.1970 -1.1103
15034TIP3   OH266592   0.634   5.033  16.897  0.4744  0.2125  0.2997
15034TIP3    H166593   0.723   5.037  16.934  0.7537  1.0270 -0.4187
15034TIP3    H266594   0.576   5.038  16.973  1.0486  0.2803  0.7411
15035TIP3   OH266595   4.659   0.730   5.249 -0.0472 -0.0170  0.5941
15035TIP3    H166596   4.729   0.789   5.278 -0.4790 -0.3840  2.5010
15035TIP3    H266597   4.692   0.693   5.168  0.8663  1.7376  0.1038
15036TIP3   OH266598   0.312   5.318  11.454  0.0783  0.1949  0.0344
15036TIP3    H166599   0.304   5.387  11.521  1.0306  0.6227 -0.2726
15036TIP3    H266600   0.337   5.240  11.503 -1.1746  0.0128  0.4088
15037TIP3   OH266601   3.462   5.686  14.056  0.0503 -0.1852  0.4824
15037TIP3    H166602   3.499   5.617  14.001  0.2082  0.7530 -0.6340
15037TIP3    H266603   3.425   5.749  13.994 -2.0088 -0.2862  1.5241
15038TIP3   OH266604   5.211   5.120   6.614  0.3360 -0.3637  0.2483
15038TIP3    H166605   5.201   5.203   6.662  2.5676  0.1281 -0.0190
15038TIP3    H266606   5.252   5.145   6.532 -1.1619 -1.4999 -0.8993
15039TIP3   OH266607   3.058   0.933  12.693 -0.3238 -0.4093  0.8479
15039TIP3    H166608   2.981   0.965  12.645  1.3224  0.8077 -1.1231
15039TIP3    H266609   3.044   0.963  12.783 -2.3529 -0.6249  0.6470
15040TIP3   OH266610   2.042   6.132  15.546  1.0947  0.6140  0.0882
15040TIP3    H166611   2.048   6.055  15.602 -0.8811  0.3617 -0.0028
15040TIP3    H266612   1.997   6.197  15.600 -0.8896  0.3580 -1.1567
15041TIP3   OH266613   2.258   6.575  14.662 -0.0468  0.6602  0.2782
15041TIP3    H166614   2.180   6.537  14.621  1.3249 -1.1829 -0.8094
15041TIP3    H266615   2.246   6.557  14.756 -0.6713 -0.1044  0.0695
15042TIP3   OH266616   0.869   5.365  16.281  0.1888  0.3426  0.3030
15042TIP3    H166617   0.950   5.403  16.246 -0.1847  0.3948 -0.5052
15042TIP3    H266618   0.825   5.439  16.323 -0.7483  0.9416 -1.6473
15043TIP3   OH266619   1.999   6.821   3.334  0.8714  0.2257  0.1245
15043TIP3    H166620   2.077   6.799   3.385  0.3700 -0.2927  0.6983
15043TIP3    H266621   1.965   6.736   3.306  0.7569  0.4735 -0.4971
15044TIP3   OH266622   1.061   6.212  13.552  0.0692 -0.0916  0.2042
15044TIP3    H166623   0.992   6.225  13.487 -0.6082  0.0727  0.9378
15044TIP3    H266624   1.086   6.120  13.543  0.1909  0.0018 -0.4820
15045TIP3   OH266625   2.797   3.403  15.920  0.2112  0.0374  0.7438
15045TIP3    H166626   2.808   3.310  15.903  1.5369  0.4452 -0.8104
15045TIP3    H266627   2.884   3.433  15.947 -0.2594  0.7840  1.4720
15046TIP3   OH266628   6.716   5.624  11.847 -0.7643  0.2318  0.3212
15046TIP3    H166629   6.720   5.663  11.934  1.1520 -1.3488  1.0194
15046TIP3    H266630   6.686   5.535  11.862  2.9411 -1.2413 -0.0631
15047TIP3   OH266631   6.203   3.595   0.294 -0.1505  0.4059  0.1235
15047TIP3    H166632   6.178   3.550   0.375 -0.3106 -0.6009 -0.4805
15047TIP3    H266633   6.220   3.525   0.231  1.0271  1.1468 -0.4189
15048TIP3   OH266634   0.300   2.586   6.225  0.1276  0.0388 -0.3769
15048TIP3    H166635   0.292   2.535   6.306  0.2418  0.5620 -0.0297
15048TIP3    H266636   0.210   2.599   6.196 -0.0651  1.7083  0.8518
15049TIP3   OH266637   5.306   5.079  11.078 -0.3275 -0.4095  0.1692
15049TIP3    H166638   5.395   5.108  11.055 -0.5936  0.0503 -0.3005
15049TIP3    H266639   5.289   5.005  11.020 -0.9171  0.6163 -0.9953
15050TIP3   OH266640   1.380   0.421   0.232 -0.0144 -0.0869  0.1112
15050TIP3    H166641   1.318   0.422   0.305 -1.2482  1.5943 -0.9040
15050TIP3    H266642   1.372   0.507   0.192  0.8371 -0.8602 -1.8594
15051TIP3   OH266643   0.226   4.259   4.594 -0.1296  0.0158  0.1475
15051TIP3    H166644   0.281   4.219   4.526  0.6972 -0.3882  1.0305
15051TIP3    H266645   0.145   4.281   4.549  0.3223 -0.4326 -0.9256
15052TIP3   OH266646   1.676   2.439  14.616  0.2614 -0.0477 -0.2514
15052TIP3    H166647   1.720   2.504  14.559  0.5948  0.3839  0.4786
15052TIP3    H266648   1.747   2.403  14.668  0.3097 -2.0445 -1.5945
15053TIP3   OH266649   4.953   4.112  11.343 -0.1586 -0.2708 -0.0162
15053TIP3    H166650   4.999   4.107  11.427  0.3052  0.6170 -0.2094
15053TIP3    H266651   4.879   4.170  11.359  1.2223  1.8255 -0.7582
15054TIP3   OH266652   0.351   4.631   1.174  0.0929  0.2272  0.3878
15054TIP3    H166653   0.360   4.546   1.131  0.2250  0.5041 -0.1453
15054TIP3    H266654   0.403   4.624   1.254 -0.1316 -0.2871  0.4887
15055TIP3   OH266655   6.779   6.380  16.074 -0.5071 -0.5466 -0.4049
15055TIP3    H166656   6.688   6.401  16.096 -0.1995  2.2757 -1.4585
15055TIP3    H266657   6.804   6.313  16.137 -3.3142 -1.4534 -0.1074
15056TIP3   OH266658   4.012   4.108   2.004 -0.0881  0.2404 -0.0930
15056TIP3    H166659   4.047   4.081   2.089  0.3912 -1.1151 -0.7143
15056TIP3    H266660   3.931   4.057   1.994 -0.4317  0.7971 -0.2252
15057TIP3   OH266661   5.321   3.148  12.094  0.4111  0.3497  0.0637
15057TIP3    H166662   5.263   3.204  12.043  0.2296 -0.2794 -0.4469
15057TIP3    H266663   5.380   3.208  12.140  0.0894  0.9521 -0.3039
15058TIP3   OH266664   3.016   1.074   6.033  0.1446  0.0666 -0.3893
15058TIP3    H166665   2.937   1.111   6.071 -1.0127 -0.8019 -1.8508
15058TIP3    H266666   3.067   1.044   6.109  0.2579  2.8050  0.7208
15059TIP3   OH266667   0.801   4.945  15.309 -0.2562  0.3315  0.1454
15059TIP3    H166668   0.847   4.985  15.235  1.2316  0.6272  1.2072
15059TIP3    H266669   0.855   4.870  15.333 -0.1990  0.7986  1.5377
15060TIP3   OH266670   0.484   3.237   1.497  0.1167  0.0826 -0.3509
15060TIP3    H166671   0.390   3.237   1.511  0.2802  0.8041  0.8334
15060TIP3    H266672   0.500   3.162   1.439 -0.8708 -1.6508  1.5122
15061TIP3   OH266673   1.369   3.788   4.474  0.2296  0.6041  0.1191
15061TIP3    H166674   1.347   3.870   4.431  0.7003  0.3172 -0.7069
15061TIP3    H266675   1.446   3.755   4.426  0.0865 -0.2838  0.4662
15062TIP3   OH266676   3.478   4.398  14.893  0.5454 -0.2142  0.1754
15062TIP3    H166677   3.433   4.330  14.844 -1.3440  0.9608  0.1942
15062TIP3    H266678   3.501   4.464  14.826  1.3480 -0.3305  0.3237
15063TIP3   OH266679   5.286   5.928  12.956  0.3509 -0.3941 -0.5095
15063TIP3    H166680   5.289   5.859  13.022  0.9006  1.1463  1.1435
15063TIP3    H266681   5.194   5.954  12.953 -0.1748 -2.1754 -2.2899
15064TIP3   OH266682   5.002   2.724  14.149 -0.5544 -0.1899 -0.1711
15064TIP3    H166683   4.924   2.670  14.138 -0.5718 -0.1301 -0.3360
15064TIP3    H266684   5.075   2.662  14.148 -0.7023 -0.4630  1.7827
15065TIP3   OH266685   2.358   3.859   5.706  0.1417 -0.2027 -0.1934
15065TIP3    H166686   2.264   3.842   5.697  0.0656  1.2013 -3.1230
15065TIP3    H266687   2.400   3.787   5.658  0.4418  0.2782 -0.6627
15066TIP3   OH266688   5.044   2.666   4.441 -0.3976  0.0224 -0.0423
15066TIP3    H166689   5.091   2.744   4.470 -0.9158  1.2190 -2.1261
15066TIP3    H266690   5.108   2.595   4.447  0.8708  1.0952 -0.3153
15067TIP3   OH266691   5.394   6.265  10.319  0.2008  0.2233  0.4156
15067TIP3    H166692   5.420   6.346  10.364  0.2756 -0.1011  0.9599
15067TIP3    H266693   5.299   6.265  10.322  0.1424  1.0054 -0.8603
15068TIP3   OH266694   3.285   0.612  10.519 -0.3389 -0.3589 -0.0367
15068TIP3    H166695   3.352   0.650  10.576 -0.4130 -0.4830  0.1312
15068TIP3    H266696   3.333   0.547  10.467  0.2406  1.3607 -1.7820
15069TIP3   OH266697   6.074   0.150  16.999 -0.5113 -0.0830 -0.8232
15069TIP3    H166698   6.051   0.181  16.911 -1.5278  2.9068  0.3549
15069TIP3    H266699   5.994   0.161  17.050  0.6392  0.3831  0.9809
15070TIP3   OH266700   4.871   1.065   3.838 -0.5858 -0.1738  0.5488
15070TIP3    H166701   4.810   1.037   3.907 -0.7819 -0.9325  0.0769
15070TIP3    H266702   4.820   1.127   3.786 -0.6910 -0.1851  0.6359
15071TIP3   OH266703   1.983   5.704   5.376  0.4668 -0.7580  0.0406
15071TIP3    H166704   2.053   5.762   5.348 -0.6805  0.0077 -1.4193
15071TIP3    H266705   1.971   5.643   5.303  1.1618 -2.4147  1.2465
15072TIP3   OH266706   4.238   3.526   4.446  0.1211 -0.2385  0.6632
15072TIP3    H166707   4.265   3.610   4.410 -0.0105  0.0302  1.1754
15072TIP3    H266708   4.173   3.548   4.513 -1.8792 -0.8949 -0.9604
15073TIP3   OH266709   5.142   6.260   1.921 -0.5436  0.4892 -0.3591
15073TIP3    H166710   5.120   6.271   1.828 -0.5022 -0.5539 -0.5075
15073TIP3    H266711   5.134   6.348   1.958  1.1889  1.3109 -1.7253
15074TIP3   OH266712   4.788   6.059  16.268  0.3033 -0.0685  0.2107
15074TIP3    H166713   4.769   5.974  16.307 -1.3069 -0.1505 -0.6839
15074TIP3    H266714   4.765   6.048  16.175  0.0260  1.3551  0.0936
15075TIP3   OH266715   0.264   1.477  15.980  0.4471  0.0010  0.1157
15075TIP3    H166716   0.330   1.537  15.943 -0.7145  0.6820 -0.9253
15075TIP3    H266717   0.192   1.479  15.917 -1.4585  0.8689  2.1816
15076TIP3   OH266718   3.195   6.073  10.733  0.5803 -0.1580  0.2524
15076TIP3    H166719   3.225   6.004  10.792 -0.2091 -0.3930  0.3988
15076TIP3    H266720   3.113   6.040  10.697  0.7780  0.2144 -0.5704
15077TIP3   OH266721   2.365   2.973  13.657  0.3265  0.2334 -0.1985
15077TIP3    H166722   2.421   3.026  13.600  0.0081  0.7352 -0.0482
15077TIP3    H266723   2.292   2.946  13.601 -1.5525  3.1352  0.6131
15078TIP3   OH266724   1.814   6.653  16.540 -0.1008 -0.6854  0.3567
15078TIP3    H166725   1.783   6.733  16.583  1.1077  0.9695 -1.6895
15078TIP3    H266726   1.736   6.596  16.537 -1.4161  1.0221  0.4722
15079TIP3   OH266727   0.351   4.931   1.380 -0.6855 -0.4398 -0.1420
15079TIP3    H166728   0.284   4.971   1.325  0.1990 -0.2912 -1.1507
15079TIP3    H266729   0.413   4.893   1.318 -0.1014 -1.0221  0.7744
15080TIP3   OH266730   3.172   6.206  17.203  0.2297 -0.7677 -0.2418
15080TIP3    H166731   3.090   6.212  17.253  1.1055  0.4425  1.1063
15080TIP3    H266732   3.166   6.278  17.140  1.0831  0.5912  1.1775
15081TIP3   OH266733   6.707   0.524   2.174 -0.0824 -0.0321 -0.0988
15081TIP3    H166734   6.793   0.561   2.191 -0.4678  1.7280 -1.7312
15081TIP3    H266735   6.654   0.551   2.249  1.2824 -3.2566  2.2440
15082TIP3   OH266736   3.226   6.357   5.136 -0.1071  0.2903  0.3835
15082TIP3    H166737   3.305   6.314   5.167  0.0653  0.8056  0.6659
15082TIP3    H266738   3.229   6.445   5.175 -0.3579  0.6222 -0.3277
15083TIP3   OH266739   4.255   2.653  15.031 -0.3241 -0.8177 -0.3428
15083TIP3    H166740   4.296   2.636  14.947 -1.5462 -0.4399 -1.0393
15083TIP3    H266741   4.274   2.575  15.083  1.4489 -0.5519 -0.5410
15084TIP3   OH266742   0.585   4.338   4.587  0.9703  0.0296  0.0236
15084TIP3    H166743   0.649   4.359   4.655  0.4419  0.8663  0.2692
15084TIP3    H266744   0.559   4.248   4.607  1.1839  0.0933  0.6298
15085TIP3   OH266745   0.847   3.517  14.624 -0.2943  0.5946 -0.3587
15085TIP3    H166746   0.773   3.464  14.592 -0.1429 -0.5780  1.0870
15085TIP3    H266747   0.807   3.599  14.652 -0.8648  0.4682 -0.7928
15086TIP3   OH266748   1.256   4.180  14.491  0.0569 -0.1965  0.2010
15086TIP3    H166749   1.224   4.181  14.581 -0.9154 -0.6783 -0.1356
15086TIP3    H266750   1.266   4.087  14.470  0.5211 -0.0809 -0.1104
15087TIP3   OH266751   4.215   2.998   1.815 -0.1260 -0.1292  0.0675
15087TIP3    H166752   4.228   3.011   1.721 -0.2504  1.1722  0.2183
15087TIP3    H266753   4.219   2.903   1.826 -2.2725 -0.5207 -1.5999
15088TIP3   OH266754   0.163   0.505  11.814 -0.0865 -0.0909  0.0751
15088TIP3    H166755   0.177   0.596  11.842  0.8786  0.1149 -1.0007
15088TIP3    H266756   0.095   0.510  11.747  0.2924 -0.0913 -0.3156
15089TIP3   OH266757   2.079   5.628   0.265  0.1300  0.5836 -0.8232
15089TIP3    H166758   2.051   5.576   0.189  0.4068 -0.8493  0.0048
15089TIP3    H266759   2.003   5.625   0.324 -0.2277  2.0142 -1.1730
15090TIP3   OH266760   2.124   1.030  13.735 -0.3477 -0.3279  0.4738
15090TIP3    H166761   2.071   1.057  13.810  0.3221  1.1067  0.4623
15090TIP3    H266762   2.102   1.092  13.666  1.2435  0.2394  0.4367
15091TIP3   OH266763   6.399   4.721  13.349 -0.6361 -0.1921  0.0353
15091TIP3    H166764   6.345   4.793  13.316  0.1204 -0.9561 -3.2126
15091TIP3    H266765   6.488   4.745  13.325 -0.0759 -1.1589  1.0544
15092TIP3   OH266766   0.825   0.656   4.394 -0.2566 -0.1183 -0.2369
15092TIP3    H166767   0.776   0.576   4.379  0.1025 -0.0597 -1.9620
15092TIP3    H266768   0.798   0.686   4.481  0.1612 -2.4850  0.7702
15093TIP3   OH266769   2.237   0.352   2.018 -0.4821 -0.1847  0.4019
15093TIP3    H166770   2.199   0.395   1.941  0.5091 -1.0492 -0.6054
15093TIP3    H266771   2.257   0.424   2.078 -0.6362  0.5787 -0.4441
15094TIP3   OH266772   2.579   1.823  15.488  0.0659  0.2757 -0.3425
15094TIP3    H166773   2.637   1.762  15.532 -1.2300 -2.2763 -1.9480
15094TIP3    H266774   2.629   1.905  15.484  2.0918 -0.7663  1.4166
15095TIP3   OH266775   2.490   2.318  13.149  0.2083 -0.0874  0.3784
15095TIP3    H166776   2.520   2.408  13.163  0.3577 -0.0197 -0.3478
15095TIP3    H266777   2.548   2.265  13.205 -0.7878  0.3668  1.9123
15096TIP3   OH266778   1.565   3.027   2.433  0.0446  0.2037  0.0090
15096TIP3    H166779   1.643   3.081   2.442 -0.2637  0.6299  0.1299
15096TIP3    H266780   1.492   3.084   2.459 -0.5073  0.3816 -1.7751
15097TIP3   OH266781   4.318   3.253   3.126 -0.1624 -0.5032 -0.6348
15097TIP3    H166782   4.378   3.190   3.088 -0.5022 -1.0468 -0.2872
15097TIP3    H266783   4.372   3.306   3.185 -0.0443 -1.0922 -0.2022
15098TIP3   OH266784   1.496   5.415  14.742  0.2298 -0.5248 -0.0103
15098TIP3    H166785   1.483   5.510  14.745  1.0802 -0.4121  0.5058
15098TIP3    H266786   1.419   5.379  14.787 -0.2660 -0.1029 -0.5092
15099TIP3   OH266787   2.724   0.053  14.445 -0.8021  0.5217 -0.5318
15099TIP3    H166788   2.794   0.115  14.425  0.5989 -0.6566  0.4205
15099TIP3    H266789   2.722  -0.006  14.370 -2.2340  1.7321 -1.5046
15100TIP3   OH266790   1.543   0.480   1.941 -0.0136 -0.2407  0.1381
15100TIP3    H166791   1.540   0.558   1.997 -0.7882 -0.7929  0.9017
15100TIP3    H266792   1.536   0.514   1.852 -1.9573  0.4997  0.5221
15101TIP3   OH266793   0.729   0.810  10.550  0.1659 -0.0249  0.4893
15101TIP3    H166794   0.824   0.814  10.541  0.2645 -0.3979  1.2728
15101TIP3    H266795   0.715   0.772  10.637 -0.6934 -0.4559  0.1740
15102TIP3   OH266796   4.345   4.977   1.497 -0.2471  0.3918  0.4719
15102TIP3    H166797   4.271   4.965   1.438  0.2558 -0.5022 -0.0017
15102TIP3    H266798   4.397   5.047   1.456  0.1758 -0.3230 -0.2513
15103TIP3   OH266799   1.609   0.580   6.395  0.1292  0.4697  0.3878
15103TIP3    H166800   1.536   0.522   6.417  0.7865  0.3359  2.4545
15103TIP3    H266801   1.608   0.647   6.464  0.0873  2.3010 -1.3073
15104TIP3   OH266802   2.919   4.365  13.139  0.1656 -0.1035  0.6975
15104TIP3    H166803   2.870   4.285  13.120 -0.7355  0.7236 -0.6334
15104TIP3    H266804   2.975   4.378  13.063 -1.4185  1.7557 -0.2411
15105TIP3   OH266805   2.522   1.767   2.976  0.4736 -0.1837 -0.8614
15105TIP3    H166806   2.456   1.717   2.929 -0.6722  0.5414 -0.0929
15105TIP3    H266807   2.481   1.787   3.061  0.4473  2.8883 -1.4890
15106TIP3   OH266808   0.909   1.415   3.791 -0.0222  0.1700  0.2072
15106TIP3    H166809   0.897   1.435   3.698 -1.7869 -1.1231  0.0902
15106TIP3    H266810   0.945   1.327   3.793 -1.4289 -0.4222  0.7289
15107TIP3   OH266811   1.315   5.339   0.599  0.0790  0.2545 -0.0413
15107TIP3    H166812   1.273   5.264   0.642 -0.5413  0.8455  0.4079
15107TIP3    H266813   1.281   5.337   0.509 -0.0096  0.0493 -0.0039
15108TIP3   OH266814   4.825   1.142  13.828  0.0163  0.0481 -0.0042
15108TIP3    H166815   4.772   1.221  13.835  0.8248  0.5829  0.2655
15108TIP3    H266816   4.897   1.156  13.890 -0.2350 -1.2314  0.6026
15109TIP3   OH266817   2.813   1.313   1.552  0.1255  0.4708 -0.0582
15109TIP3    H166818   2.872   1.373   1.506 -0.6317  1.1858 -0.1100
15109TIP3    H266819   2.807   1.348   1.641  0.9191 -0.4332  0.3760
15110TIP3   OH266820   0.742   2.819  12.337 -0.0649 -1.0195 -0.7486
15110TIP3    H166821   0.731   2.865  12.421 -0.1326 -1.3013 -0.6044
15110TIP3    H266822   0.814   2.866  12.294  1.4239 -2.1769  0.3771
15111TIP3   OH266823   5.898   3.380  11.667  0.2366  0.0990 -0.3257
15111TIP3    H166824   5.975   3.397  11.612  0.3325 -0.0658 -0.2406
15111TIP3    H266825   5.823   3.389  11.607  0.3722 -0.6619 -0.6181
15112TIP3   OH266826   2.795   2.219  13.680 -0.4155 -0.2942 -0.4485
15112TIP3    H166827   2.862   2.271  13.634 -0.6924  0.8633  0.4198
15112TIP3    H266828   2.843   2.177  13.751 -0.6529  0.9221  0.4739
15113TIP3   OH266829   5.757   3.064  15.016  0.3806  0.3691 -0.5140
15113TIP3    H166830   5.691   3.120  14.977  0.1592 -0.7064 -1.7711
15113TIP3    H266831   5.841   3.104  14.992  0.2246  0.2090 -1.3564
15114TIP3   OH266832   4.710   0.113   0.707 -0.0005 -0.8622  0.4702
15114TIP3    H166833   4.727   0.146   0.618  0.0871 -0.5602  0.5992
15114TIP3    H266834   4.617   0.128   0.720  0.0116 -0.7957  0.4775
15115TIP3   OH266835   6.588   1.812  13.386  0.2592  0.5045 -0.4167
15115TIP3    H166836   6.632   1.886  13.427  2.6121  0.3241 -2.3779
15115TIP3    H266837   6.544   1.849  13.309 -0.9924  0.2662  0.1538
15116TIP3   OH266838   0.820   1.777  16.183  0.0233 -0.4612  0.2215
15116TIP3    H166839   0.785   1.757  16.270  0.7073 -0.7393  0.4415
15116TIP3    H266840   0.915   1.769  16.193  0.1765  0.5410 -0.2865
15117TIP3   OH266841   3.261   4.363   3.092 -0.6695  0.4290  0.1341
15117TIP3    H166842   3.272   4.405   3.007 -0.6782 -0.8291 -0.5156
15117TIP3    H266843   3.177   4.317   3.086 -0.5113  0.0480  0.6967
15118TIP3   OH266844   4.536   1.355  13.389 -0.3308 -0.2288 -0.0609
15118TIP3    H166845   4.588   1.396  13.320 -0.8271 -1.0988 -0.9838
15118TIP3    H266846   4.476   1.297  13.342  1.3406 -3.2407  1.1640
15119TIP3   OH266847   5.561   2.616  13.986 -0.2104  0.7040 -0.0923
15119TIP3    H166848   5.535   2.678  13.917  1.4465  1.8131  0.2146
15119TIP3    H266849   5.561   2.531  13.943 -1.0383  1.1221 -0.9570
15120TIP3   OH266850   1.390   0.682   5.803 -0.7758  0.2677  0.1247
15120TIP3    H166851   1.456   0.637   5.855 -0.4448 -1.9666 -2.0344
15120TIP3    H266852   1.393   0.639   5.718 -2.7887  2.2772 -1.0830
15121TIP3   OH266853   5.095   3.313   5.527  0.2024 -0.5121  0.2544
15121TIP3    H166854   5.190   3.317   5.533  0.0901  2.1294  1.7750
15121TIP3    H266855   5.069   3.251   5.595  0.8134 -2.1643 -0.9451
15122TIP3   OH266856   5.791   3.849  11.336 -0.1864  0.0377  0.0950
15122TIP3    H166857   5.744   3.891  11.264 -1.3841 -1.7570 -0.2194
15122TIP3    H266858   5.744   3.876  11.415 -0.9895 -0.7459 -0.1097
15123TIP3   OH266859   1.715   0.923  14.539  0.2599 -0.0466  0.5715
15123TIP3    H166860   1.737   0.832  14.558 -1.1477 -0.8530 -1.4394
15123TIP3    H266861   1.680   0.956  14.622  0.1013 -1.5403  1.1372
15124TIP3   OH266862   5.841   0.947  11.760 -0.1931 -0.6916 -0.0493
15124TIP3    H166863   5.925   0.908  11.738 -0.7456 -1.7323 -0.3734
15124TIP3    H266864   5.856   1.042  11.755  0.8005 -0.8691 -0.6651
15125TIP3   OH266865   4.055   2.936   3.985  0.6173  0.4217 -0.4223
15125TIP3    H166866   4.031   2.847   4.012 -0.2192  0.0383 -2.2720
15125TIP3    H266867   4.113   2.968   4.055  0.0954 -1.1776  0.7895
15126TIP3   OH266868   1.115   3.961   2.732  0.3730  0.0233 -0.2375
15126TIP3    H166869   1.071   4.041   2.704 -1.7309 -0.4056  1.5608
15126TIP3    H266870   1.045   3.895   2.737  1.3220 -0.9375  1.8706
15127TIP3   OH266871   6.352   5.786  13.104 -0.5372  0.2408 -0.5511
15127TIP3    H166872   6.402   5.719  13.150  0.0139 -0.0759 -1.5781
15127TIP3    H266873   6.382   5.780  13.013 -1.4842  0.9448 -0.9255
15128TIP3   OH266874   1.335   0.011   1.641  0.3914 -0.0419 -0.1200
15128TIP3    H166875   1.273   0.069   1.596 -1.9362  0.1407  2.9583
15128TIP3    H266876   1.409   0.067   1.661  0.0169  0.7312 -0.7868
15129TIP3   OH266877   4.658   0.555   4.731  0.1099  0.1202  0.5186
15129TIP3    H166878   4.743   0.558   4.687  0.4502  0.1072  1.1598
15129TIP3    H266879   4.598   0.597   4.670 -0.0262 -2.3964 -1.2245
15130TIP3   OH266880   6.770   5.666   0.554 -0.2661  0.2993 -0.0466
15130TIP3    H166881   6.707   5.650   0.624 -0.6926 -0.0089 -0.4895
15130TIP3    H266882   6.851   5.689   0.599  0.0267 -1.8121  0.6518
15131TIP3   OH266883   3.570   0.592  14.505  1.1117  0.0297  0.6294
15131TIP3    H166884   3.585   0.558  14.594 -0.5061 -1.3110  0.4252
15131TIP3    H266885   3.521   0.673  14.519 -1.4760 -1.4710  0.9803
15132TIP3   OH266886   5.264   0.870  12.070 -0.0360 -0.0321 -0.1996
15132TIP3    H166887   5.182   0.886  12.023  0.3207 -0.4131 -0.9828
15132TIP3    H266888   5.332   0.897  12.008  0.4275  1.5391  0.9278
15133TIP3   OH266889   4.516   1.938  12.068  0.9986  0.0707 -0.0025
15133TIP3    H166890   4.464   1.859  12.084 -0.3883  0.2191 -3.1018
15133TIP3    H266891   4.565   1.918  11.988 -2.4445  3.5205 -3.4314
15134TIP3   OH266892   1.289   0.471  13.530 -0.0729  0.2136  0.2621
15134TIP3    H166893   1.309   0.424  13.611  1.4778  0.5276  0.0976
15134TIP3    H266894   1.355   0.441  13.468  1.0479  2.6349  0.1836
15135TIP3   OH266895   1.228   4.888  11.150 -0.7702  0.0265  0.3094
15135TIP3    H166896   1.230   4.940  11.230  0.7825 -2.2459  1.8415
15135TIP3    H266897   1.267   4.945  11.084  2.5980  0.3159  2.3214
15136TIP3   OH266898   5.981   5.033   0.686 -0.4090 -0.8332 -0.1936
15136TIP3    H166899   6.030   5.030   0.603  1.4084  0.5449  0.7583
15136TIP3    H266900   6.049   5.039   0.753 -1.8384 -2.0490  1.4445
15137TIP3   OH266901   0.031   0.683  15.744  0.0364  0.2992 -0.1455
15137TIP3    H166902   0.042   0.708  15.835 -1.5793  0.9609 -0.0861
15137TIP3    H266903   0.013   0.589  15.746  1.1712  0.0801  0.0960
15138TIP3   OH266904   3.850   5.644   2.518  0.7486  0.1385  0.3306
15138TIP3    H166905   3.866   5.728   2.560  1.7700  0.1954 -0.1250
15138TIP3    H266906   3.895   5.651   2.434 -0.2785 -0.3852 -0.2906
15139TIP3   OH266907   0.610   3.572  13.197 -0.0840 -0.5392 -0.2628
15139TIP3    H166908   0.625   3.631  13.270 -0.1372 -0.9801  0.1044
15139TIP3    H266909   0.680   3.592  13.135  1.3128 -1.7108  0.8917
15140TIP3   OH266910   5.710   2.704   4.737 -0.2403 -0.2798 -0.7969
15140TIP3    H166911   5.783   2.712   4.675 -0.9139  1.7192 -1.4022
15140TIP3    H266912   5.632   2.720   4.684 -0.8252  1.6651  0.5398
15141TIP3   OH266913   6.137   3.081   0.686 -0.1554  0.1833 -0.2060
15141TIP3    H166914   6.062   3.028   0.711  0.7374 -0.3382  1.5005
15141TIP3    H266915   6.104   3.170   0.682 -1.3269 -0.2724 -1.6039
15142TIP3   OH266916   0.638   3.287  15.710 -0.2391 -0.1127  0.1142
15142TIP3    H166917   0.601   3.246  15.788 -1.2320  0.2836 -0.1286
15142TIP3    H266918   0.682   3.365  15.742 -1.2122  0.4093  0.2297
15143TIP3   OH266919   0.259   6.099  13.711 -0.0451 -0.1850 -0.5529
15143TIP3    H166920   0.331   6.127  13.767  0.5831 -0.9803 -0.9222
15143TIP3    H266921   0.211   6.035  13.764  0.1368 -0.4157 -0.6608
15144TIP3   OH266922   1.744   1.553   5.343 -0.1493 -0.4610 -0.9381
15144TIP3    H166923   1.744   1.604   5.263 -0.9404 -0.3066 -0.8451
15144TIP3    H266924   1.759   1.617   5.413 -2.1192 -0.1818 -0.7311
15145TIP3   OH266925   4.172   5.415   1.421  0.2021  0.2407  0.1936
15145TIP3    H166926   4.184   5.509   1.427  0.8922  0.0588  3.2868
15145TIP3    H266927   4.240   5.378   1.477  0.1197 -2.1433 -1.1368
15146TIP3   OH266928   1.944   5.871  13.585  0.0237 -0.3364  0.0284
15146TIP3    H166929   1.935   5.947  13.643 -0.4194 -0.9544  0.7915
15146TIP3    H266930   1.866   5.819  13.602  0.2509 -0.8895 -0.5953
15147TIP3   OH266931   1.204   4.480   2.661  0.0070  0.2083  0.0209
15147TIP3    H166932   1.141   4.532   2.611  0.1973  0.2715 -0.1521
15147TIP3    H266933   1.226   4.407   2.603  0.6126  0.5529 -0.1894
15148TIP3   OH266934   4.204   2.832   4.216  0.5380 -0.5529 -0.0337
15148TIP3    H166935   4.217   2.793   4.302  2.7386 -3.2549 -1.4536
15148TIP3    H266936   4.234   2.923   4.226  0.6593 -0.7697  2.0040
15149TIP3   OH266937   1.168   0.468   1.226 -0.9075  0.0850 -0.9185
15149TIP3    H166938   1.179   0.527   1.300  0.7771  0.1640 -1.1817
15149TIP3    H266939   1.167   0.381   1.264  1.6208  0.0121 -0.8569
15150TIP3   OH266940   6.139   4.945   0.220  0.1781  0.3167  0.7133
15150TIP3    H166941   6.110   4.998   0.295 -0.6366 -0.3394  0.8824
15150TIP3    H266942   6.058   4.926   0.172  0.4899 -0.5221  0.4963
15151TIP3   OH266943   0.938   4.122   4.861  0.1154  0.4879 -0.1818
15151TIP3    H166944   0.949   4.034   4.823 -1.5257  0.2381 -0.1480
15151TIP3    H266945   0.927   4.106   4.955 -0.3575  0.6986 -0.1980
15152TIP3   OH266946   6.306   5.640   3.133  0.2842  0.2331  0.0268
15152TIP3    H166947   6.214   5.645   3.160  0.3156 -0.0758  0.1915
15152TIP3    H266948   6.347   5.581   3.196  0.8416  1.2186  0.5982
15153TIP3   OH266949   0.611   6.004  16.892 -0.7778  0.4758  0.2721
15153TIP3    H166950   0.610   6.074  16.827  0.1915  0.1351 -0.1318
15153TIP3    H266951   0.699   6.006  16.928  0.1592 -2.1029 -1.5284
15154TIP3   OH266952   0.390   0.093  16.471 -0.2335  0.0082 -0.0046
15154TIP3    H166953   0.469   0.117  16.423 -1.1534  1.2035 -0.9979
15154TIP3    H266954   0.341   0.175  16.478 -1.6808 -0.8294 -0.0105
15155TIP3   OH266955   3.079   3.719  14.547 -0.1353 -0.3454 -0.4783
15155TIP3    H166956   3.133   3.696  14.471  1.4534  0.1701  0.4446
15155TIP3    H266957   2.989   3.714  14.515  0.5146  1.3842 -2.8277
15156TIP3   OH266958   3.843   6.617  11.019  0.3375  0.0013  0.0747
15156TIP3    H166959   3.859   6.601  11.112 -0.9204 -0.0126  0.3177
15156TIP3    H266960   3.777   6.551  10.995 -0.7593  1.2012 -0.3283
15157TIP3   OH266961   1.467   5.991  14.524  0.1727 -0.0618 -0.4514
15157TIP3    H166962   1.439   5.974  14.614  0.9233  1.5819  0.1336
15157TIP3    H266963   1.559   6.017  14.532  0.5157 -0.7589 -1.8088
15158TIP3   OH266964   1.517   3.793   5.824 -0.4489 -0.2802 -0.1578
15158TIP3    H166965   1.566   3.851   5.766  1.9655 -0.5741  1.4423
15158TIP3    H266966   1.457   3.851   5.871 -0.3773  0.3772 -0.8653
15159TIP3   OH266967   4.933   5.520  11.798  0.4318  0.5771  0.1603
15159TIP3    H166968   4.862   5.554  11.854 -0.8872  1.8507 -2.1500
15159TIP3    H266969   4.888   5.473  11.728  1.9541  0.3581 -0.7185
15160TIP3   OH266970   0.875   6.791   3.096  0.0364  0.1564 -0.6379
15160TIP3    H166971   0.830   6.707   3.093 -1.3755  0.8721 -0.4660
15160TIP3    H266972   0.965   6.771   3.071 -0.0340 -1.5415  0.2948
15161TIP3   OH266973   6.031   4.129  14.908 -0.3810  0.5554  0.1045
15161TIP3    H166974   6.053   4.072  14.981  0.8714  0.0606 -0.6370
15161TIP3    H266975   6.096   4.199  14.910 -0.4110  0.6107 -0.4551
15162TIP3   OH266976   4.948   3.780   2.315 -0.0088 -0.1504  0.7476
15162TIP3    H166977   4.890   3.705   2.324 -1.2071  0.7340  0.5412
15162TIP3    H266978   4.918   3.825   2.236 -0.2803  1.3725  1.6890
15163TIP3   OH266979   4.265   0.636  13.849  0.0722 -0.6638 -0.3747
15163TIP3    H166980   4.183   0.668  13.885  0.8495  0.7214  0.2578
15163TIP3    H266981   4.261   0.656  13.756  0.2786  0.7894 -0.0977
15164TIP3   OH266982   6.823   6.615  14.091  0.2804  0.4373 -0.3246
15164TIP3    H166983   6.886   6.576  14.030 -0.6207  0.0178 -1.0001
15164TIP3    H266984   6.848   6.707  14.095  0.6731  0.3659 -0.9193
15165TIP3   OH266985   1.749   5.148   6.177  0.0796  0.2812  0.1191
15165TIP3    H166986   1.790   5.151   6.263 -1.4415  0.5053  0.8627
15165TIP3    H266987   1.697   5.067   6.177  1.6524 -0.8030 -1.3669
15166TIP3   OH266988   1.491   1.085   4.162  0.6241 -0.1202 -0.0481
15166TIP3    H166989   1.583   1.088   4.191  0.5280  0.4695  0.2096
15166TIP3    H266990   1.470   0.992   4.159  0.7393 -0.2156  1.4693
15167TIP3   OH266991   4.403   4.444  12.982 -0.6999  0.5371 -0.1293
15167TIP3    H166992   4.345   4.505  13.029  0.0555  2.0869 -1.1267
15167TIP3    H266993   4.361   4.433  12.897 -1.0818 -0.7690  0.2054
15168TIP3   OH266994   3.055   0.991   5.762  0.2173  0.4050  0.2252
15168TIP3    H166995   2.987   1.023   5.703 -1.5037 -0.5459  1.5980
15168TIP3    H266996   3.039   1.036   5.845  0.7636 -0.4022  0.7896
15169TIP3   OH266997   3.281   5.496   0.001  0.0328  0.3757  0.4480
15169TIP3    H166998   3.368   5.482  -0.037  0.0887  1.6191  0.0625
15169TIP3    H266999   3.252   5.409   0.027  1.3406 -0.0794  0.4671
15170TIP3   OH267000   3.379   6.507  16.122  0.2758 -0.5497  0.3780
15170TIP3    H167001   3.341   6.555  16.048  0.1441 -0.5388  0.4540
15170TIP3    H267002   3.460   6.555  16.143 -1.1043  1.2038  2.1014
15171TIP3   OH267003   3.740   2.079   4.532  0.2592 -0.3470  0.0096
15171TIP3    H167004   3.667   2.018   4.528  0.8589 -1.0351 -1.5929
15171TIP3    H267005   3.708   2.151   4.586 -1.1199 -1.2320  0.4356
15172TIP3   OH267006   3.284   0.197   2.346 -0.2176 -0.3736  0.2929
15172TIP3    H167007   3.227   0.262   2.387  0.1013  0.1664 -0.1070
15172TIP3    H267008   3.336   0.161   2.419 -0.2346 -0.0182  0.4793
15173TIP3   OH267009   4.303   5.904   6.295 -0.2137 -0.2726  0.2502
15173TIP3    H167010   4.254   5.977   6.333  0.4973  1.6468 -2.2018
15173TIP3    H267011   4.236   5.844   6.262 -0.9567  1.2294 -1.1068
15174TIP3   OH267012   3.035   5.692  11.968  1.0214 -0.1631  0.2651
15174TIP3    H167013   3.082   5.767  11.933 -0.6334 -0.3737 -2.6765
15174TIP3    H267014   2.962   5.678  11.908  0.3758 -3.2193  1.5470
15175TIP3   OH267015   5.618   1.426  14.544  0.1939  0.7523  0.0686
15175TIP3    H167016   5.613   1.388  14.456  1.5788  2.2545 -0.7221
15175TIP3    H267017   5.686   1.375  14.588  2.3865  2.4331 -1.1465
15176TIP3   OH267018   4.528   3.638  16.106  0.0549  0.1590 -0.1842
15176TIP3    H167019   4.501   3.573  16.170 -3.4302  1.5072 -0.0778
15176TIP3    H267020   4.624   3.636  16.109  0.0621 -1.6997  3.0831
15177TIP3   OH267021   4.038   2.976  13.220 -0.1309  0.2826 -0.0738
15177TIP3    H167022   3.975   2.982  13.148  1.0679  0.5314 -1.1291
15177TIP3    H267023   3.984   2.987  13.299 -1.9450 -2.8585 -0.6748
15178TIP3   OH267024   6.527   0.475   1.169  0.0782 -0.0541  0.6907
15178TIP3    H167025   6.505   0.448   1.080  0.2581  1.1247  0.2658
15178TIP3    H267026   6.445   0.513   1.203  0.2644  0.3658  0.6771
15179TIP3   OH267027   2.439   0.872  16.925 -0.0802 -0.5155 -0.5277
15179TIP3    H167028   2.532   0.889  16.910  0.2245 -1.3707  0.3062
15179TIP3    H267029   2.413   0.939  16.989 -0.0139 -0.3364 -0.6865
15180TIP3   OH267030   2.364   2.764   2.610 -0.4798  0.0943  0.7661
15180TIP3    H167031   2.441   2.741   2.557 -0.6344  0.0954  0.5413
15180TIP3    H267032   2.318   2.829   2.557 -0.1092  0.8439  1.3346
15181TIP3   OH267033   1.982   2.134   0.720 -0.3238  0.3947 -0.5723
15181TIP3    H167034   2.077   2.143   0.710 -0.4429  0.7654 -1.3726
15181TIP3    H267035   1.954   2.216   0.760 -0.4202  0.6163 -1.0975
15182TIP3   OH267036   3.495   4.490  16.359 -0.3835  0.3361 -0.1016
15182TIP3    H167037   3.549   4.427  16.311 -1.3173 -0.8095  0.2910
15182TIP3    H267038   3.486   4.564  16.299 -0.6504 -0.6183 -1.2795
15183TIP3   OH267039   4.941   4.113   0.110  0.8012 -0.1816  0.3361
15183TIP3    H167040   4.870   4.052   0.092  0.4249 -0.1469  1.5820
15183TIP3    H267041   4.965   4.148   0.025 -0.9292  0.0665 -0.0885
15184TIP3   OH267042   2.877   6.467  17.141  0.0189  0.0169 -0.1866
15184TIP3    H167043   2.842   6.386  17.178 -1.7987  0.2772 -1.1868
15184TIP3    H267044   2.911   6.442  17.055 -0.7742  0.3328 -0.6038
15185TIP3   OH267045   0.059   1.997  12.467  0.5731  0.6069  0.2415
15185TIP3    H167046  -0.004   1.924  12.476  1.4318  0.1089  3.5915
15185TIP3    H267047   0.144   1.956  12.480  1.1277  2.0797  1.4936
15186TIP3   OH267048   2.474   5.335   2.204  0.2270 -0.0045  0.2939
15186TIP3    H167049   2.411   5.317   2.273 -2.8672  1.6891 -1.8650
15186TIP3    H267050   2.502   5.425   2.220  2.0238 -0.6318  1.0416
15187TIP3   OH267051   6.079   3.735  15.288  0.0489 -0.3595  0.5312
15187TIP3    H167052   5.995   3.717  15.331 -0.3434 -0.3823 -0.2157
15187TIP3    H267053   6.087   3.666  15.222  0.3517  0.0151  0.1740
15188TIP3   OH267054   2.722   5.930  17.223 -0.4469 -0.2103 -0.5852
15188TIP3    H167055   2.631   5.931  17.251 -0.1619  1.6491  0.3885
15188TIP3    H267056   2.744   6.022  17.208  1.6153 -0.4944  0.4061
15189TIP3   OH267057   1.771   5.287  10.086  0.4571 -0.2558 -0.2897
15189TIP3    H167058   1.765   5.355  10.019 -0.8112 -0.0455  0.0072
15189TIP3    H267059   1.691   5.236  10.075  0.0883 -0.0408  1.2465
15190TIP3   OH267060   0.083   3.200   2.088 -0.4362  0.0082  0.0897
15190TIP3    H167061   0.010   3.144   2.064 -0.2682 -0.9369  1.6432
15190TIP3    H267062   0.043   3.285   2.106 -0.9735 -0.1527 -0.3145
15191TIP3   OH267063   6.094   3.227  13.499 -1.2026  0.2078 -0.1079
15191TIP3    H167064   6.119   3.298  13.440  1.5257  0.3267  1.0451
15191TIP3    H267065   6.153   3.236  13.574 -1.3200 -2.7702  0.4613
15192TIP3   OH267066   6.408   4.873  15.409  0.0110 -0.3458 -0.3344
15192TIP3    H167067   6.460   4.833  15.479  1.4129  0.7057 -0.7299
15192TIP3    H267068   6.399   4.804  15.344 -1.4847 -1.4105  0.9132
15193TIP3   OH267069   5.455   4.105   4.794  0.3267  0.0659 -0.8814
15193TIP3    H167070   5.488   4.079   4.880 -0.0791  1.8151 -0.1447
15193TIP3    H267071   5.527   4.085   4.733  1.1465  0.0459  0.0681
15194TIP3   OH267072   1.503   1.943   5.242  0.0294  0.2856  0.0150
15194TIP3    H167073   1.543   1.961   5.327  2.1727  2.3968 -1.3232
15194TIP3    H267074   1.410   1.930   5.262  0.6365 -0.4673  2.7720
15195TIP3   OH267075   1.995   3.699   3.533 -0.2246  0.1760 -0.2235
15195TIP3    H167076   2.027   3.788   3.516  1.2276 -0.3555 -0.3972
15195TIP3    H267077   2.066   3.656   3.580 -0.3370 -1.3081 -1.3288
15196TIP3   OH267078   6.285   1.034  13.659 -0.2615 -0.2930 -0.5854
15196TIP3    H167079   6.229   1.016  13.583 -0.5435 -0.6299 -0.2989
15196TIP3    H267080   6.374   1.021  13.627 -0.3219  0.5035 -1.1204
15197TIP3   OH267081   6.178   3.720  12.257  0.1873 -0.3228  0.2732
15197TIP3    H167082   6.179   3.667  12.176 -0.4643  0.0935 -0.0089
15197TIP3    H267083   6.119   3.673  12.316 -0.2313 -0.0262  0.0953
15198TIP3   OH267084   4.074   2.241  13.047  0.2690 -0.1771 -0.2213
15198TIP3    H167085   3.991   2.213  13.008 -0.5459 -0.4179  1.6114
15198TIP3    H267086   4.103   2.166  13.099  0.1842  0.8585  1.3907
15199TIP3   OH267087   1.428   2.491  11.326  0.4057  0.2181  0.3170
15199TIP3    H167088   1.485   2.441  11.268  0.9686  0.0853  0.9652
15199TIP3    H267089   1.351   2.511  11.273  1.2689  0.8600 -0.7534
15200TIP3   OH267090   4.358   3.356   3.916 -0.3833 -0.1379  0.0750
15200TIP3    H167091   4.307   3.281   3.887  1.2113 -1.0061 -0.6256
15200TIP3    H267092   4.366   3.345   4.011  0.6183 -1.4082 -0.1286
15201TIP3   OH267093   0.311   1.381   4.342 -0.5721  0.2065  0.2926
15201TIP3    H167094   0.403   1.365   4.324 -0.5770 -0.1747  0.5918
15201TIP3    H267095   0.280   1.433   4.268 -0.5908 -1.3144 -0.8032
15202TIP3   OH267096   1.561   5.013  16.687  0.3547 -0.2005 -0.0550
15202TIP3    H167097   1.480   5.034  16.641  0.6789  3.1812  0.6559
15202TIP3    H267098   1.611   4.960  16.625 -0.7193  1.1777 -2.2022
15203TIP3   OH267099   5.979   5.453   0.896  0.1772  0.1930 -0.6066
15203TIP3    H167100   5.986   5.476   0.989  0.0702 -0.8461 -0.3317
15203TIP3    H267101   5.895   5.409   0.889  0.7398 -0.8462 -0.9466
15204TIP3   OH267102   4.148   5.078  16.509 -0.4240  0.0657 -0.4253
15204TIP3    H167103   4.182   5.082  16.420 -1.3047 -2.3953 -0.9384
15204TIP3    H267104   4.079   5.145  16.512  0.4385  1.0139 -1.1760
15205TIP3   OH267105   0.029   3.582  12.022  0.7251  0.6626 -0.3671
15205TIP3    H167106   0.055   3.531  12.099 -6.4609  0.3326  2.6231
15205TIP3    H267107   0.049   3.672  12.046  2.3115  0.2882 -0.1343
15206TIP3   OH267108   6.369   4.924  12.210  0.3985 -0.1367 -0.4621
15206TIP3    H167109   6.383   4.979  12.133 -2.0436  1.5374  0.1685
15206TIP3    H267110   6.289   4.876  12.191  0.8292 -1.1697  0.2693
15207TIP3   OH267111   2.637   4.327   2.194  0.0997  0.7361  0.1344
15207TIP3    H167112   2.564   4.389   2.186 -1.6777 -0.9231  2.2149
15207TIP3    H267113   2.596   4.244   2.216  2.5832 -0.5597  0.2359
15208TIP3   OH267114   6.019   0.102  12.984  0.2890 -0.4739 -0.6676
15208TIP3    H167115   6.005   0.124  12.892 -0.2319 -1.3964 -0.8210
15208TIP3    H267116   6.026   0.007  12.985 -2.1348 -0.7305  0.5266
15209TIP3   OH267117   0.048   2.204   0.497 -0.4039 -0.3151 -0.2052
15209TIP3    H167118   0.008   2.244   0.574 -0.4105 -0.0927 -0.3229
15209TIP3    H267119   0.017   2.258   0.423  0.2263 -0.0471 -0.2827
15210TIP3   OH267120   4.515   3.632   0.890 -0.3114  0.4057  0.3552
15210TIP3    H167121   4.478   3.544   0.887 -0.8872  0.6632 -0.5214
15210TIP3    H267122   4.466   3.676   0.960 -1.0707  0.4727 -0.2018
15211TIP3   OH267123   4.712   4.968   1.235  0.0251  0.6349  0.1735
15211TIP3    H167124   4.657   5.012   1.171  0.3952 -0.4897 -0.9646
15211TIP3    H267125   4.667   4.885   1.253  0.4584  0.4756  0.5592
15212TIP3   OH267126   3.426   3.102  13.090  0.1614 -0.4504  0.3462
15212TIP3    H167127   3.358   3.036  13.101  0.0433 -0.3169  0.4206
15212TIP3    H267128   3.379   3.182  13.067  0.1054  0.1504  2.3458
15213TIP3   OH267129   6.771   3.071   3.882 -0.0969  0.5414  0.0904
15213TIP3    H167130   6.799   3.162   3.891  0.7726  0.2908 -0.0326
15213TIP3    H267131   6.785   3.050   3.790 -1.7028  0.7244 -0.2217
15214TIP3   OH267132   6.415   0.109   5.691  0.1863  0.1025 -0.5039
15214TIP3    H167133   6.446   0.153   5.612 -1.7012  0.1442 -1.2864
15214TIP3    H267134   6.444   0.164   5.763 -0.8185  1.8638 -1.3835
15215TIP3   OH267135   1.691   6.663  15.351  0.2034 -0.2210  0.3506
15215TIP3    H167136   1.738   6.619  15.281  0.9537 -1.2627  1.4654
15215TIP3    H267137   1.646   6.736  15.308  0.7988 -0.7074 -1.1569
15216TIP3   OH267138   6.660   4.080  17.037  0.1037  0.0106 -0.0541
15216TIP3    H167139   6.754   4.066  17.026  0.2475  0.7836  0.1179
15216TIP3    H267140   6.650   4.097  17.131  0.0722  1.7948 -0.3401
15217TIP3   OH267141   1.505   3.702   1.995 -0.0917  0.3321 -0.5969
15217TIP3    H167142   1.480   3.621   1.951 -1.5607 -0.1826  1.0694
15217TIP3    H267143   1.491   3.684   2.088  1.1165  1.9807 -0.0413
15218TIP3   OH267144   2.918   4.960  13.767  0.0339 -0.4124  0.3237
15218TIP3    H167145   2.828   4.964  13.735  0.2225  2.4620 -0.1120
15218TIP3    H267146   2.957   4.885  13.723 -1.5343 -0.3387 -1.2547
15219TIP3   OH267147   5.572   6.768   2.213  0.2089 -0.1942 -0.3764
15219TIP3    H167148   5.547   6.677   2.197  0.4550 -0.6768  1.7601
15219TIP3    H267149   5.615   6.796   2.132 -1.8482 -1.2187 -1.9281
15220TIP3   OH267150   1.224   1.347   1.636 -0.3726  0.3131  0.2305
15220TIP3    H167151   1.311   1.381   1.657 -0.9965  2.3903 -0.3905
15220TIP3    H267152   1.172   1.361   1.715 -0.1198 -1.2309  0.7200
15221TIP3   OH267153   1.180   1.011  11.716  0.5275 -0.3314 -0.2953
15221TIP3    H167154   1.204   1.084  11.773 -1.7568 -0.3053  0.7621
15221TIP3    H267155   1.170   0.936  11.774 -3.2041  0.0014 -0.2551
15222TIP3   OH267156   4.865   0.250  11.011 -0.0849  0.2542 -0.7467
15222TIP3    H167157   4.896   0.249  11.101  0.6549  1.5684 -0.9672
15222TIP3    H267158   4.777   0.212  11.015  0.8601 -2.0333  0.1379
15223TIP3   OH267159   5.856   0.648  14.451  0.5859  0.0529  0.2594
15223TIP3    H167160   5.814   0.583  14.508  0.4912  0.1686  0.3222
15223TIP3    H267161   5.850   0.610  14.363 -2.1058  1.2531 -0.1617
15224TIP3   OH267162   5.372   3.299   5.483 -0.6321 -0.3226 -0.4963
15224TIP3    H167163   5.431   3.233   5.447 -0.6356 -0.2401 -0.6538
15224TIP3    H267164   5.429   3.359   5.531 -0.7284 -0.9515  0.4300
15225TIP3   OH267165   0.992   5.412   3.213 -0.3346 -0.5896 -0.0880
15225TIP3    H167166   0.981   5.507   3.207  0.7364 -0.3022  1.7535
15225TIP3    H267167   1.051   5.399   3.287 -0.6541 -2.7165 -0.1361
15226TIP3   OH267168   3.425   3.113  15.114  0.4588 -0.5192  0.3027
15226TIP3    H167169   3.380   3.194  15.089  1.4072 -0.0032  0.2339
15226TIP3    H267170   3.445   3.070  15.031  2.9236  0.8235  0.1036
15227TIP3   OH267171   6.574   1.992   6.030 -0.8166 -0.1882 -0.3039
15227TIP3    H167172   6.588   2.015   6.122 -1.0159  0.3352 -0.4067
15227TIP3    H267173   6.521   1.912   6.033 -0.7902 -0.1920  0.0349
15228TIP3   OH267174   1.661   0.728   3.659  0.0469  0.9118 -0.1059
15228TIP3    H167175   1.698   0.700   3.576  0.6296 -0.5528  0.6015
15228TIP3    H267176   1.598   0.796   3.636  1.0817  1.4160 -1.6086
15229TIP3   OH267177   4.510   6.559  14.444  0.0820  0.1844 -0.0875
15229TIP3    H167178   4.492   6.554  14.537 -0.5448  0.5317 -0.1840
15229TIP3    H267179   4.446   6.622  14.410  1.9809  2.1335 -0.3228
15230TIP3   OH267180   3.766   2.231  13.546  0.0675  0.1670  0.3826
15230TIP3    H167181   3.851   2.204  13.510 -0.5677 -2.2010  0.4820
15230TIP3    H267182   3.784   2.248  13.639  0.7262  1.3531  0.0589
15231TIP3   OH267183   6.336   6.699   4.289 -0.0113 -0.2414 -0.3879
15231TIP3    H167184   6.254   6.649   4.295 -0.1993  0.1047 -0.0397
15231TIP3    H267185   6.343   6.743   4.373 -0.0138  0.5785 -0.8034
15232TIP3   OH267186   0.466   4.614   3.260  0.5036 -0.3005 -0.2485
15232TIP3    H167187   0.402   4.581   3.323 -1.3121 -1.0927 -2.3593
15232TIP3    H267188   0.533   4.546   3.254  1.0863  0.1111  1.3065
15233TIP3   OH267189   2.645   1.899   1.874 -0.1144 -0.0619 -0.0026
15233TIP3    H167190   2.680   1.842   1.806  2.1664  0.9699  0.2073
15233TIP3    H267191   2.704   1.886   1.948 -0.6510  1.1673  0.6620
15234TIP3   OH267192   2.096   6.178  15.018  0.0836 -0.2835 -0.2063
15234TIP3    H167193   2.086   6.255  14.961  1.2275 -1.3334 -1.9437
15234TIP3    H267194   2.187   6.152  15.005  0.4177 -0.5218  2.2650
15235TIP3   OH267195   0.376   2.859  13.484  0.6225  0.2011 -0.5619
15235TIP3    H167196   0.380   2.954  13.473  0.9640  0.1835 -0.5981
15235TIP3    H267197   0.452   2.825  13.436  1.5369  0.0507  0.9115
15236TIP3   OH267198   3.231   4.531   1.600  0.0773  0.4964  0.3853
15236TIP3    H167199   3.227   4.557   1.509  2.1463  1.4323  0.5037
15236TIP3    H267200   3.156   4.574   1.641 -0.4571  0.6415 -0.7099
15237TIP3   OH267201   0.764   1.413  14.002 -0.1223  0.1890  0.0990
15237TIP3    H167202   0.688   1.392  14.056 -0.1797  1.3649  0.5131
15237TIP3    H267203   0.838   1.375  14.048 -0.5013 -1.5510 -0.6500
15238TIP3   OH267204   1.200   5.289  15.843  0.0091  0.6678 -0.0507
15238TIP3    H167205   1.183   5.328  15.928 -0.0901  1.7664 -0.5588
15238TIP3    H267206   1.186   5.195  15.856 -1.0070  0.9397  0.8807
15239TIP3   OH267207   5.812   2.226   5.117  0.2716 -0.4108  0.1831
15239TIP3    H167208   5.828   2.169   5.193 -0.8146  0.7147  1.3097
15239TIP3    H267209   5.833   2.172   5.042  1.4642 -1.5583  1.2837
15240TIP3   OH267210   1.412   4.403  13.256 -0.5932 -0.0052  0.1859
15240TIP3    H167211   1.469   4.456  13.312  0.9724  0.3741 -1.6607
15240TIP3    H267212   1.470   4.371  13.186 -2.1424 -1.6847 -0.4164
15241TIP3   OH267213   6.106   5.499  14.181 -0.6417  0.1670 -0.1699
15241TIP3    H167214   6.038   5.560  14.152 -0.2424  1.9953  2.3553
15241TIP3    H267215   6.169   5.555  14.228  0.7416 -1.9536  0.6445
15242TIP3   OH267216   2.704   2.353  11.675  0.6574  0.6668  0.0557
15242TIP3    H167217   2.752   2.435  11.678  2.5517 -0.3834 -0.1696
15242TIP3    H267218   2.771   2.285  11.676 -0.5828 -0.8620 -3.2649
15243TIP3   OH267219   3.908   0.643   2.037 -0.2251  0.1035 -0.0988
15243TIP3    H167220   3.943   0.556   2.055 -0.4589  0.2293  1.0188
15243TIP3    H267221   3.813   0.633   2.042 -0.2792  0.9919  3.2243
15244TIP3   OH267222   1.199   5.810   3.881  0.4091 -0.2774 -0.6748
15244TIP3    H167223   1.149   5.782   3.804 -1.5187 -0.0190  0.4426
15244TIP3    H267224   1.186   5.741   3.945 -0.4149  0.8435  0.4184
15245TIP3   OH267225   0.716   4.568  16.501  0.3342 -0.6729 -0.1109
15245TIP3    H167226   0.802   4.598  16.471  0.4231  1.6634  2.1989
15245TIP3    H267227   0.727   4.551  16.594 -1.6061 -0.8242  0.1343
15246TIP3   OH267228   3.012   0.441   1.605  0.1812 -0.0917 -0.2691
15246TIP3    H167229   3.066   0.520   1.612  1.3137 -0.5948 -2.3489
15246TIP3    H267230   2.922   0.474   1.607  0.5910  1.0412  0.6680
15247TIP3   OH267231   6.021   2.081   3.489  0.5749 -0.3642 -0.2536
15247TIP3    H167232   5.977   2.166   3.489  0.2753 -0.4290  2.6034
15247TIP3    H267233   5.959   2.022   3.448 -2.6921 -0.6301  4.3245
15248TIP3   OH267234   3.178   4.104   1.953  0.7143 -0.3324  0.0228
15248TIP3    H167235   3.156   4.177   2.010  0.0983  0.5549 -1.3090
15248TIP3    H267236   3.094   4.077   1.915  1.0699 -1.0869 -0.2539
15249TIP3   OH267237   6.176   1.987  15.669  0.4390  0.4150  0.5144
15249TIP3    H167238   6.209   1.965  15.756  1.0132 -0.8013  0.0072
15249TIP3    H267239   6.225   1.931  15.610  1.4413  2.5522 -0.8048
15250TIP3   OH267240   0.930   1.091  15.980 -0.5186 -0.4254 -0.1208
15250TIP3    H167241   1.016   1.060  16.007 -0.8182 -2.0101 -0.8755
15250TIP3    H267242   0.947   1.141  15.900 -0.3665 -1.4196 -0.7261
15251TIP3   OH267243   0.125   4.723  11.677 -0.4105  0.4730  0.2716
15251TIP3    H167244   0.123   4.807  11.632  0.4203 -0.3577 -1.3786
15251TIP3    H267245   0.037   4.713  11.713 -1.0654  1.2216 -1.0758
15252TIP3   OH267246   4.506   3.192  13.082 -0.0845  0.3417  0.3391
15252TIP3    H167247   4.536   3.104  13.104 -0.7085  0.4117  1.5268
15252TIP3    H267248   4.557   3.215  13.004 -1.0270 -1.6763 -0.9778
15253TIP3   OH267249   6.434   4.435  16.507 -0.5395 -0.1867 -0.0799
15253TIP3    H167250   6.395   4.453  16.422  0.6488  0.9123 -0.4207
15253TIP3    H267251   6.527   4.457  16.497 -0.2049 -0.8156  1.2666
15254TIP3   OH267252   5.230   2.851  14.663  0.3019 -0.6293 -0.7409
15254TIP3    H167253   5.226   2.861  14.568  0.0552  0.7945 -0.6043
15254TIP3    H267254   5.153   2.800  14.685 -0.5415  0.4304 -1.1581
15255TIP3   OH267255   1.682   1.396  16.476 -0.4989 -0.5849 -0.1553
15255TIP3    H167256   1.717   1.409  16.564 -0.9688 -0.7385  0.0553
15255TIP3    H267257   1.631   1.315  16.482 -1.3256 -0.0877 -0.3267
15256TIP3   OH267258   0.313   1.042  14.781  0.0924  0.3861  0.0420
15256TIP3    H167259   0.408   1.055  14.790  0.2712 -0.0769 -1.0243
15256TIP3    H267260   0.297   1.046  14.686 -0.7762 -0.6700  0.1173
15257TIP3   OH267261   0.225   4.836  15.312 -0.5131  0.6231 -0.0868
15257TIP3    H167262   0.213   4.748  15.278  1.3620 -0.2595  1.3380
15257TIP3    H267263   0.271   4.883  15.243  2.0368 -0.7343  0.5761
15258TIP3   OH267264   4.655   5.662   6.609 -0.0166 -0.5609 -0.0650
15258TIP3    H167265   4.689   5.626   6.692 -0.1584 -0.7470 -0.0874
15258TIP3    H267266   4.634   5.585   6.557  1.3576 -0.4567 -0.8137
15259TIP3   OH267267   5.231   3.127  16.260  0.5647  0.4898 -0.2109
15259TIP3    H167268   5.260   3.046  16.301  3.4661  1.6730  0.3628
15259TIP3    H267269   5.145   3.144  16.297  0.8660 -1.1726  1.3951
15260TIP3   OH267270   4.561   4.538  16.637  0.4219  0.4589 -0.1700
15260TIP3    H167271   4.502   4.572  16.569 -0.6464 -2.2418 -0.7543
15260TIP3    H267272   4.538   4.588  16.716 -1.4785  0.6651 -0.7934
15261TIP3   OH267273   2.725   0.461   5.322  0.0514  0.1218  0.5202
15261TIP3    H167274   2.648   0.509   5.290  0.6810 -0.0987 -1.4445
15261TIP3    H267275   2.724   0.476   5.417 -3.3750 -1.2942  0.8754
15262TIP3   OH267276   3.760   5.101  13.339 -0.3002  0.0831  0.4384
15262TIP3    H167277   3.742   5.025  13.394 -1.9714  0.7116  0.8500
15262TIP3    H267278   3.767   5.066  13.251 -0.0357 -0.6552  0.7441
15263TIP3   OH267279   2.792   2.238  15.577  0.5841  0.5645  0.5725
15263TIP3    H167280   2.867   2.271  15.626  1.8624 -1.8656  0.3972
15263TIP3    H267281   2.722   2.233  15.642  1.4641 -0.0240  1.5032
15264TIP3   OH267282   1.105   3.445   3.510 -0.1662 -0.3818  0.5420
15264TIP3    H167283   1.194   3.478   3.499  0.0981 -1.2530 -0.0538
15264TIP3    H267284   1.059   3.515   3.556  0.6283  0.3835  0.1958
15265TIP3   OH267285   5.679   2.133   5.659 -0.1534 -0.1831 -0.0710
15265TIP3    H167286   5.696   2.170   5.572  0.7707  0.2084  0.2678
15265TIP3    H267287   5.608   2.186   5.694  0.6757  0.8218  0.1213
15266TIP3   OH267288   2.283   4.249   0.826  0.6497  0.3123  0.0380
15266TIP3    H167289   2.262   4.236   0.918  0.3726  0.1302 -0.0468
15266TIP3    H267290   2.296   4.343   0.817  0.1670  0.3963  0.1649
15267TIP3   OH267291   4.463   4.922  12.933  0.2722  0.0280  0.2345
15267TIP3    H167292   4.413   4.972  12.999  0.2826  0.2551  0.0724
15267TIP3    H267293   4.451   4.972  12.852 -3.0671 -2.3100 -0.9369
15268TIP3   OH267294   6.714   4.344   2.385 -0.2564  0.5304  0.5291
15268TIP3    H167295   6.769   4.274   2.348 -0.8253  0.0581  0.5674
15268TIP3    H267296   6.771   4.387   2.448 -0.1172 -0.3763  1.0453
15269TIP3   OH267297   0.621   3.420  12.385  0.1852  0.4544 -0.2507
15269TIP3    H167298   0.701   3.408  12.438  1.6928 -0.3378 -2.5583
15269TIP3    H267299   0.638   3.500  12.335 -1.3079  1.3010  0.5226
15270TIP3   OH267300   4.072   6.183  16.862 -0.3617  0.3647 -0.0716
15270TIP3    H167301   4.021   6.262  16.844 -1.0390 -0.2915 -1.1359
15270TIP3    H267302   4.064   6.130  16.783  0.8217 -0.3890  0.2786
15271TIP3   OH267303   0.825   0.496   1.778  1.0816 -0.2369  0.1140
15271TIP3    H167304   0.874   0.568   1.817  1.2539 -0.6349  0.6437
15271TIP3    H267305   0.855   0.492   1.687 -0.7289  1.9777 -0.6983
15272TIP3   OH267306   5.709   1.569  11.323 -0.2871  0.3961 -0.2540
15272TIP3    H167307   5.792   1.523  11.336 -0.9786 -1.0291 -0.6794
15272TIP3    H267308   5.644   1.512  11.363 -1.0004  1.9565  0.9508
15273TIP3   OH267309   1.217   2.547  13.417 -0.1255  0.1361  0.0731
15273TIP3    H167310   1.130   2.521  13.387  0.0116 -0.5448  0.2584
15273TIP3    H267311   1.265   2.465  13.427  0.3647  0.4705  0.5169
15274TIP3   OH267312   1.898   5.780   4.776  0.1019 -0.3042 -0.6271
15274TIP3    H167313   1.847   5.705   4.809  0.4825 -0.3385 -0.0917
15274TIP3    H267314   1.842   5.821   4.711  0.1804 -1.4856 -1.4596
15275TIP3   OH267315   4.027   5.733  15.811  0.3626 -0.2374  0.2062
15275TIP3    H167316   3.939   5.723  15.774  0.5408 -1.8956  0.1598
15275TIP3    H267317   4.082   5.758  15.737  0.1983 -0.7320 -0.0907
15276TIP3   OH267318   3.083   3.897  15.775  0.0363  0.0342  0.4597
15276TIP3    H167319   3.053   3.865  15.861 -2.5934  1.9909  0.4006
15276TIP3    H267320   3.041   3.982  15.765  1.5092  0.5684 -2.1535
15277TIP3   OH267321   4.685   0.469  11.804 -0.3385 -0.4000  0.4700
15277TIP3    H167322   4.778   0.488  11.819  0.0079 -1.6895  0.1246
15277TIP3    H267323   4.644   0.554  11.793  0.6313  0.2458  1.6063
15278TIP3   OH267324   3.765   6.150   2.499  0.3086  0.6903  0.2117
15278TIP3    H167325   3.736   6.186   2.415  3.6585 -0.2843 -1.5557
15278TIP3    H267326   3.809   6.223   2.542  0.1625  0.7383  0.2782
15279TIP3   OH267327   3.510   3.863   5.415 -0.2234 -0.0590 -0.7204
15279TIP3    H167328   3.570   3.900   5.480 -0.5752  1.0842 -1.0094
15279TIP3    H267329   3.488   3.776   5.448 -1.5780  1.0375  1.4763
15280TIP3   OH267330   2.168   1.774  16.540 -0.4614  0.6346  0.2490
15280TIP3    H167331   2.204   1.847  16.489  1.1322 -0.0187  0.3776
15280TIP3    H267332   2.112   1.727  16.478  0.6216  0.4511 -0.6089
15281TIP3   OH267333   5.662   4.866  14.792 -0.2201  0.3241  0.4874
15281TIP3    H167334   5.726   4.828  14.733  0.6940  3.2003 -0.4902
15281TIP3    H267335   5.688   4.835  14.879  0.5867 -1.0236 -0.2044
15282TIP3   OH267336   1.311   1.738   0.478  0.0505  0.2531 -0.6086
15282TIP3    H167337   1.237   1.695   0.521 -0.8867  2.1461 -0.2138
15282TIP3    H267338   1.270   1.792   0.411  1.2685 -0.2223 -1.7601
15283TIP3   OH267339   0.219   0.078  15.513  0.9163  0.1104 -0.1221
15283TIP3    H167340   0.296   0.090  15.458  0.1407 -1.7603 -1.7776
15283TIP3    H267341   0.251   0.083  15.602  2.5180  1.7256 -0.7342
15284TIP3   OH267342   2.184   5.598  15.033 -0.4771 -0.0903 -0.0699
15284TIP3    H167343   2.271   5.560  15.028 -0.4552 -0.0037 -0.4021
15284TIP3    H267344   2.188   5.674  14.975 -0.9961 -0.5266 -0.6931
15285TIP3   OH267345   2.140   0.256   6.075 -0.7156  0.2300  0.5320
15285TIP3    H167346   2.051   0.291   6.078 -0.3081  1.6368 -1.7718
15285TIP3    H267347   2.196   0.330   6.099 -0.0174  0.3865 -1.3769
15286TIP3   OH267348   4.659   0.712  11.687  0.0172 -0.5161  0.3503
15286TIP3    H167349   4.644   0.791  11.739  1.2491 -0.3054  0.4098
15286TIP3    H267350   4.572   0.689  11.652 -0.4342  0.5733  0.7256
15287TIP3   OH267351   0.221   2.420   3.311  0.6283  0.8292 -0.1443
15287TIP3    H167352   0.155   2.432   3.379  0.0862  0.3172 -0.5670
15287TIP3    H267353   0.207   2.494   3.252  0.3861  0.6911 -0.2640
15288TIP3   OH267354   1.760   3.711  11.650  0.1152 -0.3973 -0.0005
15288TIP3    H167355   1.708   3.764  11.710 -0.2803 -0.3118 -0.4091
15288TIP3    H267356   1.793   3.774  11.585  2.8289 -0.0014  1.6160
15289TIP3   OH267357   3.423   1.931  12.519 -0.5381 -0.4277  0.7878
15289TIP3    H167358   3.402   1.849  12.565  1.6167 -0.4682  1.8468
15289TIP3    H267359   3.519   1.936  12.523 -0.4301  0.8532 -1.5801
15290TIP3   OH267360   0.825   5.192   2.017  0.5422 -0.1258  0.0654
15290TIP3    H167361   0.737   5.181   1.980  0.8684  0.0836 -0.7959
15290TIP3    H267362   0.813   5.253   2.090 -0.1366 -0.6647  0.4212
15291TIP3   OH267363   4.370   5.130  14.005  0.4210 -0.2065  0.2372
15291TIP3    H167364   4.445   5.145  14.062  1.4242 -1.8913 -0.5317
15291TIP3    H267365   4.294   5.156  14.056  1.3623 -0.6323  1.9104
15292TIP3   OH267366   6.787   1.657   4.450  0.0101  0.1914 -0.4786
15292TIP3    H167367   6.693   1.669   4.437  0.0644 -1.0929 -2.2952
15292TIP3    H267368   6.806   1.708   4.529 -2.6225 -1.4079  1.3376
15293TIP3   OH267369   3.226   0.519  16.523 -0.7373 -0.2871  0.1182
15293TIP3    H167370   3.227   0.499  16.429 -2.0408  1.4703 -0.3166
15293TIP3    H267371   3.133   0.528  16.544 -0.3850  1.2648  1.1234
15294TIP3   OH267372   2.300   4.779  14.469  0.0174 -0.5289  1.0674
15294TIP3    H167373   2.349   4.698  14.481 -0.7141 -0.7933  2.6202
15294TIP3    H267374   2.231   4.775  14.536  0.5970  1.8381  1.8967
15295TIP3   OH267375   0.183   2.170   3.075  0.1973 -0.1356 -0.1035
15295TIP3    H167376   0.091   2.147   3.081 -0.4235  2.2225  0.4251
15295TIP3    H267377   0.221   2.140   3.157 -0.0371 -1.2582 -0.3887
15296TIP3   OH267378   3.731   0.990   1.184 -0.2137  0.0090 -0.1917
15296TIP3    H167379   3.646   1.033   1.175  0.1990  0.6088 -1.4691
15296TIP3    H267380   3.795   1.057   1.158  0.6540 -0.4530  0.6867
15297TIP3   OH267381   2.470   2.024   2.278  0.1527  0.1440 -0.1111
15297TIP3    H167382   2.464   2.119   2.266  0.0383  0.2708  0.9050
15297TIP3    H267383   2.563   2.004   2.269  0.3721  0.5578  1.0579
15298TIP3   OH267384   5.931   1.398  15.939 -0.2490  0.3015 -0.0615
15298TIP3    H167385   5.928   1.426  15.847  1.6127  0.3852 -0.1419
15298TIP3    H267386   6.016   1.428  15.970 -0.6125 -0.2231  1.5510
15299TIP3   OH267387   3.138   0.796  15.096  0.2201 -0.5781  0.1147
15299TIP3    H167388   3.116   0.889  15.086 -1.2390 -0.9191 -0.0679
15299TIP3    H267389   3.142   0.762  15.007 -0.8093 -1.0045  0.2098
15300TIP3   OH267390   3.607   1.330  16.473 -0.8024 -0.0885 -0.3212
15300TIP3    H167391   3.648   1.259  16.424 -2.2626 -1.0321 -0.2304
15300TIP3    H267392   3.516   1.304  16.481 -1.6537  2.3023 -1.2320
15301TIP3   OH267393   6.565   6.032   1.736 -0.0942  0.2160  0.0648
15301TIP3    H167394   6.577   6.077   1.819 -0.5040  0.0910  0.1975
15301TIP3    H267395   6.512   6.093   1.683  0.6696  0.5510 -0.3262
15302TIP3   OH267396   6.331   0.103   0.561  0.1316 -0.2897 -0.3498
15302TIP3    H167397   6.291   0.074   0.643 -0.3764 -1.7353 -1.0621
15302TIP3    H267398   6.257   0.134   0.509  0.5324  1.2985 -0.0443
15303TIP3   OH267399   4.635   5.845   1.411 -0.0242  0.3461 -0.3742
15303TIP3    H167400   4.591   5.835   1.495  0.3384  1.4602 -0.0345
15303TIP3    H267401   4.697   5.917   1.425 -0.4566  1.0176 -1.7880
15304TIP3   OH267402   2.062   5.314   2.080  0.4239 -0.4849  0.2879
15304TIP3    H167403   2.044   5.393   2.029 -0.0925  0.4395  1.8143
15304TIP3    H267404   1.977   5.286   2.113  0.9119  0.1187  2.2207
15305TIP3   OH267405   5.388   0.322   5.332  0.7529  0.7547  0.4764
15305TIP3    H167406   5.412   0.293   5.420  0.0674  0.3361  0.5325
15305TIP3    H267407   5.307   0.274   5.312  1.1777  0.4422 -0.5860
15306TIP3   OH267408   3.900   4.211   6.252 -0.6997 -0.4774  0.1438
15306TIP3    H167409   3.912   4.305   6.234  0.7305 -0.5956  0.4016
15306TIP3    H267410   3.901   4.170   6.165 -1.7602 -0.2404 -0.0053
15307TIP3   OH267411   4.316   0.406  15.570 -0.0687 -0.5385  0.4139
15307TIP3    H167412   4.266   0.484  15.545 -1.7909 -1.4976  0.6908
15307TIP3    H267413   4.299   0.396  15.664  2.0087  0.0074  0.9001
15308TIP3   OH267414   2.572   0.687  16.676 -0.6602  0.0067  0.5360
15308TIP3    H167415   2.569   0.652  16.765  0.2770  0.0911  0.6113
15308TIP3    H267416   2.644   0.750  16.677  1.3380 -2.0712 -0.9820
15309TIP3   OH267417   0.718   0.518  16.188  0.0287  0.5787  0.0091
15309TIP3    H167418   0.802   0.547  16.222  0.1516  1.4362 -0.9844
15309TIP3    H267419   0.736   0.435  16.145  0.7259  1.5564 -1.6591
15310TIP3   OH267420   0.827   4.948   0.078 -0.4906  0.2771  0.0890
15310TIP3    H167421   0.768   4.874   0.072 -2.2155  1.5209  0.8065
15310TIP3    H267422   0.820   4.993  -0.006  1.4700 -0.9733 -0.7986
15311TIP3   OH267423   0.457   5.010   1.653 -0.2787 -0.2016  0.0557
15311TIP3    H167424   0.519   5.082   1.643  0.9438 -1.4551 -2.1135
15311TIP3    H267425   0.417   5.000   1.566 -1.9138 -0.8762  0.8329
15312TIP3   OH267426   4.638   6.033  11.227  0.2485  0.2576  0.0067
15312TIP3    H167427   4.671   6.119  11.200  0.9104 -0.2700 -0.9460
15312TIP3    H267428   4.709   5.973  11.205 -0.1722 -0.5315  0.7423
15313TIP3   OH267429   3.420   4.022  15.197 -0.0681 -0.2069  0.0868
15313TIP3    H167430   3.485   3.957  15.171  0.0126 -0.1957  0.2605
15313TIP3    H267431   3.471   4.103  15.210 -0.1596 -0.1217 -0.0734
15314TIP3   OH267432   4.921   3.183   4.014 -0.4552  0.0882 -0.0422
15314TIP3    H167433   4.989   3.175   3.948 -1.4775 -0.9452 -1.0241
15314TIP3    H267434   4.888   3.272   4.006 -1.1537 -0.2806 -1.5635
15315TIP3   OH267435   2.285   1.332   0.057  0.3188  0.0202 -0.6473
15315TIP3    H167436   2.230   1.322  -0.020  0.0666  2.2294 -0.8074
15315TIP3    H267437   2.226   1.320   0.131  0.5631 -2.1086 -0.7320
15316TIP3   OH267438   6.665   4.977  14.384  0.2307  0.4091  0.0961
15316TIP3    H167439   6.614   4.901  14.355 -1.0218  0.6717  1.4535
15316TIP3    H267440   6.695   5.019  14.303  0.3083 -1.1034 -0.6808
15317TIP3   OH267441   4.282   3.985   3.892 -0.1474 -0.1319  0.4760
15317TIP3    H167442   4.193   3.983   3.928  0.1509  1.8636  1.4405
15317TIP3    H267443   4.339   3.969   3.967  0.3668  0.7023  0.2757
15318TIP3   OH267444   1.618   1.282  12.672  0.1284 -0.1628  0.2450
15318TIP3    H167445   1.620   1.193  12.707  2.6671 -0.9109 -1.4995
15318TIP3    H267446   1.577   1.273  12.585 -0.7453  0.6295  0.5553
15319TIP3   OH267447   5.650   4.841   0.248  0.2461  0.1742 -0.0503
15319TIP3    H167448   5.701   4.782   0.193 -0.4801  1.2164 -1.9137
15319TIP3    H267449   5.674   4.817   0.338  1.3424 -1.6812 -0.7960
15320TIP3   OH267450   2.647   2.015  17.203  0.1771 -0.3710 -0.2462
15320TIP3    H167451   2.565   2.021  17.153 -0.6523 -0.4923  1.0550
15320TIP3    H267452   2.705   2.078  17.161 -1.0144  0.6543 -0.4141
15321TIP3   OH267453   3.162   0.910  14.256 -0.5881  0.1502 -0.0543
15321TIP3    H167454   3.097   0.948  14.314 -0.3759  0.2525  0.1152
15321TIP3    H267455   3.145   0.815  14.259  0.8665 -0.1160  1.9594
15322TIP3   OH267456   4.915   5.430  16.985 -0.4028  0.5634 -0.7748
15322TIP3    H167457   4.959   5.383  17.055 -0.5500  2.8367  0.9740
15322TIP3    H267458   4.984   5.447  16.921  0.3017  0.4779 -0.0581
15323TIP3   OH267459   5.907   5.978   1.577  0.1791  0.1297 -0.1975
15323TIP3    H167460   5.933   6.064   1.610 -0.9060  0.4652 -0.1778
15323TIP3    H267461   5.881   5.994   1.487 -1.0217  0.0338  0.1160
15324TIP3   OH267462   4.024   6.338   2.941 -0.6558  0.5486  0.5941
15324TIP3    H167463   4.055   6.427   2.960  0.7882  0.1289  0.3589
15324TIP3    H267464   4.080   6.308   2.869  0.3240 -1.3026  2.0452
15325TIP3   OH267465   4.017   1.189  15.977  0.0550  0.2232  0.8164
15325TIP3    H167466   4.019   1.113  16.035  0.2183  0.1461  0.7123
15325TIP3    H267467   3.955   1.249  16.018 -0.2934 -0.0856  0.7487
15326TIP3   OH267468   5.974   0.567  16.534 -0.0652 -0.0298 -0.4107
15326TIP3    H167469   5.912   0.579  16.462 -0.4712 -2.2538 -0.5038
15326TIP3    H267470   5.919   0.546  16.609  0.5149 -2.0260 -0.4885
15327TIP3   OH267471   3.778   2.943  14.049 -0.3818 -0.0575  0.0221
15327TIP3    H167472   3.787   2.995  14.129 -1.1532  1.5524 -0.8959
15327TIP3    H267473   3.690   2.963  14.017 -0.0509 -0.5997 -1.2779
15328TIP3   OH267474   4.822   6.258  14.134  0.1672  0.2112  0.2475
15328TIP3    H167475   4.745   6.207  14.161  0.3373 -0.8104 -1.0907
15328TIP3    H267476   4.863   6.284  14.217 -2.1470  1.6922  1.0198
15329TIP3   OH267477   3.985   5.790   5.534  0.0393 -0.2735 -0.0018
15329TIP3    H167478   3.896   5.824   5.527 -0.9917 -2.3383  1.8971
15329TIP3    H267479   3.986   5.712   5.479  1.0647  0.3557 -0.9157
15330TIP3   OH267480   2.748   1.271  15.513  0.0998  0.1502  0.4710
15330TIP3    H167481   2.829   1.252  15.466 -0.0223 -0.0908  0.3521
15330TIP3    H267482   2.680   1.225  15.463 -0.0863  0.2096  0.6651
15331TIP3   OH267483   3.171   6.284  14.985 -0.3345 -0.1623 -0.0207
15331TIP3    H167484   3.080   6.308  14.967  0.2079  1.2564 -0.9727
15331TIP3    H267485   3.207   6.261  14.900  0.5957  0.7067  0.1234
15332TIP3   OH267486   5.172   3.939   0.230  0.8176 -0.1454  0.0912
15332TIP3    H167487   5.120   3.976   0.302  1.2131  0.9871 -0.1873
15332TIP3    H267488   5.126   3.968   0.151  0.7026 -0.9148 -0.1294
15333TIP3   OH267489   0.858   6.047  14.615 -0.2356 -0.1090 -0.4158
15333TIP3    H167490   0.790   6.114  14.621 -0.0787  0.1790 -1.5724
15333TIP3    H267491   0.827   5.976  14.671 -0.1504  1.1251  1.2932
15334TIP3   OH267492   6.799   6.746   0.061  0.2221  0.3460 -0.6173
15334TIP3    H167493   6.856   6.820   0.039  1.1928 -0.7421 -1.9845
15334TIP3    H267494   6.803   6.689  -0.016  0.3581 -1.6644  0.7894
15335TIP3   OH267495   5.480   4.333   2.221  0.0569 -0.5429 -0.1360
15335TIP3    H167496   5.394   4.306   2.253 -0.1933 -0.3839 -0.6677
15335TIP3    H267497   5.463   4.413   2.172  0.2367 -1.4484 -1.7200
15336TIP3   OH267498   4.614   1.998   2.241 -1.0525 -0.5636  0.5941
15336TIP3    H167499   4.593   2.057   2.313 -0.4163 -0.3580  0.6239
15336TIP3    H267500   4.647   2.056   2.172  2.0136 -1.0081  1.5106
15337TIP3   OH267501   0.104   6.610   5.345 -0.0380  0.1671  0.6813
15337TIP3    H167502   0.172   6.664   5.303  1.5627  1.1309  4.1621
15337TIP3    H267503   0.146   6.525   5.358 -1.0636 -0.6278 -0.9227
15338TIP3   OH267504   4.581   5.592  14.836  0.0025  0.1270 -0.3416
15338TIP3    H167505   4.541   5.555  14.758 -1.4510  0.0227  0.4193
15338TIP3    H267506   4.510   5.639  14.880  0.3925 -1.0173  1.6580
15339TIP3   OH267507   0.494   3.106  12.711  0.1234  0.1461 -0.7066
15339TIP3    H167508   0.429   3.168  12.678  1.3964  1.5332 -0.7128
15339TIP3    H267509   0.482   3.106  12.805 -0.7864 -0.6522 -0.8194
15340TIP3   OH267510   6.319   3.189  12.513 -0.1242 -0.3713  0.4725
15340TIP3    H167511   6.336   3.181  12.607 -1.1140 -0.3859  0.6627
15340TIP3    H267512   6.233   3.230  12.508 -0.7606 -1.7366 -0.4120
15341TIP3   OH267513   4.970   1.972  15.421 -0.3317 -0.7174 -0.2877
15341TIP3    H167514   4.951   1.969  15.514 -1.6687  0.2611 -0.5017
15341TIP3    H267515   4.994   2.063  15.404 -1.1837 -0.6239 -1.0739
15342TIP3   OH267516   5.182   4.448   3.300 -0.3733  0.4447  0.0062
15342TIP3    H167517   5.275   4.454   3.320 -0.5439 -0.7165  1.2649
15342TIP3    H267518   5.139   4.493   3.372 -0.8702 -1.1932  0.7761
15343TIP3   OH267519   1.476   0.212   2.660 -0.0142  0.5963  0.1726
15343TIP3    H167520   1.555   0.263   2.648  0.2973  0.4528  1.4525
15343TIP3    H267521   1.406   0.277   2.668  0.2435  0.7962  0.8456
15344TIP3   OH267522   2.868   2.031   2.868  0.4427  0.3934  0.8172
15344TIP3    H167523   2.937   1.970   2.895  0.3890  0.1572  0.4397
15344TIP3    H267524   2.915   2.106   2.831  0.5005 -0.4081 -0.8117
15345TIP3   OH267525   5.919   5.154  16.534 -0.7136 -0.2087  0.5446
15345TIP3    H167526   5.939   5.209  16.610 -0.4178 -0.4813  0.6638
15345TIP3    H267527   5.839   5.193  16.498 -0.8546 -0.0734  0.9892
15346TIP3   OH267528   1.455   6.139   0.137 -0.3814 -0.0800  0.1039
15346TIP3    H167529   1.527   6.107   0.083 -0.6728 -1.7478  0.6570
15346TIP3    H267530   1.398   6.063   0.150 -1.9393  1.0495  0.1792
15347TIP3   OH267531   1.414   4.702  17.005  0.6868  0.2188  0.1486
15347TIP3    H167532   1.468   4.781  17.005 -0.1271  1.2637  5.9766
15347TIP3    H267533   1.324   4.735  16.995  0.5614 -0.5442 -1.4799
15348TIP3   OH267534   4.149   0.724   2.419  0.2391 -0.7855 -0.8538
15348TIP3    H167535   4.059   0.751   2.432  0.4334 -0.5804  0.1414
15348TIP3    H267536   4.201   0.802   2.440  0.6526 -0.9265 -1.3291
15349TIP3   OH267537   0.642   1.425   1.193 -0.0682 -0.3032 -0.0989
15349TIP3    H167538   0.593   1.468   1.123  0.0296 -0.0515 -0.0139
15349TIP3    H267539   0.733   1.432   1.165 -0.1211 -1.4093 -0.6139
15350TIP3   OH267540   5.295   1.571  16.319  0.3123 -0.1713  0.1682
15350TIP3    H167541   5.255   1.563  16.405 -2.0579  0.3098 -0.8336
15350TIP3    H267542   5.333   1.484  16.302  1.0608 -0.1840  1.7793
15351TIP3   OH267543   3.970   6.413   5.005  0.2191  0.1851 -0.1027
15351TIP3    H167544   4.045   6.407   4.945  0.1518  0.1015 -0.1796
15351TIP3    H267545   4.007   6.449   5.086  0.1476  1.1751 -0.4870
15352TIP3   OH267546   5.881   0.632   5.381  0.1881 -0.2740  0.3052
15352TIP3    H167547   5.861   0.679   5.300  2.3829  0.3415  0.0618
15352TIP3    H267548   5.830   0.676   5.448  0.4128  0.9594 -0.3152
15353TIP3   OH267549   6.405   5.239   0.933  0.2112 -0.3558  0.0964
15353TIP3    H167550   6.471   5.266   0.997 -1.1511  0.7497  1.0778
15353TIP3    H267551   6.428   5.149   0.912  1.1252 -0.4983  1.5683
15354TIP3   OH267552   4.223   2.791  14.693 -0.0121  0.2810 -0.8415
15354TIP3    H167553   4.182   2.766  14.611 -0.1008  1.1568 -1.0713
15354TIP3    H267554   4.275   2.714  14.718 -1.0570 -0.5123 -1.0028
15355TIP3   OH267555   5.524   4.834  14.091  0.2509  0.0375  0.0377
15355TIP3    H167556   5.576   4.779  14.149 -1.0251 -1.6483 -0.3126
15355TIP3    H267557   5.533   4.793  14.005 -3.9801 -2.3831  0.4181
15356TIP3   OH267558   0.014   0.272   6.340  0.6004  0.5310  0.0012
15356TIP3    H167559  -0.028   0.192   6.373  1.5456 -1.1706 -2.5718
15356TIP3    H267560   0.060   0.308   6.416 -1.1310 -0.4835  1.6075
15357TIP3   OH267561   4.277   5.144   3.820  0.0164 -0.1459 -0.3534
15357TIP3    H167562   4.225   5.196   3.882  2.4710  3.2859 -0.8368
15357TIP3    H267563   4.213   5.111   3.757 -1.8878  1.3288  0.6742
15358TIP3   OH267564   4.975   5.042   0.057 -0.1372  0.2902 -0.3362
15358TIP3    H167565   5.040   5.058  -0.012  1.3745 -0.8962  0.7331
15358TIP3    H267566   4.974   5.122   0.108 -2.4597  1.8220 -2.5570
15359TIP3   OH267567   5.463   1.125  13.748  0.1322  0.3676 -0.3917
15359TIP3    H167568   5.470   1.105  13.841 -0.3313  0.8513 -0.2489
15359TIP3    H267569   5.369   1.120  13.729  0.3041 -0.7375 -1.0712
15360TIP3   OH267570   1.681   5.443  13.993  0.2261  0.7867  0.1262
15360TIP3    H167571   1.606   5.461  14.049 -1.3442 -0.9919 -1.3027
15360TIP3    H267572   1.682   5.515  13.929 -1.1560  0.1132 -0.6945
15361TIP3   OH267573   0.477   1.075   2.774 -0.2064 -0.6809 -0.2340
15361TIP3    H167574   0.520   1.007   2.825  0.7581 -0.0451 -0.1786
15361TIP3    H267575   0.546   1.111   2.718 -0.8853 -0.2932 -0.8346
15362TIP3   OH267576   4.644   6.344   2.313  0.0198 -1.0364 -0.3426
15362TIP3    H167577   4.637   6.438   2.331 -0.3810 -1.0104 -0.6417
15362TIP3    H267578   4.697   6.339   2.234 -0.2815 -1.0467 -0.5430
15363TIP3   OH267579   5.131   5.781   1.601  0.2449  1.1191 -0.5107
15363TIP3    H167580   5.065   5.719   1.633  1.5868  0.1433  0.5182
15363TIP3    H267581   5.211   5.728   1.593  1.0073  2.3474 -1.3252
15364TIP3   OH267582   1.782   6.540   5.475 -0.1600  0.2974  0.7545
15364TIP3    H167583   1.793   6.514   5.567  0.4417 -0.8564  0.3760
15364TIP3    H267584   1.857   6.500   5.430 -2.3357 -2.3303 -0.8634
15365TIP3   OH267585   1.833   0.920  12.879  0.4412  1.1774 -0.5807
15365TIP3    H167586   1.837   0.919  12.974  1.1595  1.8963 -0.5907
15365TIP3    H267587   1.750   0.877  12.857  0.9394 -0.3147  0.3147
15366TIP3   OH267588   0.777   2.702  15.190 -0.0455  0.4823 -0.3010
15366TIP3    H167589   0.795   2.697  15.283 -1.8544 -0.3080  0.0533
15366TIP3    H267590   0.759   2.795  15.174 -0.7982  0.4613  0.3800
15367TIP3   OH267591   3.767   3.998  11.032  0.8951 -0.4362  0.2587
15367TIP3    H167592   3.845   3.973  11.080  0.7972 -0.2638  0.5054
15367TIP3    H267593   3.719   4.056  11.091  0.6935 -0.3573  0.0202
15368TIP3   OH267594   2.684   5.656  14.050 -0.1626 -0.4388 -0.1038
15368TIP3    H167595   2.744   5.600  14.002 -0.0950 -1.3824  1.0285
15368TIP3    H267596   2.739   5.704  14.112 -0.4684 -0.7900  0.4570
15369TIP3   OH267597   0.082   2.504   4.679  0.0008  0.1354  0.4572
15369TIP3    H167598   0.043   2.444   4.743  1.9856 -1.4333  0.3016
15369TIP3    H267599   0.134   2.564   4.732 -1.8007  1.6527  0.5922
15370TIP3   OH267600   0.629   1.757  12.549  0.2074  0.7566 -0.5371
15370TIP3    H167601   0.583   1.825  12.599  0.0057  0.4622 -0.3191
15370TIP3    H267602   0.676   1.805  12.481 -0.4070  1.0706 -0.7538
15371TIP3   OH267603   2.932   5.898   0.465 -0.1062 -0.2015  0.9051
15371TIP3    H167604   2.977   5.872   0.546  0.4641 -0.4846  0.5025
15371TIP3    H267605   2.839   5.879   0.482  0.0251 -0.3582  1.4536
15372TIP3   OH267606   1.799   5.313  10.373  0.7239  0.3530 -0.1597
15372TIP3    H167607   1.795   5.402  10.410 -0.8493  0.3867 -0.3188
15372TIP3    H267608   1.796   5.327  10.279  1.4544  0.1527 -0.2169
15373TIP3   OH267609   3.603   4.393   5.171 -0.2717  0.1408  0.0264
15373TIP3    H167610   3.557   4.309   5.163  0.3007 -0.1903  0.0814
15373TIP3    H267611   3.663   4.394   5.096  0.6813 -0.1274  0.7585
15374TIP3   OH267612   2.800   1.456   5.158 -0.2779  0.4222 -0.0525
15374TIP3    H167613   2.829   1.544   5.181 -0.5367  0.2640  0.9604
15374TIP3    H267614   2.852   1.399   5.214 -0.1032 -0.0671 -0.7138
15375TIP3   OH267615   1.571   5.298  16.080  0.0784 -0.9631 -0.2839
15375TIP3    H167616   1.512   5.283  16.007 -2.9567  3.8849  0.6837
15375TIP3    H267617   1.518   5.282  16.158  1.5268 -0.8302  0.7792
15376TIP3   OH267618   4.141   0.866   3.971  0.2217 -0.1932 -0.1315
15376TIP3    H167619   4.128   0.955   3.939  1.2096 -0.0006 -0.0363
15376TIP3    H267620   4.058   0.842   4.012 -0.2145  0.4985 -0.5937
15377TIP3   OH267621   5.655   0.554   4.946 -0.0776 -0.0745  0.4112
15377TIP3    H167622   5.569   0.512   4.950 -0.8296  1.4280  0.5038
15377TIP3    H267623   5.678   0.551   4.853 -0.0054 -0.8984  0.4474
15378TIP3   OH267624   2.664   4.505   4.987 -0.1647  0.3378  0.4990
15378TIP3    H167625   2.645   4.449   5.062  1.1843 -0.6447  0.1617
15378TIP3    H267626   2.597   4.482   4.922 -0.4636  0.1432  0.8726
15379TIP3   OH267627   6.020   3.312   0.310 -0.4864  0.3298 -0.0327
15379TIP3    H167628   6.105   3.274   0.289 -0.4285  0.3716  0.1189
15379TIP3    H267629   5.990   3.263   0.387 -0.1599  0.9586  0.4973
15380TIP3   OH267630   1.698   3.383   4.940 -0.6607  0.4625 -0.3101
15380TIP3    H167631   1.736   3.360   4.855 -2.3521  0.7797 -1.2053
15380TIP3    H267632   1.773   3.402   4.996  0.4842  1.8975 -2.2007
15381TIP3   OH267633   5.960   2.510   2.358 -0.3088 -1.0884 -0.1087
15381TIP3    H167634   5.975   2.447   2.287 -0.1422 -1.7987  0.5392
15381TIP3    H267635   6.040   2.561   2.363 -0.6228 -0.4915 -0.9530
15382TIP3   OH267636   6.483   1.262  16.093 -0.4783 -0.3718 -0.6409
15382TIP3    H167637   6.511   1.250  16.002 -1.3402 -1.2680 -0.8179
15382TIP3    H267638   6.562   1.291  16.139  0.2082 -0.8199 -1.4943
15383TIP3   OH267639   2.269   1.238   4.244 -0.3790  0.0222 -0.6315
15383TIP3    H167640   2.227   1.288   4.174  1.0354 -0.8254 -2.1604
15383TIP3    H267641   2.291   1.303   4.310 -2.0631  0.8032 -0.7700
15384TIP3   OH267642   4.932   6.243   0.581 -0.0512 -0.6010  0.2192
15384TIP3    H167643   4.943   6.288   0.497  0.5038 -0.0792  0.5604
15384TIP3    H267644   4.847   6.274   0.612 -0.1123 -0.5408 -0.0015
15385TIP3   OH267645   4.983   0.584  11.316 -0.2888 -0.4128  0.2446
15385TIP3    H167646   5.061   0.549  11.274 -0.1891 -0.8817  0.8204
15385TIP3    H267647   4.993   0.679  11.309 -1.3550 -0.4235 -2.8115
15386TIP3   OH267648   0.996   2.275  13.502 -0.0924  0.2536 -0.4010
15386TIP3    H167649   0.970   2.349  13.447  4.6409  1.4623 -1.4444
15386TIP3    H267650   1.038   2.214  13.442 -1.4759 -2.1419  0.9016
15387TIP3   OH267651   2.222   1.596   2.232 -0.1763  0.0290 -0.0615
15387TIP3    H167652   2.288   1.653   2.272 -0.9755 -0.1279  1.5837
15387TIP3    H267653   2.191   1.645   2.156  0.7173  0.8042  0.0584
15388TIP3   OH267654   3.858   0.880   4.092  0.4892  0.4432 -0.1336
15388TIP3    H167655   3.765   0.886   4.115  0.7716 -1.1323  1.6552
15388TIP3    H267656   3.899   0.952   4.141  0.1244  1.8141 -1.7587
15389TIP3   OH267657   1.370   2.186   1.771  0.3226 -0.1274  0.5074
15389TIP3    H167658   1.401   2.126   1.702 -1.5652 -0.0248 -0.5025
15389TIP3    H267659   1.373   2.134   1.851 -0.7892 -1.4713 -0.2641
15390TIP3   OH267660   6.296   2.881  15.468 -0.1169 -0.4594 -0.2944
15390TIP3    H167661   6.360   2.812  15.450 -1.1580 -1.1292 -1.5867
15390TIP3    H267662   6.335   2.960  15.430 -0.4937 -1.0741 -2.0522
15391TIP3   OH267663   1.335   2.672   0.562  0.0357  0.1672  0.1413
15391TIP3    H167664   1.255   2.619   0.560  1.2591 -1.8016 -0.1101
15391TIP3    H267665   1.403   2.611   0.590  1.7291  1.3661 -1.1040
15392TIP3   OH267666   0.646   1.176  15.313  0.2331 -0.1312 -0.9024
15392TIP3    H167667   0.741   1.174  15.302  0.1933 -1.6507 -1.1005
15392TIP3    H267668   0.612   1.188  15.224  0.2150 -1.0776 -1.0336
15393TIP3   OH267669   0.573   2.421   4.335 -0.1517 -0.0959  0.2960
15393TIP3    H167670   0.646   2.417   4.273  0.5248  0.6080  1.0319
15393TIP3    H267671   0.559   2.330   4.361  0.8266 -0.1770  0.5673
15394TIP3   OH267672   5.129   5.031  14.904 -0.1155  0.7674 -0.9707
15394TIP3    H167673   5.212   5.017  14.858  0.4152 -0.1092  0.2184
15394TIP3    H267674   5.149   5.095  14.972  0.4596 -1.7273  1.3935
15395TIP3   OH267675   6.008   3.937  16.980  0.4574 -0.2666 -0.0487
15395TIP3    H167676   6.051   3.860  16.943 -0.8231 -0.9932 -0.0809
15395TIP3    H267677   5.967   3.905  17.061  1.2176  0.7538  0.7664
15396TIP3   OH267678   5.154   2.618   3.186 -0.0267 -0.5306  0.4135
15396TIP3    H167679   5.135   2.673   3.110 -0.7328  0.6459  1.3858
15396TIP3    H267680   5.104   2.658   3.257  2.2376 -0.3167  1.9993
15397TIP3   OH267681   1.397   3.206  16.997 -0.0323  0.2671  0.4069
15397TIP3    H167682   1.349   3.288  16.985 -2.1877 -1.1736 -2.1151
15397TIP3    H267683   1.351   3.161  17.068  0.2999  0.6687  0.8768
15398TIP3   OH267684   5.129   2.149   1.686 -0.2002 -0.3542  0.4162
15398TIP3    H167685   5.214   2.192   1.683 -0.5906  0.5490 -3.6845
15398TIP3    H267686   5.144   2.064   1.644 -0.9174 -1.1716  1.7566
15399TIP3   OH267687   5.001   1.438  14.623  0.6152 -0.0383  0.2842
15399TIP3    H167688   5.070   1.372  14.613  0.9059  0.0242  1.6817
15399TIP3    H267689   5.040   1.504  14.680 -1.1399 -0.8064  2.4930
15400TIP3   OH267690   3.970   4.285  11.571  0.6650 -0.1010  0.1387
15400TIP3    H167691   3.965   4.355  11.637 -0.0428 -0.0312  0.0159
15400TIP3    H267692   4.060   4.252  11.579  0.2747 -0.8419  1.8945
15401TIP3   OH267693   2.153   1.593  14.330  0.0045 -0.8097 -0.4482
15401TIP3    H167694   2.191   1.602  14.243 -0.1058 -0.7082 -0.4867
15401TIP3    H267695   2.097   1.516  14.324 -0.4411 -0.4764 -0.6287
15402TIP3   OH267696   4.557   1.428   4.293 -0.7540 -0.5431 -0.3705
15402TIP3    H167697   4.594   1.462   4.212 -0.7202  1.1702  0.3284
15402TIP3    H267698   4.592   1.339   4.300  1.5996  0.2786 -0.7760
15403TIP3   OH267699   4.412   1.611  14.873 -0.4606  0.1015  0.4234
15403TIP3    H167700   4.327   1.633  14.836 -0.7154 -1.9711 -0.3429
15403TIP3    H267701   4.472   1.612  14.798 -0.2647 -0.5649  0.5603
15404TIP3   OH267702   4.467   1.644  14.022  0.1143 -0.1136 -1.1422
15404TIP3    H167703   4.428   1.729  14.046 -0.4934 -1.0282  1.4816
15404TIP3    H267704   4.396   1.596  13.981 -1.5360 -1.4210  2.7578
15405TIP3   OH267705   1.502   0.500   3.758 -0.1153  0.1569  0.4045
15405TIP3    H167706   1.564   0.573   3.764 -0.5531  0.6037 -0.3998
15405TIP3    H267707   1.491   0.486   3.664  0.3084 -1.2475  0.5460
15406TIP3   OH267708   1.960   3.132  15.161 -0.3910  0.1956 -0.8078
15406TIP3    H167709   1.943   3.166  15.248 -0.2133  1.6902 -1.3379
15406TIP3    H267710   2.009   3.051  15.176  0.8523  1.1354  0.4409
15407TIP3   OH267711   1.484   6.474   5.450  0.4086  0.0718  0.3759
15407TIP3    H167712   1.565   6.502   5.493  1.1036 -0.9763 -0.2024
15407TIP3    H267713   1.498   6.494   5.358  0.3009 -0.7526  0.1739
15408TIP3   OH267714   0.488   5.754  14.630 -0.2394  0.0029 -0.0224
15408TIP3    H167715   0.573   5.722  14.662  1.1445  2.8100 -0.6385
15408TIP3    H267716   0.442   5.782  14.709 -0.5020 -1.2370  0.2852
15409TIP3   OH267717   2.158   2.487  12.120  0.0247  0.1216  0.1394
15409TIP3    H167718   2.234   2.519  12.071 -1.1123  1.1239 -1.0411
15409TIP3    H267719   2.195   2.426  12.184  1.9110  1.2103  0.1670
15410TIP3   OH267720   1.028   4.493  12.074 -0.1013 -0.1499  0.2665
15410TIP3    H167721   0.987   4.580  12.072 -0.9732 -0.5524 -0.7090
15410TIP3    H267722   0.994   4.452  12.153 -0.3064  0.1242  0.3217
15411TIP3   OH267723   5.768   0.245  11.259 -0.2104 -0.1385 -0.3757
15411TIP3    H167724   5.737   0.263  11.171 -1.0011 -2.1401 -0.5667
15411TIP3    H267725   5.852   0.201  11.247  0.0395  0.2575 -0.0964
15412TIP3   OH267726   5.467   2.453   4.107 -0.8520 -0.3759 -0.7635
15412TIP3    H167727   5.493   2.408   4.027 -0.3523  0.3940 -1.0405
15412TIP3    H267728   5.384   2.412   4.132 -1.3063 -0.2290 -1.9950
15413TIP3   OH267729   0.846   0.089  13.272  0.5028 -0.4780 -0.3249
15413TIP3    H167730   0.854   0.096  13.367  1.4660 -1.1305 -0.3486
15413TIP3    H267731   0.934   0.070  13.241  0.1117 -0.7677 -1.3076
15414TIP3   OH267732   5.613   2.681  17.195  0.1274 -0.5906  0.3742
15414TIP3    H167733   5.625   2.663  17.289  1.0979  2.2783  0.9306
15414TIP3    H267734   5.702   2.702  17.164 -0.5176  0.9549 -0.5410
15415TIP3   OH267735   0.324   6.703   0.474 -0.7405  0.7958  0.0296
15415TIP3    H167736   0.242   6.749   0.455 -1.3941 -0.1525  0.4647
15415TIP3    H267737   0.324   6.693   0.570 -1.0140 -0.7614 -0.0967
15416TIP3   OH267738   2.918   2.671  11.247 -1.0581  0.0582 -0.4910
15416TIP3    H167739   2.890   2.580  11.258 -0.7372  0.0747  0.5211
15416TIP3    H267740   2.989   2.665  11.182  2.3282 -1.1490  2.9188
15417TIP3   OH267741   3.398   1.066  15.361  0.0181 -0.3370 -0.1618
15417TIP3    H167742   3.405   1.040  15.270 -0.0467 -1.6699  0.2001
15417TIP3    H267743   3.466   1.016  15.406 -0.8042 -0.6835  0.7254
15418TIP3   OH267744   6.717   2.787  15.546 -0.1502  1.3422  0.8050
15418TIP3    H167745   6.651   2.855  15.532 -0.9086  0.7419  1.3626
15418TIP3    H267746   6.738   2.755  15.458 -0.7223  1.4352  0.6306
15419TIP3   OH267747   3.586   0.813   0.618 -0.2043  0.3988  0.2969
15419TIP3    H167748   3.494   0.817   0.594 -0.4038 -1.0422  0.7060
15419TIP3    H267749   3.633   0.810   0.535 -0.4654  1.8271  0.0805
15420TIP3   OH267750   5.209   6.472   0.449  0.4722 -0.3502 -0.0424
15420TIP3    H167751   5.154   6.396   0.431 -0.5915  0.3142  0.3350
15420TIP3    H267752   5.225   6.511   0.363 -0.0680 -0.2683 -0.1107
15421TIP3   OH267753   4.079   4.146  10.411  0.2530 -0.1295 -0.1808
15421TIP3    H167754   4.047   4.146  10.321  0.9126 -0.4504 -0.4193
15421TIP3    H267755   4.065   4.236  10.441 -0.2222 -0.0900 -0.5088
15422TIP3   OH267756   4.048   3.867  12.384 -0.2428 -0.7048 -0.0084
15422TIP3    H167757   4.047   3.960  12.405 -2.0235 -1.3079  3.2587
15422TIP3    H267758   4.124   3.833  12.432 -0.3852 -1.1208 -0.0779
15423TIP3   OH267759   3.536   0.597   0.963 -0.1291 -0.5569 -0.5138
15423TIP3    H167760   3.567   0.639   1.043  0.6156 -1.2353 -0.4377
15423TIP3    H267761   3.541   0.503   0.981 -2.2687 -0.7294 -0.4905
15424TIP3   OH267762   1.540   6.457  10.651  0.2408 -0.3748  0.0084
15424TIP3    H167763   1.445   6.471  10.644  0.1745 -0.5302  0.5622
15424TIP3    H267764   1.578   6.530  10.601 -0.1760 -0.7616 -0.8891
15425TIP3   OH267765   0.483   3.382   5.352  0.0212 -0.0236 -0.4470
15425TIP3    H167766   0.513   3.417   5.268  2.0765  0.1534  0.3092
15425TIP3    H267767   0.556   3.328   5.383 -0.3775  0.5181  1.5620
15426TIP3   OH267768   4.617   0.563   1.747  0.0739  0.0544  0.8416
15426TIP3    H167769   4.605   0.479   1.701 -0.2983 -0.0058  1.0462
15426TIP3    H267770   4.531   0.583   1.783  0.6727 -0.6725  2.8172
15427TIP3   OH267771   2.105   6.770  17.111 -0.1756  0.2108  0.3116
15427TIP3    H167772   2.161   6.839  17.076  1.6276 -0.8823  0.8719
15427TIP3    H267773   2.067   6.729  17.034  2.4950 -1.1516 -0.4239
15428TIP3   OH267774   1.247   4.332  12.106 -0.6242  0.9003 -0.1688
15428TIP3    H167775   1.269   4.317  12.198  1.8041  0.8319 -0.7115
15428TIP3    H267776   1.218   4.423  12.104 -1.5486  0.6513  0.7842
15429TIP3   OH267777   0.276   5.533  13.033 -0.3140 -0.0402  0.1549
15429TIP3    H167778   0.235   5.619  13.042 -1.2828 -0.5401  0.7213
15429TIP3    H267779   0.206   5.477  12.999  0.7501 -0.2641 -1.8205
15430TIP3   OH267780   0.425   1.477   0.207 -0.1626 -0.2365  0.1923
15430TIP3    H167781   0.518   1.496   0.196 -0.0561 -1.2693 -0.9212
15430TIP3    H267782   0.407   1.493   0.299  0.9597  0.6167  0.2791
15431TIP3   OH267783   0.414   4.559  11.329  0.2417 -0.3548 -0.0781
15431TIP3    H167784   0.395   4.647  11.299 -0.9371 -0.3500  0.6298
15431TIP3    H267785   0.423   4.507  11.248  2.1798  0.6113 -0.5440
15432TIP3   OH267786   4.006   2.164   4.574 -0.8482 -0.2104 -0.0627
15432TIP3    H167787   4.015   2.120   4.658 -1.9627  2.0490  1.3489
15432TIP3    H267788   3.914   2.155   4.551 -0.6981 -0.1970 -0.6965
15433TIP3   OH267789   4.523   2.703   4.631 -0.2048 -0.3948 -0.1400
15433TIP3    H167790   4.605   2.729   4.589  0.2015 -0.2966  0.6864
15433TIP3    H267791   4.498   2.779   4.683 -0.6502 -0.5424 -0.1403
15434TIP3   OH267792   0.793   2.804   4.068 -0.2772  0.3603 -0.3715
15434TIP3    H167793   0.825   2.755   4.144  0.5878 -0.0055 -0.9463
15434TIP3    H267794   0.775   2.891   4.101  0.8135  0.4173  0.1096
15435TIP3   OH267795   0.675   2.406   5.684  0.1581  0.2451  0.3235
15435TIP3    H167796   0.719   2.489   5.700  0.3811 -0.2056  2.2449
15435TIP3    H267797   0.678   2.360   5.767 -1.8655 -0.8172 -0.1115
15436TIP3   OH267798   3.209   3.675  16.090  0.7776 -0.7206 -0.3552
15436TIP3    H167799   3.167   3.650  16.172  1.5617 -0.0471  0.2670
15436TIP3    H267800   3.206   3.770  16.089 -0.3604 -0.7369 -1.7321
15437TIP3   OH267801   1.950   5.959  11.584 -0.1986  0.0085 -0.4847
15437TIP3    H167802   1.920   5.875  11.548 -1.1079  0.6980 -1.4145
15437TIP3    H267803   2.005   5.996  11.515 -1.1378  0.8971 -0.7882
15438TIP3   OH267804   0.621   3.379  15.363 -0.8435 -0.6387  0.3540
15438TIP3    H167805   0.687   3.310  15.371  0.5770  0.7288  0.7580
15438TIP3    H267806   0.603   3.382  15.269 -1.1415 -1.7344  0.3574
15439TIP3   OH267807   5.664   3.565  10.896 -0.4383 -0.1381 -0.6232
15439TIP3    H167808   5.602   3.628  10.860  0.2161  0.3958 -0.8125
15439TIP3    H267809   5.726   3.548  10.825  0.4936  0.4494  0.0293
15440TIP3   OH267810   4.020   1.424  14.211 -0.5316 -0.4574 -0.1144
15440TIP3    H167811   3.944   1.468  14.171  0.3538 -1.3219 -2.9949
15440TIP3    H267812   3.981   1.361  14.271 -2.0503  0.0334 -0.5217
15441TIP3   OH267813   4.890   2.061  10.529 -0.2919 -0.3513 -0.1606
15441TIP3    H167814   4.909   1.968  10.515 -0.2472 -0.4014  0.2186
15441TIP3    H267815   4.976   2.104  10.530 -0.3666 -0.1340 -1.4763
15442TIP3   OH267816   4.321   3.636  11.840  0.0270  0.4034 -0.5682
15442TIP3    H167817   4.240   3.638  11.790  0.2765 -0.5783 -1.0464
15442TIP3    H267818   4.318   3.552  11.887 -0.0167  1.1188  0.7654
15443TIP3   OH267819   3.238   4.599  11.449  0.2047  0.6633 -0.2203
15443TIP3    H167820   3.283   4.586  11.365 -0.9321  1.1668 -0.9376
15443TIP3    H267821   3.307   4.624  11.510  0.8144  2.1946 -1.4655
15444TIP3   OH267822   2.450   5.799  11.997  0.1822  0.1257  0.3549
15444TIP3    H167823   2.388   5.728  11.980  0.2707  0.3228 -0.8764
15444TIP3    H267824   2.411   5.848  12.069  0.6360 -1.7515  1.9671
15445TIP3   OH267825   0.486   3.009   4.115 -0.1530 -0.4860  0.2424
15445TIP3    H167826   0.484   2.975   4.025 -0.1115 -1.3382  0.5559
15445TIP3    H267827   0.523   3.096   4.106  0.3238 -0.7506 -0.5121
15446TIP3   OH267828   2.451   0.388   5.624 -0.1838  0.3372 -0.0763
15446TIP3    H167829   2.529   0.358   5.670  0.7316 -1.6720 -2.6829
15446TIP3    H267830   2.468   0.481   5.607  1.1527  0.1853  0.3207
15447TIP3   OH267831   5.629   3.003   4.813  0.1265  0.9892 -0.2963
15447TIP3    H167832   5.578   2.998   4.894  1.7424  1.9470  0.8523
15447TIP3    H267833   5.645   2.912   4.788  0.2127  0.6597  0.8979
15448TIP3   OH267834   4.883   2.155  13.876 -0.0316  0.0897 -0.2531
15448TIP3    H167835   4.932   2.078  13.905 -0.3974 -0.6121 -1.4303
15448TIP3    H267836   4.944   2.204  13.821  0.1270  0.5373  0.3079
15449TIP3   OH267837   3.012   2.028   2.568  0.4052  0.0633 -0.1083
15449TIP3    H167838   2.922   2.053   2.590  0.3799 -0.7949  0.8953
15449TIP3    H267839   3.066   2.080   2.628  0.5922  0.6161 -0.7458
15450TIP3   OH267840   1.703   0.511  16.522 -0.0127  0.3579  0.4937
15450TIP3    H167841   1.637   0.570  16.557 -1.3841 -0.6623 -0.2823
15450TIP3    H267842   1.721   0.544  16.434 -0.4430 -0.1126  0.2281
15451TIP3   OH267843   2.583   1.232   2.328 -0.8670 -0.3574  0.1091
15451TIP3    H167844   2.578   1.323   2.357 -0.3613 -0.3650  0.2184
15451TIP3    H267845   2.493   1.199   2.339 -1.1916  0.2971 -0.5111
15452TIP3   OH267846   3.225   5.944   4.200 -0.1722 -0.6428 -0.2701
15452TIP3    H167847   3.284   5.984   4.264  1.4742 -2.7024 -0.3955
15452TIP3    H267848   3.143   5.993   4.209  0.8799  0.9285  1.4242
15453TIP3   OH267849   2.778   3.713  14.476 -0.4819  0.1117  0.7553
15453TIP3    H167850   2.761   3.645  14.540 -0.4285  1.3117  2.1041
15453TIP3    H267851   2.753   3.675  14.392  0.6310 -1.9463  1.2960
15454TIP3   OH267852   2.990   1.323   3.335  0.0670  0.0705  0.0983
15454TIP3    H167853   3.040   1.291   3.410  0.0577 -1.6137 -0.5794
15454TIP3    H267854   2.935   1.249   3.309 -2.2973  1.6258  0.3779
15455TIP3   OH267855   0.317   1.191   6.586 -0.0064 -0.4306 -0.4338
15455TIP3    H167856   0.358   1.105   6.587 -0.9944 -0.9122 -0.5723
15455TIP3    H267857   0.234   1.180   6.633 -0.6729  0.1680 -1.4278
15456TIP3   OH267858   4.184   5.694   2.216  0.0331 -0.2641 -0.1088
15456TIP3    H167859   4.204   5.685   2.123 -0.3351  1.2443 -0.3584
15456TIP3    H267860   4.097   5.734   2.219  0.0743 -0.2140  0.8797
15457TIP3   OH267861   3.744   1.984   5.764  0.0355  0.4051  0.4705
15457TIP3    H167862   3.669   2.033   5.798 -0.3407 -1.0791  1.9265
15457TIP3    H267863   3.816   2.047   5.764 -0.8190  1.4118  0.6550
15458TIP3   OH267864   1.767   4.166  10.385  0.6245 -0.3663 -0.1819
15458TIP3    H167865   1.787   4.248  10.430  1.8007 -1.7555  2.0221
15458TIP3    H267866   1.711   4.118  10.446  1.2040 -1.8085 -0.7453
15459TIP3   OH267867   5.314   6.023   2.017 -0.2713 -1.2188  0.2307
15459TIP3    H167868   5.221   5.999   2.012 -0.2633 -1.0330 -1.3493
15459TIP3    H267869   5.341   6.033   1.925  1.4252 -1.6965  0.6423
15460TIP3   OH267870   0.105   4.245  16.662  0.0085  0.1474 -0.4235
15460TIP3    H167871   0.194   4.251  16.627  0.1443 -0.6668 -0.2467
15460TIP3    H267872   0.066   4.171  16.615  0.2238 -1.0332  1.1827
15461TIP3   OH267873   1.551   1.027   5.751  0.6308  0.2784  0.1362
15461TIP3    H167874   1.554   0.932   5.744 -1.1686  0.2883 -1.9445
15461TIP3    H267875   1.537   1.045   5.844 -2.5220 -1.7002  0.1831
15462TIP3   OH267876   3.100   1.657  12.740 -0.3007 -0.6659  0.4898
15462TIP3    H167877   3.049   1.736  12.759 -0.7401 -0.4628 -1.2713
15462TIP3    H267878   3.053   1.616  12.667  1.4963 -0.9920 -0.5557
15463TIP3   OH267879   5.232   5.682   3.785  0.1312  0.6537 -0.7489
15463TIP3    H167880   5.187   5.728   3.714 -0.5915 -0.9999 -1.4244
15463TIP3    H267881   5.188   5.712   3.865 -2.4676 -1.0665 -1.4039
15464TIP3   OH267882   5.158   1.233   1.863  0.2564  0.4041  0.3164
15464TIP3    H167883   5.112   1.151   1.845  0.2062  0.4554  0.2125
15464TIP3    H267884   5.137   1.252   1.955 -0.9465  1.0765 -0.0855
15465TIP3   OH267885   1.487   5.328   4.653 -0.3444  0.2017 -0.6015
15465TIP3    H167886   1.494   5.362   4.742  1.4333 -0.3559 -0.5048
15465TIP3    H267887   1.477   5.233   4.664 -0.2641  0.1473 -0.9859
15466TIP3   OH267888   3.648   4.912  11.440 -0.0817 -0.1446  0.1445
15466TIP3    H167889   3.572   4.968  11.427  2.0335  2.8252 -0.4868
15466TIP3    H267890   3.682   4.937  11.525  0.6098 -0.8918  0.1004
15467TIP3   OH267891   0.983   2.168  15.563 -0.1901 -0.1406  0.0148
15467TIP3    H167892   1.052   2.232  15.547  0.8136 -0.9576  0.9476
15467TIP3    H267893   0.957   2.183  15.654 -0.5736 -0.4683 -0.0380
15468TIP3   OH267894   3.627   0.018  10.696 -0.0733 -0.4331  0.2411
15468TIP3    H167895   3.675   0.030  10.778  0.5539  0.1958 -0.1987
15468TIP3    H267896   3.612  -0.076  10.690  3.5531 -1.1284 -0.8890
15469TIP3   OH267897   5.698   2.654  12.178 -0.3526 -0.0627  0.2466
15469TIP3    H167898   5.768   2.718  12.164  0.3020 -0.5362  1.2462
15469TIP3    H267899   5.735   2.592  12.241 -1.3879 -0.7833  0.1646
15470TIP3   OH267900   4.545   2.596   2.654 -0.0756  0.0263  0.0314
15470TIP3    H167901   4.639   2.584   2.663 -0.3142 -1.4389  0.8589
15470TIP3    H267902   4.511   2.507   2.641 -1.5240  0.3191  1.5404
15471TIP3   OH267903   0.709   1.538  12.010 -0.3467 -0.2733 -0.1796
15471TIP3    H167904   0.788   1.576  11.973 -0.2689 -0.4490 -0.1930
15471TIP3    H267905   0.733   1.449  12.034 -0.6920 -0.5141 -0.7070
15472TIP3   OH267906   6.416   0.167   5.982  0.3689  0.1931  0.2680
15472TIP3    H167907   6.333   0.125   6.004  0.6542 -0.1528  0.6968
15472TIP3    H267908   6.481   0.098   5.992  0.4665 -0.1503 -2.2636
15473TIP3   OH267909   3.435   4.590  14.637 -0.0881 -0.2381  0.7647
15473TIP3    H167910   3.473   4.504  14.618  1.6286  0.6414  0.0557
15473TIP3    H267911   3.482   4.650  14.580 -0.4206  1.3470  2.0927
15474TIP3   OH267912   0.362   0.110   6.085  0.0866 -0.4324  0.1472
15474TIP3    H167913   0.446   0.141   6.118 -0.1669  1.4247 -0.8443
15474TIP3    H267914   0.300   0.180   6.106 -0.6397 -0.4809 -1.6622
15475TIP3   OH267915   6.795   5.450  13.701  0.0386  0.1552  0.8742
15475TIP3    H167916   6.725   5.418  13.643  1.4067 -1.0833 -0.1884
15475TIP3    H267917   6.805   5.542  13.678 -0.3053 -0.0073  0.0235
15476TIP3   OH267918   2.779   1.792   1.028 -0.0283 -0.3277  0.0253
15476TIP3    H167919   2.692   1.792   0.988  0.1193  2.6454 -0.4757
15476TIP3    H267920   2.834   1.838   0.965  0.7823  2.2470  2.4332
15477TIP3   OH267921   2.396   3.338   2.070 -0.0507  0.3545 -0.0202
15477TIP3    H167922   2.469   3.376   2.117  1.3685 -0.2743 -1.5970
15477TIP3    H267923   2.320   3.353   2.126  1.3463  0.6071  1.8944
15478TIP3   OH267924   5.894   1.664  13.416 -0.1844 -0.3571  0.1120
15478TIP3    H167925   5.887   1.580  13.462  0.0592  1.4526  3.8014
15478TIP3    H267926   5.986   1.689  13.425 -0.3788  0.5911 -0.3876
15479TIP3   OH267927   1.682   5.012  13.015  0.3380 -0.5255 -0.2314
15479TIP3    H167928   1.716   5.100  13.027 -0.7616  0.0014 -0.8014
15479TIP3    H267929   1.652   4.986  13.102 -1.9074  0.8085 -0.5375
15480TIP3   OH267930   1.254   6.638  16.608 -0.4101  0.1979  0.1213
15480TIP3    H167931   1.232   6.581  16.681  0.7941  0.6898  0.8927
15480TIP3    H267932   1.177   6.694  16.597 -0.7839 -0.1967  0.7021
15481TIP3   OH267933   1.905   3.107  12.330  0.1866 -0.2490  0.2120
15481TIP3    H167934   1.871   3.043  12.392 -1.1033 -0.8206 -1.0284
15481TIP3    H267935   2.000   3.094  12.332  0.0750 -1.0536  1.1910
15482TIP3   OH267936   6.186   3.374  10.360  0.2813  0.0374 -0.1498
15482TIP3    H167937   6.181   3.446  10.424  0.0440 -0.6133  0.5782
15482TIP3    H267938   6.205   3.297  10.412  3.5740 -0.0132 -1.2309
15483TIP3   OH267939   0.893   5.505  17.064 -0.6565 -0.4592  0.2821
15483TIP3    H167940   0.907   5.530  16.973 -0.3786 -1.9495 -0.1154
15483TIP3    H267941   0.825   5.437  17.060 -0.6628 -0.5224  1.1826
15484TIP3   OH267942   6.452   3.858  13.344 -0.2412 -0.3107  0.2629
15484TIP3    H167943   6.457   3.762  13.346  0.5655 -0.3205 -1.2021
15484TIP3    H267944   6.542   3.887  13.354 -0.6208  0.3810  2.1468
15485TIP3   OH267945   4.714   0.049  11.389  0.3121 -0.3645 -0.3340
15485TIP3    H167946   4.635   0.102  11.399  0.2093 -0.4800 -0.5592
15485TIP3    H267947   4.747   0.040  11.479  0.6478  0.5714 -0.3452
15486TIP3   OH267948   6.298   4.982  16.959 -0.0431 -0.2363  0.0143
15486TIP3    H167949   6.226   5.040  16.932  0.8698  0.5446 -0.8360
15486TIP3    H267950   6.372   5.040  16.973  0.2746 -0.9642  1.5077
15487TIP3   OH267951   2.149   2.424  16.055  0.4008 -0.5375 -0.5993
15487TIP3    H167952   2.109   2.487  15.995 -0.0924 -0.8352 -0.5903
15487TIP3    H267953   2.217   2.381  16.004  0.7240 -0.0159 -0.6127
15488TIP3   OH267954   1.330   2.861   5.909  0.3518  0.4935 -0.2660
15488TIP3    H167955   1.413   2.816   5.925 -0.3642 -0.2400  1.6573
15488TIP3    H267956   1.350   2.954   5.919  1.1080  0.3787 -0.6552
15489TIP3   OH267957   4.477   3.166   2.428 -0.4115 -0.1634  0.4041
15489TIP3    H167958   4.401   3.125   2.469 -0.8731 -0.3978 -0.6627
15489TIP3    H267959   4.501   3.107   2.358  0.0052  0.5207 -0.0351
15490TIP3   OH267960   1.495   2.505  16.464  0.0050 -0.1058  0.1198
15490TIP3    H167961   1.587   2.514  16.489 -0.1026 -0.0225  0.4839
15490TIP3    H267962   1.447   2.507  16.547 -0.2169 -1.6272  0.0435
15491TIP3   OH267963   1.161   2.487  14.882  0.2383 -0.0075  0.1934
15491TIP3    H167964   1.247   2.495  14.842  0.3926  2.3708  0.8141
15491TIP3    H267965   1.131   2.577  14.892 -2.1606 -0.7547  0.3842
15492TIP3   OH267966   4.032   0.847   6.317  0.0528  0.1735 -0.5390
15492TIP3    H167967   4.003   0.899   6.391 -0.3163  0.2953 -0.7655
15492TIP3    H267968   3.962   0.855   6.253 -0.7933 -1.8962  0.0266
15493TIP3   OH267969   5.178   0.114   0.660  0.2804 -0.2670 -0.3770
15493TIP3    H167970   5.171   0.026   0.622 -0.4571 -0.0619 -0.7369
15493TIP3    H267971   5.102   0.121   0.718  0.9520 -0.2726  0.5120
15494TIP3   OH267972   5.829   2.803   5.788  0.1808 -0.0515 -0.5666
15494TIP3    H167973   5.872   2.730   5.833 -0.4574 -1.2053 -1.7939
15494TIP3    H267974   5.902   2.858   5.758  0.6634 -0.1150  0.4320
15495TIP3   OH267975   0.695   5.952  15.605 -0.2528 -0.0153 -0.6161
15495TIP3    H167976   0.759   5.897  15.652 -3.3461 -2.0915  1.5855
15495TIP3    H267977   0.683   5.908  15.521  0.4618 -0.1681 -0.6451
15496TIP3   OH267978   6.403   4.938  11.880  0.3216  0.6874 -0.3129
15496TIP3    H167979   6.433   5.009  11.823 -0.7312  2.3926  1.1381
15496TIP3    H267980   6.352   4.881  11.824  2.2236  0.3243 -1.7960
15497TIP3   OH267981   4.242   0.760   0.970 -0.0772  0.2905 -0.4696
15497TIP3    H167982   4.316   0.713   1.007 -0.0943 -1.3885 -2.3905
15497TIP3    H267983   4.209   0.703   0.900 -2.3275  1.5924 -0.5965
15498TIP3   OH267984   6.281   1.797   0.353  0.3334  0.4128 -0.1157
15498TIP3    H167985   6.258   1.732   0.419  2.6217 -0.4435 -0.0748
15498TIP3    H267986   6.341   1.856   0.398  2.9159 -0.8818 -1.6360
15499TIP3   OH267987   1.835   0.696  12.472 -0.5864 -0.5923 -0.0220
15499TIP3    H167988   1.758   0.644  12.447 -1.9362  1.1526  0.3574
15499TIP3    H267989   1.848   0.757  12.399 -0.1424 -0.2318  0.3468
15500TIP3   OH267990   6.286   1.957   3.364 -0.2479  0.1358 -0.1299
15500TIP3    H167991   6.312   2.024   3.302  0.2539  0.0720  0.0059
15500TIP3    H267992   6.206   1.990   3.404  0.4886  1.0952  0.6098
15501TIP3   OH267993   5.543   1.518  16.847  0.0294  0.0736  0.0667
15501TIP3    H167994   5.570   1.505  16.756  1.6051 -0.4308  0.5820
15501TIP3    H267995   5.451   1.492  16.849 -0.9035  2.7557 -1.9732
15502TIP3   OH267996   0.527   2.236   0.841 -0.4977 -0.0808  0.6398
15502TIP3    H167997   0.435   2.261   0.845 -0.8079 -1.2087  0.9891
15502TIP3    H267998   0.559   2.247   0.931 -0.8934 -1.7663  1.0238
15503TIP3   OH267999   0.083   4.531  12.031  0.6015 -1.1628 -0.5842
15503TIP3    H168000   0.129   4.479  12.097  0.7917 -0.1121  0.1282
15503TIP3    H268001   0.135   4.611  12.023 -0.3852 -0.5212 -0.7351
15504TIP3   OH268002   5.306   5.048   1.872 -0.2573 -0.0927  0.2960
15504TIP3    H168003   5.238   4.982   1.858  0.1140 -0.0948 -1.9370
15504TIP3    H268004   5.353   5.018   1.950 -0.2298 -2.3841 -0.5110
15505TIP3   OH268005   6.206   4.531   4.101 -0.0735  0.8477 -0.1411
15505TIP3    H168006   6.278   4.583   4.137 -0.2753  1.2958 -0.3797
15505TIP3    H268007   6.228   4.520   4.008 -0.5173  1.3446 -0.3101
15506TIP3   OH268008   4.135   2.312  13.834 -0.0943  0.3950 -0.1578
15506TIP3    H168009   4.154   2.374  13.904  1.3919 -0.4607  0.2443
15506TIP3    H268010   4.219   2.270  13.816 -1.1724 -2.1391  0.2235
15507TIP3   OH268011   3.138   2.415   0.520 -0.3960  0.4501  0.4378
15507TIP3    H168012   3.225   2.454   0.521  0.1341 -0.5117 -1.8432
15507TIP3    H268013   3.099   2.446   0.438 -0.5939 -2.3643 -0.6206
15508TIP3   OH268014   5.892   3.358   5.667 -0.1975 -0.1151  0.5237
15508TIP3    H168015   5.840   3.277   5.674  1.3759 -1.2736 -0.5770
15508TIP3    H268016   5.980   3.328   5.643  0.7104  1.8715  1.2019
15509TIP3   OH268017   1.148   2.473   0.522  0.2410 -0.7610  0.2310
15509TIP3    H168018   1.055   2.468   0.546  0.3019 -0.4550  0.5471
15509TIP3    H268019   1.162   2.399   0.463 -0.1761 -0.8806  0.2790
15510TIP3   OH268020   1.115   0.348   3.908 -0.0088  0.2267 -0.4845
15510TIP3    H168021   1.136   0.255   3.907 -1.7201 -0.2303  1.2474
15510TIP3    H268022   1.034   0.356   3.858  0.4077  0.8845 -1.0793
15511TIP3   OH268023   3.300   4.895   2.505 -0.0451 -0.3312  0.4398
15511TIP3    H168024   3.394   4.906   2.518  0.2541 -2.3297  0.3066
15511TIP3    H268025   3.270   4.978   2.469  1.9589 -0.1856 -1.0391
15512TIP3   OH268026   0.001   2.901  16.653 -0.1135  0.1358  0.5100
15512TIP3    H168027  -0.040   2.980  16.617  1.0611  0.5839  0.1119
15512TIP3    H268028  -0.036   2.830  16.600 -0.7613  0.4697  0.5007
15513TIP3   OH268029   3.606   1.550   3.774 -0.0885 -0.1784 -0.2923
15513TIP3    H168030   3.597   1.620   3.838 -0.9514 -1.4703  1.0558
15513TIP3    H268031   3.516   1.521   3.757  0.0014  0.7330 -2.8497
15514TIP3   OH268032   4.931   3.594  10.656  0.7723  0.4043  0.0875
15514TIP3    H168033   5.024   3.570  10.662  0.6709 -0.4201 -1.2452
15514TIP3    H268034   4.890   3.519  10.613 -0.1491  1.5936 -1.1724
15515TIP3   OH268035   0.678   1.757   1.999 -0.5794 -0.5242 -0.4209
15515TIP3    H168036   0.750   1.811   1.963 -0.8601 -0.4882 -0.9381
15515TIP3    H268037   0.659   1.797   2.084 -0.1643 -0.3697 -0.3963
15516TIP3   OH268038   6.639   2.428  16.040 -0.2680 -0.9101  0.1943
15516TIP3    H168039   6.692   2.421  15.961  1.3314 -2.8281  1.3449
15516TIP3    H268040   6.691   2.387  16.108 -1.9653 -0.1195  2.0991
15517TIP3   OH268041   5.349   2.130   3.229  0.1256  0.0010 -0.4475
15517TIP3    H168042   5.442   2.114   3.243  0.2039  0.9166  0.1166
15517TIP3    H268043   5.338   2.224   3.244 -0.9012 -0.1105 -0.4451
15518TIP3   OH268044   6.030   4.343  16.378 -0.3085 -0.5676 -0.3169
15518TIP3    H168045   5.958   4.406  16.377 -0.2835 -0.5150 -1.7425
15518TIP3    H268046   6.038   4.318  16.469 -1.6113  0.0223 -0.0024
15519TIP3   OH268047   5.601   6.654   1.313 -0.0790 -0.2441  0.0704
15519TIP3    H168048   5.619   6.677   1.222  0.6126 -1.4416 -0.1250
15519TIP3    H268049   5.535   6.585   1.307  1.9464 -2.3371  0.2528
15520TIP3   OH268050   1.724   5.219  13.738  0.6417 -0.1113  0.3625
15520TIP3    H168051   1.760   5.144  13.786  2.7133  0.7278  0.2159
15520TIP3    H268052   1.800   5.275  13.720 -0.8688  2.2810  0.8926
15521TIP3   OH268053   1.147   5.419   1.946  0.5038  0.6916 -0.0875
15521TIP3    H168054   1.056   5.407   1.917 -0.1106 -1.2857  2.2946
15521TIP3    H268055   1.150   5.509   1.979 -0.3010  1.0825 -1.0195
15522TIP3   OH268056   1.957   2.397   0.761  0.5501 -0.8290 -0.4653
15522TIP3    H168057   1.872   2.412   0.802  0.7227 -0.2776 -0.2908
15522TIP3    H268058   2.020   2.410   0.832  0.7213 -2.6507 -0.2485
15523TIP3   OH268059   2.480   1.309   0.660 -0.0834 -0.0617  0.3696
15523TIP3    H168060   2.506   1.380   0.601 -1.7365  0.5427  0.3120
15523TIP3    H268061   2.443   1.353   0.736  2.0255 -0.8350  1.9360
15524TIP3   OH268062   6.803   0.647  11.339 -0.2259 -0.0638 -0.3602
15524TIP3    H168063   6.830   0.571  11.287  0.4096  0.2521 -0.4974
15524TIP3    H268064   6.707   0.642  11.340 -0.2170 -0.4871 -0.9469
15525TIP3   OH268065   0.364   6.012   5.747  0.3708 -0.0957  1.0727
15525TIP3    H168066   0.379   5.970   5.662  0.3003 -2.1848  2.0441
15525TIP3    H268067   0.420   5.965   5.808  2.0804  2.7754  1.8989
15526TIP3   OH268068   4.186   2.121   2.003  0.1345  0.4011  0.1893
15526TIP3    H168069   4.221   2.210   1.990  0.0167  0.2950 -0.9198
15526TIP3    H268070   4.264   2.067   2.015  0.4884  0.0699 -2.8482
15527TIP3   OH268071   6.749   1.084  11.255 -0.0938  0.3922  0.5336
15527TIP3    H168072   6.825   1.054  11.305  1.0486  2.1948 -0.0062
15527TIP3    H268073   6.723   1.008  11.204 -0.1343 -0.9553  2.4433
15528TIP3   OH268074   2.102   3.361  11.576 -0.0625 -0.0764  0.4779
15528TIP3    H168075   2.080   3.442  11.530  2.3522  0.9495  0.9281
15528TIP3    H268076   2.050   3.293  11.533  0.7300  1.1061 -2.5807
15529TIP3   OH268077   1.919   4.880  10.477  0.1800  0.5452  0.1082
15529TIP3    H168078   1.922   4.811  10.411 -3.0144  0.6920 -0.3245
15529TIP3    H268079   1.940   4.836  10.559 -2.7500 -1.3075 -0.0008
15530TIP3   OH268080   3.820   2.137  12.328  0.5576 -0.3289  0.0366
15530TIP3    H168081   3.907   2.171  12.305  0.1456  0.5488 -0.2417
15530TIP3    H268082   3.765   2.214  12.335  0.4318 -0.5770  3.1941
15531TIP3   OH268083   5.225   3.590   2.066  0.1163 -0.6954  0.0296
15531TIP3    H168084   5.141   3.544   2.062 -1.1004  1.2982  0.8972
15531TIP3    H268085   5.229   3.625   2.155  1.8246 -0.6566 -0.0402
15532TIP3   OH268086   2.215   5.084   1.997  0.2046 -0.1858 -0.6366
15532TIP3    H168087   2.141   5.024   1.992  0.0464 -0.0618  0.1796
15532TIP3    H268088   2.177   5.167   2.027  0.8198 -0.4132  0.8470
15533TIP3   OH268089   4.998   4.673   2.123  0.3219  0.3917 -0.4975
15533TIP3    H168090   4.939   4.738   2.162  0.4902  1.0297 -1.2575
15533TIP3    H268091   5.079   4.722   2.107  0.9709 -0.4082  0.2910
15534TIP3   OH268092   3.117   3.338  15.619  0.3005  0.0576  0.3557
15534TIP3    H168093   3.145   3.357  15.530 -0.6269  0.4994  0.1538
15534TIP3    H268094   3.082   3.420  15.652 -0.7191 -0.4624  0.6102
15535TIP3   OH268095   1.757   4.573  14.286 -0.4813  0.3604 -0.4692
15535TIP3    H168096   1.779   4.529  14.204  1.5115  0.0568  0.1778
15535TIP3    H268097   1.703   4.648  14.259  0.3355  0.4167 -2.0805
15536TIP3   OH268098   0.756   2.329   4.164  0.0928 -0.3121  0.3209
15536TIP3    H168099   0.835   2.278   4.145  2.3049  2.2727  1.7866
15536TIP3    H268100   0.743   2.382   4.085  0.6695  0.2031  0.5601
15537TIP3   OH268101   5.262   6.648  13.609  0.6326  0.8996 -0.2839
15537TIP3    H168102   5.329   6.716  13.616 -0.6288  2.0307  1.5484
15537TIP3    H268103   5.217   6.649  13.694  0.2242 -1.9005 -0.3600
15538TIP3   OH268104   1.813   1.145  11.824  0.1191  0.0600 -0.3196
15538TIP3    H168105   1.824   1.130  11.918 -0.0131 -1.2071 -0.4880
15538TIP3    H268106   1.841   1.236  11.811 -2.0667  1.0751  1.3132
15539TIP3   OH268107   0.363   0.058   2.058 -0.0692 -0.2365 -0.2964
15539TIP3    H168108   0.400   0.055   2.146 -0.2141  0.8005 -0.1801
15539TIP3    H268109   0.389   0.144   2.024 -0.1308 -0.5659 -1.2138
15540TIP3   OH268110   2.411   3.707   2.583  0.1554  0.1887  0.2270
15540TIP3    H168111   2.477   3.722   2.515  0.0593 -1.1494 -0.1922
15540TIP3    H268112   2.453   3.645   2.642  0.7843  2.3626  2.2262
15541TIP3   OH268113   6.512   0.700  11.476 -0.3940 -0.3102  0.3925
15541TIP3    H168114   6.523   0.618  11.427  1.2559 -0.0029  0.1829
15541TIP3    H268115   6.440   0.745  11.431  0.6303 -0.3461 -1.3774
15542TIP3   OH268116   2.760   3.510  11.490  0.4777  0.7349  0.5829
15542TIP3    H168117   2.764   3.418  11.466 -0.2394  1.1935 -1.4708
15542TIP3    H268118   2.827   3.520  11.557  2.0434 -0.8490 -0.6652
15543TIP3   OH268119   1.925   0.002   1.495 -0.9755  0.0865  0.5303
15543TIP3    H168120   1.894   0.023   1.407  1.3827  0.6352 -0.2524
15543TIP3    H268121   1.947  -0.091   1.492 -0.9563  0.0898  0.5654
15544TIP3   OH268122   4.970   5.234   0.262  0.3947 -0.0472 -0.2690
15544TIP3    H168123   5.063   5.211   0.262 -0.0034 -2.1155  1.7784
15544TIP3    H268124   4.967   5.324   0.295  1.6215 -0.5754  1.4218
15545TIP3   OH268125   5.067   3.835   1.394  0.6962 -0.3793 -0.3757
15545TIP3    H168126   4.978   3.808   1.369  0.0755  0.7353  0.5455
15545TIP3    H268127   5.092   3.774   1.463  1.1235 -1.4166 -1.4161
15546TIP3   OH268128   4.849   4.271  10.893  0.4688  0.5256 -0.2917
15546TIP3    H168129   4.829   4.223  10.973  0.7694 -0.3132 -0.7130
15546TIP3    H268130   4.846   4.206  10.824  2.2797  0.8066 -0.6965
15547TIP3   OH268131   2.038   1.457   4.320  0.9283 -0.4738 -0.0697
15547TIP3    H168132   1.968   1.472   4.384 -1.1968 -0.4474 -2.2736
15547TIP3    H268133   2.006   1.388   4.263  2.9852 -0.8957 -0.8269
15548TIP3   OH268134   3.197   5.736  16.091 -0.3524  0.0148  0.0990
15548TIP3    H168135   3.126   5.763  16.149 -0.3192 -2.5201  1.4901
15548TIP3    H268136   3.155   5.724  16.006 -1.3539 -0.2956  0.6170
15549TIP3   OH268137   6.227   4.025  16.418  0.8123  0.3091  0.1693
15549TIP3    H168138   6.288   3.980  16.360  0.0059  1.0157 -1.2864
15549TIP3    H268139   6.282   4.083  16.470  1.8095 -1.8302  1.6888
15550TIP3   OH268140   2.742   4.434  15.434 -0.2596 -0.1154 -0.1745
15550TIP3    H168141   2.755   4.358  15.377  0.1568 -0.0846 -0.1248
15550TIP3    H268142   2.695   4.400  15.509  1.3132 -0.6739  0.6074
15551TIP3   OH268143   1.431   5.560  16.019 -0.3755  0.5408  0.0042
15551TIP3    H168144   1.346   5.550  16.062 -0.3604  0.1877 -0.0516
15551TIP3    H268145   1.493   5.513  16.074  0.2112  2.6691  1.2902
15552TIP3   OH268146   0.235   6.344  13.605 -0.3900  0.3415  0.2696
15552TIP3    H168147   0.174   6.356  13.532  1.9729  0.4073 -1.8213
15552TIP3    H268148   0.217   6.255  13.637 -0.5109 -0.2727 -1.3915
15553TIP3   OH268149   4.722   5.968   5.488 -0.3332  0.0967 -0.0588
15553TIP3    H168150   4.757   5.910   5.421 -1.4009  1.9137 -2.3065
15553TIP3    H268151   4.634   5.933   5.505 -0.6376  0.5151 -0.7488
15554TIP3   OH268152   6.641   4.291   5.658 -0.0083  0.0233  0.1069
15554TIP3    H168153   6.590   4.226   5.707 -0.6437  1.2978  1.1975
15554TIP3    H268154   6.720   4.304   5.711  0.4975 -0.4053 -0.5145
15555TIP3   OH268155   0.604   1.842  14.990 -0.1746  0.0647 -0.5453
15555TIP3    H168156   0.699   1.837  15.000 -0.2836 -0.8109  0.2153
15555TIP3    H268157   0.577   1.752  14.973 -0.8763  0.3006 -0.7388
15556TIP3   OH268158   2.992   2.197   0.920 -0.1729  0.1289 -0.2626
15556TIP3    H168159   3.068   2.254   0.914 -0.4560  0.6070  0.5820
15556TIP3    H268160   2.950   2.221   1.003  0.2568 -1.9737  0.6294
15557TIP3   OH268161   1.531   6.795   2.815 -0.2334 -0.0430  0.5596
15557TIP3    H168162   1.601   6.812   2.752 -0.6494 -1.2007 -0.2469
15557TIP3    H268163   1.451   6.805   2.764 -0.6199  0.3378  1.2430
15558TIP3   OH268164   2.406   5.826  12.784  0.1206 -1.1205 -0.0447
15558TIP3    H168165   2.340   5.781  12.837 -1.0053 -0.2272 -0.6283
15558TIP3    H268166   2.359   5.852  12.705  1.1169 -0.2532 -0.3770
15559TIP3   OH268167   6.107   2.855  15.264 -0.1272  0.2907  0.4964
15559TIP3    H168168   6.149   2.844  15.349  0.8247 -0.8645 -0.0973
15559TIP3    H268169   6.179   2.851  15.201 -1.0377 -1.2367 -0.5185
15560TIP3   OH268170   2.253   2.433   5.627  0.0911 -0.9735  0.2229
15560TIP3    H168171   2.159   2.443   5.618  0.2480 -0.4729 -1.0472
15560TIP3    H268172   2.277   2.488   5.701 -0.3695  0.4181 -0.6418
15561TIP3   OH268173   0.950   3.923  15.140 -0.0298 -0.5320 -0.6220
15561TIP3    H168174   1.011   3.858  15.173 -0.5198 -1.1232 -0.8541
15561TIP3    H268175   0.994   4.007  15.154  0.0173 -0.7961  0.9953
15562TIP3   OH268176   5.965   1.905  13.249  0.1711 -0.2372  0.3433
15562TIP3    H168177   6.006   1.859  13.321  0.3071 -1.4711 -0.5038
15562TIP3    H268178   6.024   1.893  13.175  0.6967  2.1054  0.3001
15563TIP3   OH268179   5.269   5.126   2.981  0.1025  0.0618 -0.2258
15563TIP3    H168180   5.326   5.051   2.994 -1.8833 -1.3727  0.6881
15563TIP3    H268181   5.248   5.156   3.070 -0.6905  0.4446 -0.5295
15564TIP3   OH268182   4.258   6.741   3.785 -0.1133 -0.5953 -0.1205
15564TIP3    H168183   4.293   6.829   3.772  1.3289 -1.1689 -0.3964
15564TIP3    H268184   4.250   6.705   3.696  0.2063 -1.0520  0.0306
15565TIP3   OH268185   6.600   2.176   4.755 -0.5978  0.2652  0.0280
15565TIP3    H168186   6.654   2.245   4.793  0.5913 -0.5923 -0.0479
15565TIP3    H268187   6.527   2.222   4.715 -0.7653  1.3455  1.5058
15566TIP3   OH268188   5.348   3.881  12.492 -0.1859 -0.0698 -0.0084
15566TIP3    H168189   5.331   3.944  12.421  0.4638 -0.6120 -0.6523
15566TIP3    H268190   5.436   3.849  12.475 -0.7649 -1.6972 -0.1001
15567TIP3   OH268191   6.288   4.150  16.040  0.0612 -0.6491  0.0478
15567TIP3    H168192   6.200   4.153  16.078  0.0809 -0.3972  0.0756
15567TIP3    H268193   6.275   4.171  15.948  0.2040  0.3716  0.2504
15568TIP3   OH268194   3.895   4.140   4.385 -0.1108  0.4198 -0.4370
15568TIP3    H168195   3.899   4.062   4.330  0.2329  1.1829 -1.5401
15568TIP3    H268196   3.925   4.112   4.471  0.6984 -0.5024 -1.0080
15569TIP3   OH268197   4.478   4.029  16.170 -0.6337 -0.0573 -0.3708
15569TIP3    H168198   4.463   4.080  16.250 -1.8305 -1.8813  0.6382
15569TIP3    H268199   4.466   4.092  16.099 -2.7829  0.9409  0.7828
15570TIP3   OH268200   3.120   0.769   5.904  0.2743 -0.3485 -0.0042
15570TIP3    H168201   3.179   0.819   5.961 -1.1997 -0.7042  1.9240
15570TIP3    H268202   3.100   0.830   5.832 -0.0697  1.2005  1.3431
15571TIP3   OH268203   1.408   4.910  13.807  0.2257  0.3450  0.0285
15571TIP3    H168204   1.422   4.885  13.898 -0.7193  0.5381  0.2330
15571TIP3    H268205   1.449   4.996  13.799 -1.0267  1.0398  0.6970
15572TIP3   OH268206   2.009   0.797   1.771  0.4314 -0.3035 -0.3372
15572TIP3    H168207   2.083   0.847   1.805  0.0922  0.1147 -0.2120
15572TIP3    H268208   2.046   0.746   1.699  1.0843 -0.9445  0.4295
15573TIP3   OH268209   6.728   2.394  13.413  0.4975  0.0365 -0.0446
15573TIP3    H168210   6.691   2.444  13.486 -2.7374 -0.4446 -1.1885
15573TIP3    H268211   6.703   2.443  13.335  2.5856 -0.2527 -0.9424
15574TIP3   OH268212   3.275   4.822   2.775  0.7155  0.2789  0.0610
15574TIP3    H168213   3.229   4.738   2.774 -0.6519  0.9157  2.2279
15574TIP3    H268214   3.263   4.857   2.686  0.1764 -1.2173 -0.4835
15575TIP3   OH268215   4.196   0.434  14.748 -0.1395 -0.3683 -0.1503
15575TIP3    H168216   4.165   0.513  14.704 -0.7616 -0.1733  0.6334
15575TIP3    H268217   4.216   0.462  14.837  1.8257 -0.5965 -0.4748
15576TIP3   OH268218   0.638   4.575  14.361  0.0307 -0.2324  0.2707
15576TIP3    H168219   0.689   4.642  14.315  1.8291 -1.5411  0.2611
15576TIP3    H268220   0.561   4.561  14.305  0.8992  0.0360 -1.0319
15577TIP3   OH268221   6.124   4.517   1.126 -0.0066  0.6532  0.1170
15577TIP3    H168222   6.118   4.464   1.047  0.1288  1.6506 -0.5802
15577TIP3    H268223   6.105   4.456   1.198  2.1279 -0.8181 -0.4736
15578TIP3   OH268224   0.437   4.633   2.635 -0.2185 -0.2573  0.0065
15578TIP3    H168225   0.357   4.590   2.667  0.0278  0.0329  1.0613
15578TIP3    H268226   0.418   4.653   2.544 -0.3740 -2.5271 -0.5186
15579TIP3   OH268227   2.972   1.326  14.951 -0.4576  0.3502 -0.8449
15579TIP3    H168228   3.031   1.254  14.972 -0.4889  0.0400 -1.7994
15579TIP3    H268229   3.030   1.402  14.938 -0.5074  0.9431  1.7331
15580TIP3   OH268230   3.387   2.328   3.846  0.0904  0.3099 -0.4373
15580TIP3    H168231   3.360   2.282   3.766 -1.8769  1.0153 -0.2362
15580TIP3    H268232   3.341   2.283   3.917  1.3777  0.0437  0.2490
15581TIP3   OH268233   2.082   5.707  16.707  0.0604 -0.1805  0.0123
15581TIP3    H168234   1.987   5.712  16.718  0.1096 -0.6191  0.6640
15581TIP3    H268235   2.095   5.696  16.613 -0.4727  1.2477 -0.2546
15582TIP3   OH268236   0.565   1.291   3.218 -0.1190  0.8695  0.1671
15582TIP3    H168237   0.504   1.218   3.232 -0.6243  1.3110  0.3027
15582TIP3    H268238   0.627   1.258   3.154 -1.6468  1.0523 -1.4986
15583TIP3   OH268239   4.150   0.266   5.556 -0.3113  0.2123 -0.0311
15583TIP3    H168240   4.113   0.341   5.510  1.4532  2.3271  1.7707
15583TIP3    H268241   4.170   0.203   5.487 -2.7198  0.9124 -1.5085
15584TIP3   OH268242   0.331   2.681  16.188  0.6727  0.5830  0.1697
15584TIP3    H168243   0.261   2.739  16.220  0.0412  1.1608 -2.0660
15584TIP3    H268244   0.390   2.671  16.263 -1.5012  0.5040  1.9845
15585TIP3   OH268245   2.457   5.665   2.678  0.4170  0.2164 -0.0061
15585TIP3    H168246   2.490   5.580   2.649  2.2374  0.4860  1.0869
15585TIP3    H268247   2.484   5.726   2.610  0.5236  0.1554 -0.0186
15586TIP3   OH268248   1.045   4.608   5.972 -0.8819 -0.0341 -1.2497
15586TIP3    H168249   1.008   4.580   6.055  1.7867 -0.6330 -0.1518
15586TIP3    H268250   1.072   4.698   5.986  0.2455 -0.3618 -1.1603
15587TIP3   OH268251   0.355   6.167  16.212 -0.4092  0.8288  0.2370
15587TIP3    H168252   0.333   6.075  16.218 -2.0491  1.0727 -1.1626
15587TIP3    H268253   0.451   6.169  16.213 -0.3165 -0.9900 -0.8499
15588TIP3   OH268254   4.818   2.379   3.151 -0.1046  0.0272  0.1379
15588TIP3    H168255   4.754   2.387   3.221  1.1280  1.6424  1.1534
15588TIP3    H268256   4.895   2.340   3.193 -0.2249 -1.4892 -0.9589
15589TIP3   OH268257   0.533   0.868   0.448 -0.3335 -0.5872  0.2716
15589TIP3    H168258   0.579   0.811   0.510  0.2394 -1.1414 -0.6543
15589TIP3    H268259   0.602   0.907   0.395 -0.4747  2.7401  2.2471
15590TIP3   OH268260   2.990   6.159  10.981  0.3515 -0.2242 -0.0740
15590TIP3    H168261   3.050   6.229  11.004  0.4653 -0.3127 -0.1013
15590TIP3    H268262   2.974   6.170  10.888 -1.1047  0.9103  0.2775
15591TIP3   OH268263   5.381   4.681  16.688 -0.0518  0.0581  0.2178
15591TIP3    H168264   5.455   4.735  16.661 -0.0980 -0.1365 -0.2964
15591TIP3    H268265   5.378   4.692  16.783  0.3875  0.3829  0.1986
15592TIP3   OH268266   5.221   3.300  14.279 -0.5719 -0.2169 -0.3305
15592TIP3    H168267   5.148   3.284  14.338 -0.3127 -1.2525 -0.2673
15592TIP3    H268268   5.182   3.302  14.192 -0.8564  0.6150 -0.1906
15593TIP3   OH268269   4.735   3.149  11.154 -0.3733  0.0890  0.4141
15593TIP3    H168270   4.683   3.070  11.162  1.0220 -0.8925  0.2187
15593TIP3    H268271   4.751   3.159  11.060  2.9125 -1.8411  0.6163
15594TIP3   OH268272   6.248   6.412   6.438 -0.2740 -1.0683 -0.2079
15594TIP3    H168273   6.327   6.418   6.384  0.2955  0.8773  0.7535
15594TIP3    H268274   6.278   6.374   6.520 -0.6931 -1.9159 -0.4399
15595TIP3   OH268275   2.544   4.275   3.495 -0.1806  0.3179  0.1873
15595TIP3    H168276   2.461   4.235   3.521  0.5155 -0.4239  1.4067
15595TIP3    H268277   2.577   4.219   3.425 -0.5422  0.4082 -0.0566
15596TIP3   OH268278   2.677   3.319   6.247 -0.1830 -0.3330 -0.4488
15596TIP3    H168279   2.711   3.408   6.257 -0.0404 -0.3701 -0.5968
15596TIP3    H268280   2.669   3.286   6.336 -1.1026  0.1524 -0.3321
15597TIP3   OH268281   2.394   0.971   6.094  0.3001  0.4814 -0.0838
15597TIP3    H168282   2.327   1.022   6.140 -1.4283 -1.3995 -0.4091
15597TIP3    H268283   2.375   0.880   6.116  1.0353 -0.3085 -2.4233
15598TIP3   OH268284   2.463   5.643  11.564 -0.5778 -0.0508  0.2264
15598TIP3    H168285   2.387   5.691  11.596 -1.1276  0.3792 -1.6285
15598TIP3    H268286   2.446   5.630  11.471  0.7530 -1.6187  0.1573
15599TIP3   OH268287   2.149   4.569  11.843  0.3841 -0.2612 -0.1996
15599TIP3    H168288   2.106   4.574  11.928  1.4459 -0.1517  0.3411
15599TIP3    H268289   2.144   4.658  11.808  2.2281  0.3385  0.9172
15600TIP3   OH268290   5.766   2.896  16.596 -0.2713 -0.5421 -0.0913
15600TIP3    H168291   5.692   2.852  16.638  0.2366 -0.8778  0.4638
15600TIP3    H268292   5.795   2.835  16.528 -0.7756 -0.2159 -0.6157
15601TIP3   OH268293   4.637   2.937  14.350  0.4625 -0.5903  0.2083
15601TIP3    H168294   4.653   3.029  14.371  0.2068  0.3577 -3.1944
15601TIP3    H268295   4.723   2.896  14.360  0.7083  0.1166  1.1853
15602TIP3   OH268296   0.332   5.613  12.683 -0.4192 -0.7808  0.1826
15602TIP3    H168297   0.275   5.682  12.716  0.9908  0.6034 -0.1314
15602TIP3    H268298   0.403   5.608  12.747  0.2053 -0.9552 -0.5103
15603TIP3   OH268299   0.196   6.545   4.406  0.4028  0.0807  0.1722
15603TIP3    H168300   0.221   6.503   4.324  1.0036  3.2369 -1.4349
15603TIP3    H268301   0.266   6.522   4.467  1.0514 -0.6682 -0.8243
15604TIP3   OH268302   4.016   0.891   1.176  0.4311  0.2733  0.1681
15604TIP3    H168303   4.108   0.874   1.197  0.4732  2.5683  2.3570
15604TIP3    H268304   4.018   0.974   1.127 -0.4888  0.5276  0.5429
15605TIP3   OH268305   3.768   5.563   0.354  0.6258  0.3353 -0.1597
15605TIP3    H168306   3.849   5.574   0.404  1.2120 -0.7953 -0.8253
15605TIP3    H268307   3.708   5.628   0.391  1.0945 -0.3016  1.8558
15606TIP3   OH268308   5.399   3.521  11.547 -0.5388 -0.1228  0.5777
15606TIP3    H168309   5.394   3.547  11.639  0.5374  0.1744  0.5583
15606TIP3    H268310   5.418   3.602  11.500 -0.1254 -0.4387  0.1971
15607TIP3   OH268311   3.211   6.726   2.834 -0.0181 -0.9591  0.4341
15607TIP3    H168312   3.251   6.794   2.889 -0.1744 -1.4030  1.1161
15607TIP3    H268313   3.120   6.723   2.862 -0.6326  0.2732 -1.3527
15608TIP3   OH268314   5.958   5.606  12.870  0.2778  0.8428 -0.0338
15608TIP3    H168315   5.883   5.596  12.811  1.0002 -2.1541 -0.5962
15608TIP3    H268316   5.919   5.609  12.957 -0.5562  0.9750 -0.3961
15609TIP3   OH268317   4.155   3.148   0.015  0.4443 -0.0212  0.4841
15609TIP3    H168318   4.130   3.184   0.100 -1.6645 -1.5727  0.5843
15609TIP3    H268319   4.189   3.061   0.035  1.6191  0.2713 -0.1324
15610TIP3   OH268320   0.162   0.405  15.121 -0.4361 -0.8971  0.2223
15610TIP3    H168321   0.213   0.413  15.040 -0.6330 -0.4008  0.1452
15610TIP3    H268322   0.073   0.429  15.096 -0.5753 -1.1163  0.5048
15611TIP3   OH268323   0.640   2.922  13.184  0.1480  0.4935 -0.3825
15611TIP3    H168324   0.613   2.831  13.195 -1.8064  1.0956  0.4162
15611TIP3    H268325   0.730   2.918  13.153 -0.0522 -1.7024 -0.7971
15612TIP3   OH268326   1.590   0.135   0.325 -0.3121  0.0381  0.2037
15612TIP3    H168327   1.673   0.152   0.369  0.1157 -1.7189  0.1299
15612TIP3    H268328   1.537   0.088   0.390 -0.3283 -1.0170 -0.5498
15613TIP3   OH268329   2.197   3.604   0.614  0.5879 -0.7475  0.2752
15613TIP3    H168330   2.115   3.613   0.663  1.1458 -0.2226  1.1372
15613TIP3    H268331   2.243   3.686   0.629  1.4814 -1.2300  0.1997
15614TIP3   OH268332   1.741   4.942   5.089 -0.0411 -0.9026  0.6245
15614TIP3    H168333   1.821   4.950   5.140  0.7809  0.6919 -0.8114
15614TIP3    H268334   1.701   4.860   5.119  0.9172 -0.5775  3.0100
15615TIP3   OH268335   4.673   2.566   3.888 -0.7472 -0.3436  0.6002
15615TIP3    H168336   4.678   2.632   3.819 -1.8900 -0.5573  0.2826
15615TIP3    H268337   4.756   2.519   3.884  1.9477  3.5899  3.5103
15616TIP3   OH268338   1.523   5.194  10.090 -0.8858 -0.0837 -0.0406
15616TIP3    H168339   1.473   5.165  10.014  0.6939 -0.5167 -0.9476
15616TIP3    H268340   1.510   5.289  10.092 -1.3286 -0.1301 -0.5572
15617TIP3   OH268341   0.655   4.401  16.246 -0.4119  0.0709  0.3091
15617TIP3    H168342   0.692   4.429  16.330  0.2587  1.5129 -0.4343
15617TIP3    H268343   0.562   4.386  16.265 -0.3991  0.9933  1.1727
15618TIP3   OH268344   2.905   6.379   2.871 -0.0051  0.0652 -0.6793
15618TIP3    H168345   2.996   6.389   2.900 -0.1913  1.4652 -0.4999
15618TIP3    H268346   2.904   6.415   2.782 -0.7155  1.7717 -0.0274
15619TIP3   OH268347   5.252   3.645   1.094 -0.2612  0.4757  0.1941
15619TIP3    H168348   5.233   3.560   1.056  2.7394 -0.3969  0.4308
15619TIP3    H268349   5.315   3.628   1.164  0.5828  2.8873  0.1444
15620TIP3   OH268350   4.541   1.069  14.061  0.6142 -0.2638  0.3432
15620TIP3    H168351   4.470   1.032  14.113  1.2449 -1.2493  0.5244
15620TIP3    H268352   4.582   1.133  14.120 -0.4215  0.7118  0.0535
15621TIP3   OH268353   6.320   3.848  17.067 -0.1162 -0.2355  0.0724
15621TIP3    H168354   6.260   3.790  17.019 -0.1223  0.4762 -0.8070
15621TIP3    H268355   6.350   3.911  17.001 -0.1136  0.7734  1.0144
15622TIP3   OH268356   6.799   3.979  14.172 -0.1642  0.2556  0.1810
15622TIP3    H168357   6.835   4.065  14.150 -0.6062  0.2816 -0.4828
15622TIP3    H268358   6.705   3.987  14.154 -0.3312 -0.1364  0.8503
15623TIP3   OH268359   2.167   6.660  15.737  0.3629 -0.1097 -0.0979
15623TIP3    H168360   2.115   6.647  15.817  0.5813  1.0000  0.2445
15623TIP3    H268361   2.103   6.675  15.668  0.1583 -1.4280 -0.2243
15624TIP3   OH268362   0.293   0.601   0.247 -0.2336  0.3270 -0.1269
15624TIP3    H168363   0.320   0.524   0.298 -0.6516  1.1861  1.4899
15624TIP3    H268364   0.372   0.628   0.200  0.1308 -0.6004 -0.0652
15625TIP3   OH268365   6.483   1.640  10.649 -0.5386  0.2020  0.1385
15625TIP3    H168366   6.541   1.590  10.591  1.3292  2.6987 -0.2839
15625TIP3    H268367   6.533   1.719  10.671 -2.1661  0.5203  3.1978
15626TIP3   OH268368   4.356   4.490  15.682  0.5288  0.2395 -0.2075
15626TIP3    H168369   4.423   4.472  15.748  0.5166 -0.9752 -0.5050
15626TIP3    H268370   4.331   4.404  15.649  1.0885  0.8255 -2.3577
15627TIP3   OH268371   2.889   1.366  15.246  0.2191  0.7395  0.3497
15627TIP3    H168372   2.881   1.458  15.271  0.0166  1.1328 -1.0414
15627TIP3    H268373   2.888   1.368  15.150  0.0375 -0.7322  0.3043
15628TIP3   OH268374   4.664   4.309  14.584  0.3336 -0.4484 -0.3529
15628TIP3    H168375   4.727   4.363  14.631 -0.5408  0.4276 -0.1456
15628TIP3    H268376   4.669   4.224  14.628  0.8652 -0.1830  0.1185
15629TIP3   OH268377   3.623   5.868   3.445 -0.1926 -0.2462 -0.4258
15629TIP3    H168378   3.535   5.904   3.438 -0.1449  0.1444  0.7288
15629TIP3    H268379   3.681   5.939   3.418 -0.1986 -0.2372 -0.4148
15630TIP3   OH268380   2.262   6.583   0.693  0.6765 -0.2229 -0.4930
15630TIP3    H168381   2.357   6.588   0.702  0.7554 -0.9103 -0.9472
15630TIP3    H268382   2.242   6.490   0.700  0.0118 -0.0612 -0.1729
15631TIP3   OH268383   6.555   4.577   0.690  0.2937 -0.3657  0.5822
15631TIP3    H168384   6.603   4.535   0.761  1.0796 -0.5697 -0.0539
15631TIP3    H268385   6.485   4.516   0.668  0.9176 -0.9660  0.2334
15632TIP3   OH268386   5.087   2.124  14.715 -0.0275 -0.0902 -0.2758
15632TIP3    H168387   5.078   2.124  14.811  0.7175  2.5670 -0.1306
15632TIP3    H268388   5.106   2.033  14.693  0.3597 -0.6760  2.1716
15633TIP3   OH268389   0.584   3.347  14.576  0.2816 -0.2976  0.2867
15633TIP3    H168390   0.596   3.296  14.495 -1.1771  0.6011 -0.5357
15633TIP3    H268391   0.489   3.354  14.586  0.4462  1.1958  1.0514
15634TIP3   OH268392   3.379   5.831   2.335 -0.3497  0.0374 -0.1884
15634TIP3    H168393   3.384   5.739   2.306 -1.6061  0.1046 -0.6767
15634TIP3    H268394   3.377   5.825   2.430  0.8304 -0.3554 -0.1627
15635TIP3   OH268395   3.078   0.261  13.720  0.0251 -0.4834 -0.3945
15635TIP3    H168396   3.111   0.209  13.793  0.9546  0.1282 -0.3552
15635TIP3    H268397   3.055   0.198  13.653 -1.1924 -1.0836  0.5502
15636TIP3   OH268398   0.231   1.463  11.109 -0.5754  0.1732 -0.2757
15636TIP3    H168399   0.208   1.556  11.105 -0.8019  0.1107 -0.4316
15636TIP3    H268400   0.153   1.420  11.142 -0.4442  0.0466 -0.1312
15637TIP3   OH268401   6.751   2.976  15.936  0.0688 -0.2498 -0.5048
15637TIP3    H168402   6.705   3.058  15.955 -0.1058 -0.6370  0.8953
15637TIP3    H268403   6.695   2.931  15.873  1.6237  1.9651 -3.7390
15638TIP3   OH268404   0.934   6.458   5.361 -0.2626  0.6900  0.3164
15638TIP3    H168405   0.878   6.523   5.402  0.0888  0.8428  0.5638
15638TIP3    H268406   1.018   6.503   5.348  0.6582 -0.2975  2.3916
15639TIP3   OH268407   5.859   6.211  14.094  0.0614  0.3472 -0.0735
15639TIP3    H168408   5.807   6.178  14.021  0.3562  0.4420 -0.3337
15639TIP3    H268409   5.796   6.246  14.156 -0.1817  0.4958 -0.4034
15640TIP3   OH268410   6.349   6.526  17.249  0.0239  0.2290  0.4021
15640TIP3    H168411   6.338   6.583  17.325  0.5417  0.8961 -0.0116
15640TIP3    H268412   6.379   6.584  17.179  1.7519 -0.7210  0.2891
15641TIP3   OH268413   2.225   0.471   3.867  0.2540  0.5760 -0.7792
15641TIP3    H168414   2.194   0.381   3.857 -0.0327  0.7161 -1.2070
15641TIP3    H268415   2.149   0.519   3.898 -0.0386  0.9658 -2.0549
15642TIP3   OH268416   1.955   5.437   2.684  0.1504 -0.0388 -0.2177
15642TIP3    H168417   1.870   5.474   2.707 -0.2597 -0.2034 -1.4096
15642TIP3    H268418   1.935   5.358   2.634  1.0071 -0.2038 -0.3195
15643TIP3   OH268419   6.604   6.501  11.415  0.2568  0.1497 -0.0176
15643TIP3    H168420   6.663   6.443  11.464 -0.7948 -1.4366 -0.5258
15643TIP3    H268421   6.558   6.442  11.354 -1.8299  1.2957  0.3493
15644TIP3   OH268422   4.681   4.668  12.594  0.5071  0.3436  0.1947
15644TIP3    H168423   4.598   4.628  12.620  1.1609 -0.7515  0.6711
15644TIP3    H268424   4.737   4.659  12.671  0.3149  3.4223  0.8557
15645TIP3   OH268425   2.660   1.208  16.876  0.5078 -0.1287  0.1592
15645TIP3    H168426   2.587   1.246  16.827 -0.5935 -2.1964  0.0888
15645TIP3    H268427   2.644   1.232  16.967  0.9912  1.3080 -0.1190
15646TIP3   OH268428   6.087   2.854  11.372  0.0437 -0.0569  0.1810
15646TIP3    H168429   6.063   2.828  11.283 -1.1481 -0.5151  0.6222
15646TIP3    H268430   6.039   2.794  11.429  1.4075 -0.2776  1.1366
15647TIP3   OH268431   1.558   4.107   5.450 -0.3883  0.4596 -0.1399
15647TIP3    H168432   1.620   4.092   5.379 -0.0075  1.3868 -0.0273
15647TIP3    H268433   1.473   4.117   5.407 -1.0105 -3.3266 -0.1387
15648TIP3   OH268434   5.936   2.499   4.992 -0.1123  0.5344  0.2121
15648TIP3    H168435   5.895   2.474   4.909  2.0237  0.6382 -0.9494
15648TIP3    H268436   6.016   2.446   4.996 -0.2326  0.4356  2.2882
15649TIP3   OH268437   1.116   3.357  12.652  0.2868 -0.0638  0.3443
15649TIP3    H168438   1.033   3.315  12.673 -1.3725  2.5389 -0.5487
15649TIP3    H268439   1.128   3.343  12.559 -0.0942  1.0361  0.1136
15650TIP3   OH268440   6.067   0.433   5.261 -0.3747  0.0279 -0.5791
15650TIP3    H168441   6.007   0.428   5.186 -0.2527 -2.3459 -0.5986
15650TIP3    H268442   6.142   0.380   5.234  0.1045 -0.0492  0.8441
15651TIP3   OH268443   1.944   5.020   5.978  0.3898  0.0716  0.0569
15651TIP3    H168444   2.033   4.996   6.004  0.9072  2.5065  0.7705
15651TIP3    H268445   1.905   5.056   6.057 -1.2021 -0.8023 -0.3000
15652TIP3   OH268446   0.528   5.268   1.570  0.0652 -0.4713 -0.1065
15652TIP3    H168447   0.566   5.231   1.490  0.2402 -0.3886 -0.0616
15652TIP3    H268448   0.438   5.290   1.546 -0.3141 -1.7134  0.0936
15653TIP3   OH268449   1.894   2.361   3.346 -0.2876 -0.7520  0.4979
15653TIP3    H168450   1.920   2.429   3.408  0.1463  0.4076 -0.9092
15653TIP3    H268451   1.807   2.334   3.376 -0.1354 -0.1479  1.5391
15654TIP3   OH268452   3.070   6.373  12.728 -0.0495  0.0592 -0.5543
15654TIP3    H168453   3.112   6.355  12.644  0.2198 -0.4185 -0.3257
15654TIP3    H268454   2.991   6.319  12.729  0.1419 -0.2264 -0.3548
15655TIP3   OH268455   3.154   4.828  16.481 -0.0658 -0.0023 -0.3776
15655TIP3    H168456   3.186   4.807  16.568  0.9018 -0.8908 -0.9311
15655TIP3    H268457   3.106   4.749  16.453 -1.4464  0.7299 -0.1797
15656TIP3   OH268458   2.839   3.841   5.326  0.9226  0.3582  0.1141
15656TIP3    H168459   2.857   3.766   5.383  2.1089  0.7503  0.2627
15656TIP3    H268460   2.746   3.860   5.342  0.6242 -0.9875  0.1697
15657TIP3   OH268461   6.038   4.469   3.683  0.8825 -0.2805 -0.3021
15657TIP3    H168462   6.052   4.380   3.651  1.4369 -0.7027  1.0649
15657TIP3    H268463   5.944   4.485   3.670  1.0060 -0.5607 -1.7365
15658TIP3   OH268464   6.325   3.131  12.247  0.3881  0.4042 -0.2019
15658TIP3    H168465   6.329   3.083  12.329 -0.7020  0.8331  0.1195
15658TIP3    H268466   6.250   3.190  12.257  0.4124  0.6664 -1.3941
15659TIP3   OH268467   5.927   0.960   5.512 -0.1494 -0.2486  0.1225
15659TIP3    H168468   5.869   0.895   5.552 -1.0626 -1.5872 -3.0608
15659TIP3    H268469   5.871   1.008   5.452  1.3762  0.7065 -0.5952
15660TIP3   OH268470   2.400   4.656   0.297 -0.2468 -0.4056  0.1958
15660TIP3    H168471   2.375   4.575   0.340 -0.5170 -1.7452 -2.3151
15660TIP3    H268472   2.330   4.673   0.234  1.0858  0.3043 -1.1712
15661TIP3   OH268473   4.670   3.784   0.719 -0.0588 -0.6275  0.8318
15661TIP3    H168474   4.631   3.731   0.788  0.0373 -0.0566  1.3361
15661TIP3    H268475   4.677   3.872   0.757 -1.7028  0.1565 -0.5426
15662TIP3   OH268476   4.600   3.724  12.061  0.4375 -0.5273 -0.1896
15662TIP3    H168477   4.587   3.701  11.969 -2.2154  1.7205 -0.5022
15662TIP3    H268478   4.624   3.816  12.060 -1.2136 -0.0354  1.4059
15663TIP3   OH268479   1.502   0.575   5.526  0.3821  0.4804  0.0386
15663TIP3    H168480   1.573   0.574   5.590 -0.4741  0.2198  1.0212
15663TIP3    H268481   1.455   0.492   5.542 -0.2149  0.7115 -0.4849
15664TIP3   OH268482   4.199   2.151   0.291  0.5191  0.2705 -0.0358
15664TIP3    H168483   4.253   2.226   0.318  0.0631 -0.6130  3.8152
15664TIP3    H268484   4.261   2.080   0.276  0.7487  0.6789 -1.1424
15665TIP3   OH268485   1.678   5.724  12.115 -0.2792 -0.5899 -0.1101
15665TIP3    H168486   1.651   5.683  12.033  0.7874  0.3808 -0.9712
15665TIP3    H268487   1.694   5.816  12.092  1.3549 -0.5961  0.8797
15666TIP3   OH268488   3.069   1.740   4.719 -0.1708  0.2396 -0.4072
15666TIP3    H168489   3.013   1.670   4.753 -0.2526  1.6663  2.7053
15666TIP3    H268490   3.031   1.761   4.634 -2.1881 -1.2269  0.0374
15667TIP3   OH268491   0.354   2.875  12.042  0.2326 -0.8769  0.2401
15667TIP3    H168492   0.412   2.919  12.105 -0.2289  0.4937 -0.2388
15667TIP3    H268493   0.266   2.890  12.076 -0.0661  0.4026 -0.9838
15668TIP3   OH268494   6.376   5.544   5.511 -0.5978 -0.2949  0.1969
15668TIP3    H168495   6.359   5.450   5.513  0.5563 -0.5076  0.6184
15668TIP3    H268496   6.443   5.555   5.444  0.2883  0.0378  1.1126
15669TIP3   OH268497   2.895   1.559   0.067  0.2586 -0.0352 -0.1111
15669TIP3    H168498   2.823   1.618   0.089  1.0840  1.3814 -0.9717
15669TIP3    H268499   2.868   1.519  -0.016 -0.8083 -1.8157  1.0350
15670TIP3   OH268500   3.828   1.431   5.777  0.1634 -0.1786  0.4003
15670TIP3    H168501   3.851   1.512   5.731 -1.4275 -0.6319 -1.3046
15670TIP3    H268502   3.785   1.461   5.857 -1.1318  0.7216 -0.5849
15671TIP3   OH268503   5.973   6.543   4.921 -0.1986 -0.2495 -0.6035
15671TIP3    H168504   5.903   6.510   4.979  0.3580  0.6703  0.6438
15671TIP3    H268505   5.935   6.537   4.833 -2.1028  0.7998  0.0773
15672TIP3   OH268506   1.255   0.072   5.835 -0.1783 -0.0425  0.6345
15672TIP3    H168507   1.344   0.077   5.871  0.8101  1.9122 -1.7653
15672TIP3    H268508   1.267   0.042   5.744 -2.3793 -3.1332  1.1760
15673TIP3   OH268509   4.348   4.377  12.687 -0.7253  0.5536 -0.1340
15673TIP3    H168510   4.388   4.304  12.640  0.5893  0.3442  1.2476
15673TIP3    H268511   4.356   4.451  12.627  0.2576  0.1271 -0.5436
15674TIP3   OH268512   0.201   5.459  17.308 -0.0463 -0.8044  0.0657
15674TIP3    H168513   0.133   5.441  17.243 -1.8289 -0.2785  1.6910
15674TIP3    H268514   0.244   5.374  17.321 -0.0738 -1.0481 -1.3213
15675TIP3   OH268515   6.314   3.713   2.187 -0.0893 -0.0819 -0.2633
15675TIP3    H168516   6.262   3.725   2.107  1.1162  2.1239 -0.7905
15675TIP3    H268517   6.341   3.802   2.211  1.1842 -0.9053  1.5221
15676TIP3   OH268518   6.036   4.243  14.103  0.4197 -0.3165  0.1711
15676TIP3    H168519   6.058   4.266  14.193 -1.5460 -0.8515  0.8324
15676TIP3    H268520   6.045   4.148  14.100 -0.2609 -0.3778  0.0232
15677TIP3   OH268521   3.315   2.810  14.364  0.1518  0.5522  0.1971
15677TIP3    H168522   3.405   2.787  14.343  0.3633  0.8113  0.7985
15677TIP3    H268523   3.316   2.827  14.458  0.0698  3.1858 -0.1886
15678TIP3   OH268524   6.145   5.432   3.838  0.2134 -0.5077 -0.7801
15678TIP3    H168525   6.214   5.486   3.875 -0.1546 -1.0792  0.7947
15678TIP3    H268526   6.072   5.492   3.825  0.2715 -0.3441 -0.3680
15679TIP3   OH268527   6.308   2.703  12.441  0.0309  1.0783  0.3941
15679TIP3    H168528   6.355   2.764  12.385 -1.0985  1.2162 -0.4148
15679TIP3    H268529   6.291   2.627  12.385  0.2435  0.5682  1.0065
15680TIP3   OH268530   0.756   5.835   4.705  0.2117  0.4833  0.2305
15680TIP3    H168531   0.825   5.840   4.639  0.0672  2.4245  0.1607
15680TIP3    H268532   0.800   5.850   4.788 -0.0577  1.4933  0.2079
15681TIP3   OH268533   6.642   3.485  13.818 -0.6099  0.1860 -0.1594
15681TIP3    H168534   6.586   3.481  13.741 -1.0554 -1.1297  0.2033
15681TIP3    H268535   6.711   3.547  13.795 -1.1810  0.4148 -1.3066
15682TIP3   OH268536   6.071   2.431  11.373 -0.7141  0.2251 -0.3042
15682TIP3    H168537   6.121   2.513  11.377 -0.1429 -0.0679 -1.1220
15682TIP3    H268538   6.108   2.384  11.298 -1.7236 -0.3346 -0.4721
15683TIP3   OH268539   5.066   0.453  13.981 -0.3838  0.1610 -0.8565
15683TIP3    H168540   5.036   0.539  14.009  0.3477  0.3342 -0.5777
15683TIP3    H268541   5.004   0.426  13.914 -1.3299  0.3740 -0.0836
15684TIP3   OH268542   4.320   5.294  12.292  0.0493 -0.0809  0.0503
15684TIP3    H168543   4.284   5.351  12.360  0.2431 -0.7352  0.7212
15684TIP3    H268544   4.295   5.206  12.319 -1.4989 -0.2467 -1.7302
15685TIP3   OH268545   5.616   3.685   1.779  0.4101  0.9102  0.2592
15685TIP3    H168546   5.628   3.732   1.861 -3.0778  0.8032  0.9787
15685TIP3    H268547   5.582   3.599   1.805  0.4467  0.3863 -1.2768
15686TIP3   OH268548   6.772   4.447   3.121  0.3025  0.1872 -0.0903
15686TIP3    H168549   6.744   4.535   3.145  0.1818  0.7218 -1.9965
15686TIP3    H268550   6.787   4.403   3.204 -2.1051  1.1964  0.9778
15687TIP3   OH268551   3.864   0.274  15.691 -0.0433 -0.4158  0.4720
15687TIP3    H168552   3.928   0.285  15.761  0.4352  0.4115 -0.0753
15687TIP3    H268553   3.874   0.183  15.663  0.5545 -0.4255  0.7162
15688TIP3   OH268554   4.439   6.437   1.846  0.0047 -0.2250 -0.2848
15688TIP3    H168555   4.406   6.433   1.756 -0.2904  0.3867 -0.2098
15688TIP3    H268556   4.507   6.505   1.843 -0.5950  0.4066  0.1276
15689TIP3   OH268557   1.385   6.380  13.284 -0.3602  0.3278 -0.1560
15689TIP3    H168558   1.354   6.291  13.296  0.3622 -0.1064 -1.3358
15689TIP3    H268559   1.327   6.417  13.217 -0.8001  0.8327  0.4868
15690TIP3   OH268560   2.707   4.644  14.440 -0.1987 -0.1539  0.2265
15690TIP3    H168561   2.616   4.637  14.471 -0.8400  0.8089 -1.3152
15690TIP3    H268562   2.720   4.565  14.388 -0.1484 -0.3023  0.4642
15691TIP3   OH268563   5.061   1.605  14.062 -0.0908 -0.2891  0.0980
15691TIP3    H168564   5.021   1.667  14.124 -1.8754 -1.2154 -0.0643
15691TIP3    H268565   5.101   1.538  14.117  2.4232  1.2639  0.2924
15692TIP3   OH268566   3.337   5.920   2.813 -0.0255  0.0534 -0.2424
15692TIP3    H168567   3.320   6.008   2.779  0.1657  0.3847  0.4935
15692TIP3    H268568   3.379   5.935   2.898 -1.1024 -0.7298  0.4628
15693TIP3   OH268569   2.086   0.456   0.827  0.4785  0.6058 -0.2215
15693TIP3    H168570   2.175   0.491   0.833  0.6431  0.2073 -0.3047
15693TIP3    H268571   2.098   0.365   0.800  0.0555  0.4967 -0.0519
15694TIP3   OH268572   3.264   3.338  12.692 -0.1901 -0.3600  0.2250
15694TIP3    H168573   3.269   3.395  12.616 -0.0779 -0.8655 -0.1557
15694TIP3    H268574   3.347   3.351  12.738 -0.7584  0.8643  0.9427
15695TIP3   OH268575   1.473   1.008  13.819  0.1050 -0.6345 -0.8759
15695TIP3    H168576   1.534   0.945  13.857  0.1629 -0.3439 -0.4655
15695TIP3    H268577   1.388   0.987  13.859  0.4026  0.4613  0.4210
15696TIP3   OH268578   6.269   3.389  13.314 -0.5822  0.4018 -0.1273
15696TIP3    H168579   6.337   3.425  13.257  0.0692  0.9473  0.9661
15696TIP3    H268580   6.283   3.294  13.311  0.1181  0.4993 -0.0480
15697TIP3   OH268581   0.524   3.439  16.147 -0.7198 -0.3845  0.0294
15697TIP3    H168582   0.463   3.367  16.127 -0.4207 -0.0566 -2.3239
15697TIP3    H268583   0.610   3.397  16.150 -0.7088 -0.3528  0.1626
15698TIP3   OH268584   0.353   5.139  11.756  0.4913  0.1750  0.0875
15698TIP3    H168585   0.339   5.189  11.836 -0.3407 -2.1125  1.4654
15698TIP3    H268586   0.441   5.104  11.765  0.2191 -0.4816  0.2610
15699TIP3   OH268587   6.610   5.000  15.706  0.0572  0.9359  0.5261
15699TIP3    H168588   6.586   4.923  15.655  1.2040  0.9817 -0.1096
15699TIP3    H268589   6.546   5.002  15.778  0.2126 -0.8025  0.7660
15700TIP3   OH268590   3.142   6.809   6.285  0.0524  0.0310 -0.1502
15700TIP3    H168591   3.133   6.904   6.281  0.6475  0.0688 -0.7744
15700TIP3    H268592   3.056   6.778   6.314  0.0484  0.7958  0.6894
15701TIP3   OH268593   2.824   4.240   2.013  0.1397  0.4742 -0.2939
15701TIP3    H168594   2.828   4.154   2.054 -0.3686  0.9617  0.8188
15701TIP3    H268595   2.767   4.291   2.070  1.9271  2.1024  0.1474
15702TIP3   OH268596   2.925   1.934   0.846  0.1989 -0.4702 -0.2909
15702TIP3    H168597   2.935   2.016   0.895  0.7416 -0.9519  0.4282
15702TIP3    H268598   2.981   1.946   0.769  0.8620 -0.4442  0.1868
15703TIP3   OH268599   0.643   4.862   4.173 -0.0840 -0.3454  0.1655
15703TIP3    H168600   0.630   4.838   4.082  1.5655  1.3463 -0.5735
15703TIP3    H268601   0.597   4.946   4.183  2.3726  1.1094 -0.0550
15704TIP3   OH268602   5.733   6.698   0.479 -0.2595  0.1538  0.5708
15704TIP3    H168603   5.691   6.743   0.406  1.0036  0.1826 -0.1778
15704TIP3    H268604   5.746   6.608   0.448 -1.5883 -0.4163  1.5677
15705TIP3   OH268605   0.682   4.743  11.345  0.3830  0.1497  0.1220
15705TIP3    H168606   0.769   4.774  11.369  1.1132 -0.6654 -1.3777
15705TIP3    H268607   0.680   4.747  11.250 -2.3506  3.1105  0.1470
15706TIP3   OH268608   5.055   1.300  16.740 -0.7454  0.9755 -0.0522
15706TIP3    H168609   5.068   1.330  16.651  0.6679  1.9947  0.4546
15706TIP3    H268610   5.103   1.217  16.744 -0.5792  1.0658 -0.1685
15707TIP3   OH268611   1.205   5.372   0.327 -0.0095 -0.3721 -0.2768
15707TIP3    H168612   1.141   5.320   0.279 -1.0834  1.7194 -1.2296
15707TIP3    H268613   1.283   5.370   0.273  0.2349 -1.6013  0.0892
15708TIP3   OH268614   4.283   2.866   5.566 -0.8652 -0.4953 -0.0992
15708TIP3    H168615   4.237   2.783   5.559 -0.6293 -0.5747 -0.7836
15708TIP3    H268616   4.311   2.871   5.657 -1.0319 -1.0879 -0.0142
15709TIP3   OH268617   5.681   4.998  10.642 -0.0086  0.2026  0.2599
15709TIP3    H168618   5.649   5.088  10.629 -0.5079 -0.1237 -0.9586
15709TIP3    H268619   5.750   4.988  10.577 -2.3222 -1.3842 -2.2137
15710TIP3   OH268620   0.680   5.322  14.851 -0.1020  0.1355  0.2837
15710TIP3    H168621   0.708   5.237  14.884 -0.2124  0.1687  0.4614
15710TIP3    H268622   0.614   5.300  14.784  1.2393  0.0026 -1.0489
15711TIP3   OH268623   5.715   1.041  13.153  0.4990  0.0508 -0.1789
15711TIP3    H168624   5.645   0.977  13.165  1.5149 -1.2069 -0.8014
15711TIP3    H268625   5.748   1.024  13.065  0.0880  2.1639 -0.7936
15712TIP3   OH268626   6.442   5.354   4.299  0.0920 -0.3202 -0.0905
15712TIP3    H168627   6.364   5.360   4.355 -0.6091 -0.8869 -0.9692
15712TIP3    H268628   6.445   5.262   4.272 -0.3985  0.1957 -2.0712
15713TIP3   OH268629   6.378   4.177  14.296  0.0219 -0.1907  0.6395
15713TIP3    H168630   6.323   4.149  14.370 -0.3737  0.4813  0.6038
15713TIP3    H268631   6.361   4.111  14.228 -2.2800  1.0467 -0.0875
15714TIP3   OH268632   4.673   0.549   5.015 -0.0669 -0.2973 -0.0834
15714TIP3    H168633   4.747   0.497   5.046 -1.2338 -2.6714 -1.0398
15714TIP3    H268634   4.678   0.544   4.920  0.1783  2.0207 -0.2369
15715TIP3   OH268635   3.877   5.674  11.460  0.2968 -0.5139  0.2248
15715TIP3    H168636   3.832   5.616  11.521  0.3769  0.6038  1.3854
15715TIP3    H268637   3.957   5.626  11.435  1.8362  0.1783  3.3805
15716TIP3   OH268638   1.303   3.439   5.591  0.0406  0.1152 -0.2493
15716TIP3    H168639   1.372   3.381   5.560  0.5846 -0.1927  1.4123
15716TIP3    H268640   1.243   3.447   5.517  0.2063 -2.1644 -0.7020
15717TIP3   OH268641   3.623   5.597   3.558  0.1814  0.0148 -0.2829
15717TIP3    H168642   3.556   5.568   3.496 -0.3303 -0.0983  0.3188
15717TIP3    H268643   3.642   5.687   3.532 -1.8464  0.8390  0.9229
15718TIP3   OH268644   1.038   4.814   3.623  0.0309  0.1561 -0.4090
15718TIP3    H168645   1.007   4.905   3.616  0.6604  0.3469 -0.8360
15718TIP3    H268646   1.133   4.821   3.610  0.0979 -0.5497 -0.2972
15719TIP3   OH268647   5.903   5.600  13.795 -0.2061 -0.3747 -0.2895
15719TIP3    H168648   5.958   5.521  13.792 -2.3021 -1.9412  0.4988
15719TIP3    H268649   5.946   5.661  13.735  0.8741 -2.5276 -1.8283
15720TIP3   OH268650   4.289   2.326  12.497 -0.4431  0.3657  0.2027
15720TIP3    H168651   4.330   2.384  12.562  1.9945  0.5023 -1.3359
15720TIP3    H268652   4.204   2.367  12.479 -0.4581  1.2552  2.0339
15721TIP3   OH268653   4.030   1.019  12.411  0.2115 -0.3093 -0.1304
15721TIP3    H168654   3.981   1.079  12.467 -0.4039 -0.4139 -0.5527
15721TIP3    H268655   4.098   1.075  12.373  0.3793 -0.1468  0.3912
15722TIP3   OH268656   4.296   6.719  11.752 -0.5105  0.1637  0.0538
15722TIP3    H168657   4.217   6.761  11.786  0.7567  2.5850  0.2147
15722TIP3    H268658   4.293   6.630  11.787 -3.5312 -0.0921 -0.6039
15723TIP3   OH268659   0.063   3.149   0.140 -0.1597 -0.2445  0.3659
15723TIP3    H168660  -0.022   3.109   0.158  0.4339 -1.3394  0.8294
15723TIP3    H268661   0.049   3.243   0.153 -0.9966 -0.5265  1.6370
15724TIP3   OH268662   6.652   5.980  14.531 -0.2137 -0.2224  0.0116
15724TIP3    H168663   6.653   6.075  14.544 -1.2247 -0.2375  0.3365
15724TIP3    H268664   6.574   5.965  14.477  0.7502 -0.7288 -1.2880
15725TIP3   OH268665   2.889   5.534  17.227 -0.4709 -0.3197  0.0539
15725TIP3    H168666   2.831   5.591  17.177 -0.3809 -0.2356  0.0446
15725TIP3    H268667   2.963   5.518  17.168 -0.2856 -0.0845  0.2239
15726TIP3   OH268668   0.203   6.799  15.769  0.1101 -0.7776 -0.0477
15726TIP3    H168669   0.208   6.750  15.687  0.4739 -1.8276  0.5807
15726TIP3    H268670   0.288   6.787  15.810 -0.0934 -0.3271  0.5241
15727TIP3   OH268671   5.874   5.978  12.788 -0.0233 -0.2519 -0.2939
15727TIP3    H168672   5.851   5.964  12.696  0.1719  2.3117 -0.7938
15727TIP3    H268673   5.801   5.942  12.837 -1.5691  1.0076 -1.5872
15728TIP3   OH268674   2.751   6.210  17.122  0.7071  0.0658 -0.4317
15728TIP3    H168675   2.671   6.168  17.091  0.0688 -0.3448  1.5971
15728TIP3    H268676   2.816   6.193  17.054 -0.5160 -0.9877 -1.3770
15729TIP3   OH268677   3.572   5.916   2.643  0.1404 -0.5147 -0.5069
15729TIP3    H168678   3.482   5.908   2.674  0.4121  1.2853  0.9003
15729TIP3    H268679   3.579   6.006   2.613  1.6465 -0.4059  0.0716
15730TIP3   OH268680   1.290   3.394  13.285 -0.3363  0.1533  0.0198
15730TIP3    H168681   1.322   3.324  13.228  0.0077  0.2957  0.0307
15730TIP3    H268682   1.355   3.399  13.355 -0.0407  0.8621 -0.2893
15731TIP3   OH268683   2.674   5.845  12.414 -0.4862 -0.1343 -0.3763
15731TIP3    H168684   2.663   5.784  12.341 -2.3908 -0.0554 -0.2085
15731TIP3    H268685   2.588   5.884  12.426  0.6135  2.5456 -0.3840
15732TIP3   OH268686   6.549   2.365   1.192  0.2084  0.7563 -0.4073
15732TIP3    H168687   6.607   2.293   1.165 -0.0357  1.0935 -1.9474
15732TIP3    H268688   6.594   2.444   1.164  1.2289  1.3946  2.6697
15733TIP3   OH268689   1.055   3.422  16.837 -0.1960 -0.1428 -0.2683
15733TIP3    H168690   1.148   3.433  16.855 -0.1831 -0.3122 -0.2306
15733TIP3    H268691   1.039   3.475  16.758  0.1943 -1.1065 -1.0194
15734TIP3   OH268692   2.488   6.626   4.073 -0.5818 -0.1205  0.1081
15734TIP3    H168693   2.527   6.662   3.994 -1.0483 -0.2819 -0.2012
15734TIP3    H268694   2.494   6.531   4.062 -1.9944 -0.1682 -0.4334
15735TIP3   OH268695   2.091   4.824   5.515  0.2598 -0.1860  0.2330
15735TIP3    H168696   2.011   4.869   5.542 -0.5677 -0.8441 -0.9970
15735TIP3    H268697   2.121   4.872   5.437  0.9070 -0.1184  0.5162
15736TIP3   OH268698   3.875   1.697   2.499 -0.3263 -0.4798 -0.4294
15736TIP3    H168699   3.886   1.677   2.406 -0.0553 -0.3735 -0.4227
15736TIP3    H268700   3.949   1.653   2.541  0.3837  0.6553 -0.4340
15737TIP3   OH268701   3.852   2.463   6.338 -0.1360 -0.2682  0.0014
15737TIP3    H168702   3.791   2.536   6.336 -0.2864 -0.4052 -0.9879
15737TIP3    H268703   3.938   2.503   6.351 -0.3856 -0.0469  1.0176
15738TIP3   OH268704   3.564   4.047   5.139 -0.4181 -0.3160 -0.0986
15738TIP3    H168705   3.601   4.000   5.213  0.8170 -0.6044 -0.8836
15738TIP3    H268706   3.478   4.077   5.170 -1.0204 -2.6111  0.5878
15739TIP3   OH268707   3.288   6.153  16.146 -0.3410  0.6275  0.1940
15739TIP3    H168708   3.340   6.074  16.157 -0.5147  0.4009 -0.5389
15739TIP3    H268709   3.221   6.129  16.082  0.9555  1.9894 -1.8041
15740TIP3   OH268710   2.139   2.691   3.960 -0.1633 -0.1112  0.6305
15740TIP3    H168711   2.211   2.706   3.899 -0.7942  1.5036  0.2387
15740TIP3    H268712   2.100   2.608   3.931  0.8434 -0.4336  0.1696
15741TIP3   OH268713   2.512   4.715  12.960  0.1743 -0.2757 -0.5610
15741TIP3    H168714   2.529   4.793  12.907  0.6493  0.4112  0.5531
15741TIP3    H268715   2.566   4.646  12.921 -1.2999 -0.4539 -2.4151
15742TIP3   OH268716   0.533   1.700  11.531  0.4947  0.4435 -0.2822
15742TIP3    H168717   0.481   1.660  11.461 -2.3778  2.0313  0.7914
15742TIP3    H268718   0.525   1.639  11.605 -0.6699  1.1030  0.1599
15743TIP3   OH268719   0.650   3.203   1.128  0.2507 -0.3269 -0.5206
15743TIP3    H168720   0.580   3.186   1.191 -1.2803  0.4883 -1.9158
15743TIP3    H268721   0.718   3.248   1.178 -0.5452 -0.4794  0.7249
15744TIP3   OH268722   0.480   0.991  14.344 -0.5338  0.1404  0.3547
15744TIP3    H168723   0.392   0.960  14.364 -0.1270 -0.5381  1.1525
15744TIP3    H268724   0.501   0.954  14.258 -1.5399  1.4442 -0.4949
15745TIP3   OH268725   0.627   1.896   2.243 -0.5697  0.2440 -0.3311
15745TIP3    H168726   0.632   1.976   2.294 -1.2112  1.1488 -1.6146
15745TIP3    H268727   0.533   1.876   2.239 -0.3782 -0.8701  0.4053
15746TIP3   OH268728   1.302   3.081  12.231 -0.0415  0.2490 -0.5684
15746TIP3    H168729   1.353   3.038  12.299  0.0714 -0.0830 -0.8574
15746TIP3    H268730   1.326   3.035  12.150 -1.4188 -0.4820 -0.5940
15747TIP3   OH268731   1.412   5.430  15.750 -0.5990 -0.3309 -0.4502
15747TIP3    H168732   1.402   5.490  15.823  1.3851 -0.3264 -0.1235
15747TIP3    H268733   1.333   5.376  15.752 -0.2294 -0.9025  2.2551
15748TIP3   OH268734   0.275   1.695  13.162 -0.1325  0.2501  0.5757
15748TIP3    H168735   0.182   1.678  13.146 -0.1471  0.1712  0.7488
15748TIP3    H268736   0.317   1.610  13.154  0.0562  0.4235 -0.4156
15749TIP3   OH268737   0.989   1.445  14.931 -0.2308 -0.3122  0.0197
15749TIP3    H168738   1.046   1.440  15.008 -2.4644  0.2612  1.8024
15749TIP3    H268739   1.028   1.514  14.878  1.0202 -0.2717  0.9309
15750TIP3   OH268740   2.932   5.836  13.797 -0.2666  0.1321 -0.6864
15750TIP3    H168741   2.935   5.819  13.703  0.3377 -0.9167 -0.4909
15750TIP3    H268742   2.910   5.751  13.836 -0.3213  0.5143  0.1280
15751TIP3   OH268743   2.823   2.860   2.674  0.5998  0.3643  0.4104
15751TIP3    H168744   2.736   2.879   2.709  1.4134  2.1404  1.6082
15751TIP3    H268745   2.861   2.945   2.656  2.2792 -0.3612  0.3459
15752TIP3   OH268746   6.042   0.077  13.271 -0.2040 -0.1724 -0.1333
15752TIP3    H168747   6.016   0.108  13.184  0.3409  0.1499 -0.1803
15752TIP3    H268748   6.127   0.117  13.288  0.1911 -1.0684  0.1046
15753TIP3   OH268749   6.086   0.727  17.016  0.1076  0.3049  0.0796
15753TIP3    H168750   6.014   0.770  16.971  0.5210 -0.3206 -1.2178
15753TIP3    H268751   6.044   0.655  17.064 -0.4005  1.2896  1.1661
15754TIP3   OH268752   1.637   0.497   0.341  0.1858 -0.0150  0.0425
15754TIP3    H168753   1.555   0.453   0.321 -0.1125  0.0704  1.0054
15754TIP3    H268754   1.692   0.427   0.378  0.2869  0.0740  0.0602
15755TIP3   OH268755   6.821   2.724  12.389 -0.1087  0.1495 -0.1313
15755TIP3    H168756   6.766   2.719  12.467  0.0775  0.0994 -0.0005
15755TIP3    H268757   6.904   2.759  12.421  0.8008 -2.0636  0.1656
15756TIP3   OH268758   3.340   1.692  12.602  0.3923 -0.0319  0.2943
15756TIP3    H168759   3.315   1.644  12.522  2.6977 -1.0749  0.1024
15756TIP3    H268760   3.264   1.685  12.659 -1.2170  0.4799 -1.6692
15757TIP3   OH268761   1.104   5.150  17.132  0.0757  0.3671 -0.0513
15757TIP3    H168762   1.115   5.212  17.060  0.2243  1.2781  0.7374
15757TIP3    H268763   1.185   5.098  17.132 -0.7593 -1.0215 -1.7978
15758TIP3   OH268764   1.693   4.589   4.028 -0.3867 -0.6116  0.0008
15758TIP3    H168765   1.778   4.622   3.998  0.0504  0.3193  2.0658
15758TIP3    H268766   1.639   4.668   4.039 -0.0769 -0.7036  2.7991
15759TIP3   OH268767   0.049   0.143  15.132 -0.9150  0.1187  0.0567
15759TIP3    H168768   0.094   0.227  15.131  1.5034 -1.0872 -1.0834
15759TIP3    H268769   0.078   0.101  15.213  1.8729 -1.4643 -1.5808
15760TIP3   OH268770   5.435   0.221  15.352  0.4750 -0.1159  0.0179
15760TIP3    H168771   5.502   0.268  15.402  2.0641 -1.5684 -0.6398
15760TIP3    H268772   5.479   0.199  15.269 -1.8907  1.7786 -1.9066
15761TIP3   OH268773   6.255   2.870  10.944  0.1167  0.0338  0.1553
15761TIP3    H168774   6.264   2.924  10.865  0.7318 -0.5270 -0.1621
15761TIP3    H268775   6.295   2.923  11.013  1.3386 -0.2873 -0.2837
15762TIP3   OH268776   2.559   1.323  17.119 -0.2585  0.3525  0.3672
15762TIP3    H168777   2.480   1.281  17.085  0.8622 -1.9084  0.3721
15762TIP3    H268778   2.531   1.361  17.203 -1.7095  1.1245 -0.4196
15763TIP3   OH268779   3.679   5.677   3.236  0.0960 -0.3062 -0.3599
15763TIP3    H168780   3.606   5.615   3.244  0.0855 -0.1267  1.3404
15763TIP3    H268781   3.639   5.757   3.203 -0.9075  0.3772  2.2292
15764TIP3   OH268782   6.757   3.182   3.486  0.1458  0.2249 -0.4529
15764TIP3    H168783   6.849   3.193   3.513  0.2888  0.2677 -0.9572
15764TIP3    H268784   6.715   3.263   3.514 -0.1250 -0.4821  1.3314
15765TIP3   OH268785   3.406   4.747   6.026  0.1242 -0.7522  0.0464
15765TIP3    H168786   3.406   4.668   5.972  1.9969 -0.6797 -0.1173
15765TIP3    H268787   3.434   4.717   6.113 -0.6277 -0.4982  0.3858
15766TIP3   OH268788   2.853   6.026  10.710  0.0069  0.1628  0.5225
15766TIP3    H168789   2.858   6.119  10.730 -2.1189  0.5170 -0.4355
15766TIP3    H268790   2.865   6.020  10.616  2.0623 -0.7840  0.7606
15767TIP3   OH268791   2.924   0.117  13.561 -0.1070 -0.2950  0.5296
15767TIP3    H168792   2.904   0.193  13.507  1.1966 -0.2341  0.0978
15767TIP3    H268793   2.838   0.078  13.581 -0.7548  1.0465  0.4344
15768TIP3   OH268794   0.593   2.463   2.178  0.2987 -0.0711 -0.5347
15768TIP3    H168795   0.561   2.376   2.156  0.2812 -0.0035 -0.7756
15768TIP3    H268796   0.598   2.463   2.274 -0.4944 -0.0549 -0.4887
15769TIP3   OH268797   4.204   6.729  15.397  0.6589  0.2578  0.0178
15769TIP3    H168798   4.270   6.795  15.420 -0.5091  1.6340 -0.4065
15769TIP3    H268799   4.157   6.768  15.322 -0.8222 -0.5415  0.4927
15770TIP3   OH268800   0.294   1.731   3.044  0.3239 -0.3352  0.1972
15770TIP3    H168801   0.368   1.763   2.992  0.0754  0.1091  0.1112
15770TIP3    H268802   0.333   1.666   3.103  1.0818  1.0143  1.2493
15771TIP3   OH268803   2.200   5.740  14.229 -0.0400  0.4720 -0.1532
15771TIP3    H168804   2.187   5.732  14.134  2.0996  1.8444 -0.6201
15771TIP3    H268805   2.293   5.725  14.242  0.2605  3.0586  1.3517
15772TIP3   OH268806   2.194   4.594  12.342 -0.4270 -0.6982  0.5927
15772TIP3    H168807   2.140   4.571  12.418  0.7025 -0.8500  1.3702
15772TIP3    H268808   2.271   4.539  12.349  0.4063  0.3754  0.1951
15773TIP3   OH268809   1.531   0.786   6.178  0.1581 -0.2460 -0.4059
15773TIP3    H168810   1.520   0.794   6.273  1.8087  2.2881 -0.3228
15773TIP3    H268811   1.451   0.745   6.148 -0.6794 -0.5727  2.0120
15774TIP3   OH268812   6.007   1.863   3.032 -0.3215  1.0715  0.2091
15774TIP3    H168813   6.006   1.934   2.968 -0.0183  1.8684  1.0611
15774TIP3    H268814   5.947   1.892   3.101  0.2147  0.7486  0.8213
15775TIP3   OH268815   3.862   5.588  16.535 -0.6216 -0.0923 -0.3104
15775TIP3    H168816   3.884   5.634  16.454  0.1681  0.6358  0.3026
15775TIP3    H268817   3.815   5.653  16.587 -2.0170 -0.8565 -0.5564
15776TIP3   OH268818   1.519   4.713  12.924 -0.0446 -0.4834 -0.0842
15776TIP3    H168819   1.603   4.724  12.969 -1.0714 -0.9642  2.0923
15776TIP3    H268820   1.543   4.685  12.836  2.1102  1.7979 -0.3340
15777TIP3   OH268821   3.005   1.660  14.240 -0.3985 -0.2540  0.5051
15777TIP3    H168822   3.062   1.620  14.175 -0.4043 -2.6187  1.8200
15777TIP3    H268823   3.052   1.737  14.270  0.5895 -0.3382 -0.7450
15778TIP3   OH268824   1.067   5.526   2.230 -0.3542 -0.0244  0.0989
15778TIP3    H168825   1.023   5.587   2.171 -1.6635 -2.0344 -1.1501
15778TIP3    H268826   0.998   5.499   2.291 -0.1013 -1.0143 -0.0357
15779TIP3   OH268827   5.857   2.147  14.975 -0.3325 -0.0372  0.0436
15779TIP3    H168828   5.917   2.180  14.908 -0.0902 -0.3292  0.1171
15779TIP3    H268829   5.897   2.066  15.006 -1.9456 -1.5855 -1.6572
15780TIP3   OH268830   4.152   2.002  14.458  0.4629 -0.2641 -0.5796
15780TIP3    H168831   4.083   2.039  14.513  0.2769 -1.3684 -0.0321
15780TIP3    H268832   4.141   2.044  14.373  0.2246  0.8603 -0.0247
15781TIP3   OH268833   4.831   2.478  12.463  0.1227 -0.1739 -0.0667
15781TIP3    H168834   4.787   2.468  12.378 -0.7228  3.2941 -0.1981
15781TIP3    H268835   4.761   2.498  12.524  1.0154  0.4876  0.7683
15782TIP3   OH268836   4.863   1.502  15.578  0.3290 -0.0395  0.0079
15782TIP3    H168837   4.929   1.506  15.647  1.3531  0.6192 -0.9668
15782TIP3    H268838   4.896   1.436  15.517 -1.1499 -1.4709  0.6893
15783TIP3   OH268839   1.277   4.007   1.359  0.1755  0.4696  0.8402
15783TIP3    H168840   1.308   3.919   1.338  1.0896  0.8171  0.6680
15783TIP3    H268841   1.277   4.010   1.455 -0.2335  0.1560  0.8497
15784TIP3   OH268842   0.590   0.787   3.352  0.1650 -0.1379 -0.2334
15784TIP3    H168843   0.684   0.769   3.358  0.3706  0.8822 -0.0561
15784TIP3    H268844   0.571   0.784   3.258  0.2944 -0.6917 -0.2444
15785TIP3   OH268845   4.903   0.031  13.432 -0.8787  0.3402  0.2465
15785TIP3    H168846   4.871   0.109  13.388 -0.3818  0.3841 -0.0428
15785TIP3    H268847   4.990   0.017  13.397 -0.1975  0.7527  1.6976
15786TIP3   OH268848   3.358   3.016   2.253  0.1969  0.1848 -0.7529
15786TIP3    H168849   3.349   2.941   2.312 -2.5902  1.0195  0.0227
15786TIP3    H268850   3.320   2.985   2.170 -3.0079  1.2401  0.1736
15787TIP3   OH268851   5.896   2.424  12.530  0.5578  0.2508  0.7993
15787TIP3    H168852   5.807   2.427  12.563 -0.5013  1.6741 -1.9007
15787TIP3    H268853   5.947   2.384  12.601 -1.7761  1.4932  3.3351
15788TIP3   OH268854   3.643   4.050  15.812  0.2247 -0.3685  0.0469
15788TIP3    H168855   3.609   4.101  15.886  0.5982  0.6216 -0.4490
15788TIP3    H268856   3.673   3.968  15.851  1.2758  0.5050  1.1504
15789TIP3   OH268857   2.662   0.337  10.855  0.4179 -0.2702 -0.3634
15789TIP3    H168858   2.737   0.286  10.824  0.5314 -0.3630  0.0526
15789TIP3    H268859   2.631   0.288  10.931  1.4621  1.0731  0.9810
15790TIP3   OH268860   2.105   1.169   2.728  0.2067  0.7828  0.0854
15790TIP3    H168861   2.164   1.112   2.777 -0.8547  0.4939  1.0640
15790TIP3    H268862   2.088   1.243   2.787 -2.0279 -0.1525  0.7012
15791TIP3   OH268863   4.724   5.033  10.419 -0.2040 -0.2083 -0.0312
15791TIP3    H168864   4.729   5.049  10.514  0.5747 -0.2531 -0.0588
15791TIP3    H268865   4.782   5.099  10.381 -2.2555  1.3459 -0.6794
15792TIP3   OH268866   5.424   5.880  15.294 -0.0246 -0.6189 -0.3783
15792TIP3    H168867   5.340   5.880  15.340  0.0503  0.5152 -0.2004
15792TIP3    H268868   5.401   5.890  15.202 -0.0716  2.3303 -0.1402
15793TIP3   OH268869   1.734   4.041  17.270  0.3678 -0.9070 -0.0602
15793TIP3    H168870   1.659   4.102  17.270  2.6544  2.2771 -2.6207
15793TIP3    H268871   1.755   4.030  17.362 -2.0626 -0.3561  0.6439
15794TIP3   OH268872   0.450   2.946   4.926 -0.0550  0.7860 -0.0245
15794TIP3    H168873   0.369   2.942   4.875  0.0036 -0.5938 -0.0345
15794TIP3    H268874   0.474   3.039   4.925 -1.0049  1.0401 -1.0055
15795TIP3   OH268875   4.369   2.578  14.738 -0.5206 -0.5684 -0.1207
15795TIP3    H168876   4.437   2.536  14.789  0.6326 -1.4485 -2.2347
15795TIP3    H268877   4.409   2.594  14.652 -3.1745 -1.9384 -1.7795
15796TIP3   OH268878   4.292   6.782   5.489  0.3644  0.3496 -0.2851
15796TIP3    H168879   4.347   6.826   5.425  2.5052  0.9609  1.8390
15796TIP3    H268880   4.312   6.689   5.478 -0.5132  0.2828 -1.5288
15797TIP3   OH268881   3.310   4.306  16.238 -0.5135 -0.4688  0.0044
15797TIP3    H168882   3.234   4.363  16.225  0.1510  0.2434 -0.8344
15797TIP3    H268883   3.356   4.344  16.312 -1.3028 -1.2954  0.9636
15798TIP3   OH268884   2.058   2.932  11.299 -0.0203  0.0575  0.3960
15798TIP3    H168885   2.040   2.960  11.209 -0.1351  1.0483  0.7186
15798TIP3    H268886   2.150   2.909  11.299 -0.0073  0.1006  0.0351
15799TIP3   OH268887   5.340   1.978   0.276  0.4145 -0.1505 -0.2156
15799TIP3    H168888   5.348   1.938   0.363 -0.6978 -0.5002 -0.2521
15799TIP3    H268889   5.392   1.921   0.219  1.6157  0.3984  0.2919
15800TIP3   OH268890   2.753   5.457   3.744 -0.4164 -0.1117  0.0543
15800TIP3    H168891   2.672   5.410   3.722 -0.9617  0.8966 -0.1513
15800TIP3    H268892   2.780   5.497   3.661 -0.9679  1.4364  0.5927
15801TIP3   OH268893   5.493   5.078   2.437  0.4181 -0.4526 -0.6788
15801TIP3    H168894   5.546   5.007   2.401 -1.4464 -1.7009 -1.0735
15801TIP3    H268895   5.466   5.046   2.523  1.4030  0.7701  0.1281
15802TIP3   OH268896   2.621   4.002  15.500 -0.2421  0.0561 -0.4091
15802TIP3    H168897   2.715   4.009  15.519 -0.1088 -2.4249  0.2664
15802TIP3    H268898   2.580   4.064  15.559  1.0362  3.1216 -2.4839
15803TIP3   OH268899   5.276   0.511  14.672  0.0400  0.6434  0.2910
15803TIP3    H168900   5.337   0.482  14.604 -0.7802  1.9991 -1.1013
15803TIP3    H268901   5.305   0.599  14.695 -1.5054  1.4431 -0.6250
15804TIP3   OH268902   5.325   5.001   1.582 -0.3936 -0.3368  0.0977
15804TIP3    H168903   5.365   4.922   1.619 -0.1825 -1.2168 -1.8623
15804TIP3    H268904   5.303   5.054   1.658  2.4886 -0.7720  1.3772
15805TIP3   OH268905   3.513   3.843   2.570 -0.4714 -0.3986  0.1366
15805TIP3    H168906   3.443   3.778   2.581 -0.1212 -1.0694 -1.3191
15805TIP3    H268907   3.541   3.864   2.659 -0.4223 -2.4632  0.6618
15806TIP3   OH268908   5.831   2.713  15.963 -1.1428 -0.5673  0.5034
15806TIP3    H168909   5.904   2.730  15.905 -0.3887 -1.6489  1.1026
15806TIP3    H268910   5.811   2.798  16.003 -0.4431 -0.1978  0.0744
15807TIP3   OH268911   2.497   5.820  13.421 -0.7164 -0.1911 -0.0952
15807TIP3    H168912   2.444   5.741  13.412 -0.7561 -0.1118 -0.6138
15807TIP3    H268913   2.514   5.847  13.331  1.7793 -1.2426 -0.0098
15808TIP3   OH268914   5.808   3.907  15.316 -0.4928  0.2521  0.0166
15808TIP3    H168915   5.794   3.859  15.398 -1.3648 -1.8547 -1.2881
15808TIP3    H268916   5.770   3.993  15.333  1.5496  0.7537  2.6073
15809TIP3   OH268917   5.979   0.302  11.941  0.5446  0.2060 -0.0776
15809TIP3    H168918   5.957   0.252  11.862  0.4451  3.0956 -2.0298
15809TIP3    H268919   6.073   0.320  11.933  0.9716 -1.0670  1.5237
15810TIP3   OH268920   6.555   1.226  11.366  0.3821 -0.1745 -0.1245
15810TIP3    H168921   6.467   1.191  11.384 -0.1492  0.8194 -0.7224
15810TIP3    H268922   6.611   1.148  11.361 -0.5337 -0.8486 -0.1299
15811TIP3   OH268923   0.680   3.859   2.410 -0.3074  0.7285 -0.4280
15811TIP3    H168924   0.732   3.849   2.489  1.6166 -0.0140 -1.7210
15811TIP3    H268925   0.708   3.943   2.373 -0.1475  0.4060 -1.0505
15812TIP3   OH268926   5.212   1.688  12.878 -0.3283 -0.5392 -0.0134
15812TIP3    H168927   5.136   1.696  12.936 -0.1949 -0.7279  0.1882
15812TIP3    H268928   5.232   1.778  12.853  0.0224 -0.3896  0.7632
15813TIP3   OH268929   6.695   2.113  13.091 -0.1330 -0.3610  0.3031
15813TIP3    H168930   6.744   2.032  13.107 -0.3717 -1.1454 -2.4207
15813TIP3    H268931   6.623   2.111  13.155  1.8774 -0.4148  2.7094
15814TIP3   OH268932   0.227   1.965   0.111 -0.1908  0.7299  0.4948
15814TIP3    H168933   0.320   1.949   0.097  0.0264  1.0231  1.5224
15814TIP3    H268934   0.223   2.031   0.180 -1.1646 -0.3334  1.5072
15815TIP3   OH268935   5.376   2.675  16.104  0.2108  0.3446  0.3716
15815TIP3    H168936   5.435   2.750  16.094  2.1591 -1.0635  0.7637
15815TIP3    H268937   5.377   2.633  16.017 -0.4074  0.4520  0.3140
15816TIP3   OH268938   6.600   5.829   6.482 -0.7469 -0.2216  0.3223
15816TIP3    H168939   6.690   5.823   6.514 -0.5732 -1.3789 -0.2984
15816TIP3    H268940   6.587   5.747   6.433 -1.9407  0.1928 -0.0926
15817TIP3   OH268941   2.177   4.644   1.939  0.5544  1.0648 -0.4902
15817TIP3    H168942   2.103   4.587   1.959 -0.4528  1.6113 -2.4767
15817TIP3    H268943   2.138   4.728   1.915  1.8516  1.5752 -0.9333
15818TIP3   OH268944   4.682   5.867  10.271 -0.1646 -0.4676 -0.4106
15818TIP3    H168945   4.775   5.886  10.255  0.1237 -1.1603  0.4077
15818TIP3    H268946   4.674   5.772  10.256 -0.9925 -0.2394 -1.6174
15819TIP3   OH268947   0.658   3.534   2.966  0.1910 -0.7531  0.0854
15819TIP3    H168948   0.752   3.534   2.950  0.2529 -1.5928  0.3946
15819TIP3    H268949   0.625   3.611   2.919  1.4867  1.5687  2.6690
15820TIP3   OH268950   0.812   2.334  12.655  0.9906  0.1976 -0.2215
15820TIP3    H168951   0.727   2.299  12.629  1.5528 -0.5546 -1.1127
15820TIP3    H268952   0.839   2.388  12.580  1.0493  0.9106  0.2990
15821TIP3   OH268953   1.650   2.367  15.579  0.3441 -0.4044  0.2549
15821TIP3    H168954   1.644   2.462  15.581  1.2827 -0.3406  1.3465
15821TIP3    H268955   1.559   2.337  15.579  0.0364  0.4818 -0.7119
15822TIP3   OH268956   2.673   6.321  14.368  0.0252  0.2024 -0.2675
15822TIP3    H168957   2.591   6.284  14.401  0.6261  0.1790  1.2443
15822TIP3    H268958   2.665   6.315  14.273 -0.8640 -1.6752 -0.1127
15823TIP3   OH268959   5.485   4.789  15.455 -0.3899  0.0880 -0.2070
15823TIP3    H168960   5.485   4.798  15.360 -0.4559 -0.5787 -0.2720
15823TIP3    H268961   5.439   4.706  15.472 -0.6089  0.3271  0.4160
15824TIP3   OH268962   3.171   1.085   1.121  0.3875  0.0485 -0.1880
15824TIP3    H168963   3.113   1.026   1.074 -2.1422  1.6718  0.6454
15824TIP3    H268964   3.204   1.145   1.054 -0.5278  0.3093 -0.4237
15825TIP3   OH268965   5.928   5.745   0.589 -0.0865  0.3338 -0.2489
15825TIP3    H168966   5.915   5.819   0.648  0.6220  0.4815 -0.2716
15825TIP3    H268967   5.905   5.780   0.503 -3.1521 -0.4486  0.1447
15826TIP3   OH268968   0.381   3.162  13.461 -0.5146  0.2392 -0.8249
15826TIP3    H168969   0.472   3.158  13.431  0.0565 -0.8649  0.8762
15826TIP3    H268970   0.362   3.255  13.469  0.7243  0.4794 -0.4832
15827TIP3   OH268971   4.312   6.820  11.485  0.1883  0.0979  0.3986
15827TIP3    H168972   4.291   6.828  11.578 -0.7794 -0.5269  0.2469
15827TIP3    H268973   4.361   6.738  11.479 -1.4477 -0.9074  0.1117
15828TIP3   OH268974   0.880   5.679  16.243 -0.2377  0.0836 -0.0181
15828TIP3    H168975   0.833   5.643  16.318  0.6486  1.7937  1.4161
15828TIP3    H268976   0.946   5.612  16.223 -3.0376 -2.3273 -2.0322
15829TIP3   OH268977   1.719   2.018  16.059  0.2687  0.1700 -0.6039
15829TIP3    H168978   1.720   1.925  16.079  0.0217  0.9403  4.2290
15829TIP3    H268979   1.633   2.048  16.087  1.0386  2.1178 -0.1447
15830TIP3   OH268980   0.694   3.273   1.662  0.1784  0.2893 -0.1069
15830TIP3    H168981   0.736   3.200   1.617  0.2208  1.3637 -1.8936
15830TIP3    H268982   0.610   3.283   1.617 -0.0199  1.0499  0.4265
15831TIP3   OH268983   5.621   0.135  16.935 -0.5003 -0.1048  0.1433
15831TIP3    H168984   5.566   0.152  16.859 -0.2888  1.5489  0.3140
15831TIP3    H268985   5.604   0.044  16.958 -1.8711 -0.1195 -0.8282
15832TIP3   OH268986   2.867   3.554  12.453  0.2304  0.0344 -0.9463
15832TIP3    H168987   2.960   3.568  12.434  1.2677 -3.2894  0.7854
15832TIP3    H268988   2.864   3.537  12.548 -2.3572  1.1212 -0.7456
15833TIP3   OH268989   6.709   1.504  10.537 -0.2004  0.7400  0.3203
15833TIP3    H168990   6.774   1.449  10.494  0.8492  2.2069 -0.0162
15833TIP3    H268991   6.755   1.585  10.557 -1.8314  1.6889  0.3837
15834TIP3   OH268992   3.351   0.079   1.709 -0.1943  0.1856  0.3591
15834TIP3    H168993   3.264   0.116   1.723 -0.2278  0.3543 -0.2908
15834TIP3    H268994   3.389   0.132   1.639  0.3281 -0.0580  0.4540
15835TIP3   OH268995   1.610   5.623   1.675 -0.0103  0.2664 -0.7331
15835TIP3    H168996   1.570   5.581   1.751 -0.0018  0.6457 -0.5172
15835TIP3    H268997   1.558   5.592   1.601  0.8821 -1.2764 -0.7599
15836TIP3   OH268998   4.675   0.609   5.499  0.1701 -0.1400 -0.1710
15836TIP3    H168999   4.675   0.516   5.475  0.7320  0.2132 -1.7035
15836TIP3    H269000   4.662   0.655   5.416 -1.5708  1.1473  0.7526
15837TIP3   OH269001   2.708   0.231   4.375 -0.2660 -0.2753  0.1450
15837TIP3    H169002   2.627   0.271   4.408 -0.8000 -1.6343  0.5500
15837TIP3    H269003   2.678   0.160   4.319  0.6610  0.5841 -1.5226
15838TIP3   OH269004   5.954   0.814   4.216 -0.2446  0.3407 -0.5912
15838TIP3    H169005   5.984   0.724   4.207 -0.7320  0.2307 -1.1532
15838TIP3    H269006   5.876   0.819   4.161 -0.3855  1.0285 -0.3372
15839TIP3   OH269007   1.243   5.507  14.368 -0.7191 -0.1522 -0.1188
15839TIP3    H169008   1.336   5.527  14.381 -0.6489  0.0812 -0.9265
15839TIP3    H269009   1.197   5.572  14.421 -0.4216 -0.4119  0.4651
15840TIP3   OH269010   4.702   0.270   5.163  0.1837  0.4397  0.1886
15840TIP3    H169011   4.699   0.177   5.140  0.3793  0.1583  1.2020
15840TIP3    H269012   4.792   0.284   5.193 -0.4401  0.3276  2.3315
15841TIP3   OH269013   3.861   4.227  16.553 -0.1676  0.3352  0.2688
15841TIP3    H169014   3.788   4.166  16.547  1.2552 -1.7173  2.0580
15841TIP3    H269015   3.821   4.310  16.579 -1.9081 -0.6452  0.9077
15842TIP3   OH269016   1.548   6.487  12.653 -0.4565  0.3688 -0.4204
15842TIP3    H169017   1.473   6.429  12.663  0.5565 -1.3049 -2.0087
15842TIP3    H269018   1.552   6.536  12.735 -2.4798 -0.4276  0.2041
15843TIP3   OH269019   2.034   5.366  12.072  0.4168 -0.2373  0.0474
15843TIP3    H169020   2.010   5.428  12.003 -1.8297 -1.5050 -0.4066
15843TIP3    H269021   1.998   5.405  12.152 -1.5417 -1.1390 -0.3262
15844TIP3   OH269022   1.265   0.289  14.013  0.1217 -0.1900 -0.8382
15844TIP3    H169023   1.189   0.246  14.053 -0.2986  0.0560 -1.3569
15844TIP3    H269024   1.334   0.281  14.079 -0.5259  0.1305 -0.0942
15845TIP3   OH269025   2.073   1.901  14.960 -0.4833 -0.4540 -0.5825
15845TIP3    H169026   2.135   1.844  15.006 -1.2264  0.2325  1.3876
15845TIP3    H269027   2.102   1.990  14.983 -2.9257 -0.1090  1.5606
15846TIP3   OH269028   5.555   5.524  14.540 -0.4158 -0.0541  0.5270
15846TIP3    H169029   5.607   5.513  14.619  0.5469  0.7559  0.0388
15846TIP3    H269030   5.592   5.461  14.478 -3.0033 -2.7729  1.5133
15847TIP3   OH269031   1.467   0.578  17.040  0.2289 -0.5888 -0.3932
15847TIP3    H169032   1.475   0.501  17.096 -0.8472  1.2796  2.5761
15847TIP3    H269033   1.554   0.618  17.043 -0.3538  0.6646  1.9281
15848TIP3   OH269034   2.086   3.692   5.426 -0.9459  0.5196  0.0041
15848TIP3    H169035   2.001   3.658   5.400  0.0338 -1.5540 -0.7189
15848TIP3    H269036   2.105   3.760   5.362 -1.0322 -0.6925 -1.3657
15849TIP3   OH269037   3.337   5.088   3.994  0.3203 -0.0714  0.0238
15849TIP3    H169038   3.269   5.034   3.954 -0.9972 -1.0757  3.2184
15849TIP3    H269039   3.296   5.173   4.008  0.4424 -0.0184  0.0601
15850TIP3   OH269040   6.652   3.945   1.942  0.1212  0.0410 -0.2581
15850TIP3    H169041   6.704   3.927   2.020 -0.6587 -1.1867  0.0130
15850TIP3    H269042   6.561   3.932   1.970 -0.1880 -0.1485 -1.2931
15851TIP3   OH269043   4.552   6.052   3.371 -0.1779 -0.0181 -0.4901
15851TIP3    H169044   4.562   6.118   3.439  0.4246  0.6398 -1.2088
15851TIP3    H269045   4.638   6.010   3.364 -0.6588 -1.1978  0.2545
15852TIP3   OH269046   3.876   3.618  16.059  0.6788  0.2941 -0.2498
15852TIP3    H169047   3.963   3.604  16.022  0.9760 -0.3528  0.6673
15852TIP3    H269048   3.846   3.530  16.084 -1.2137  0.1668 -2.6424
15853TIP3   OH269049   6.647   6.414  13.598  0.0095 -0.3034  0.2144
15853TIP3    H169050   6.570   6.416  13.655  1.3477 -0.3151  2.1124
15853TIP3    H269051   6.687   6.329  13.614  1.9548  0.7743  1.4646
15854TIP3   OH269052   1.143   0.720   3.535  0.5019 -0.1394 -0.2205
15854TIP3    H169053   1.164   0.629   3.557  1.7310  0.2831  0.4339
15854TIP3    H269054   1.187   0.735   3.451  0.2807 -0.1470 -0.3395
15855TIP3   OH269055   1.909   5.209  16.646 -0.1669 -0.3769 -0.4048
15855TIP3    H169056   1.968   5.276  16.610 -0.0892  0.1115  0.6000
15855TIP3    H269057   1.906   5.141  16.578 -1.1960  1.1727 -1.9966
15856TIP3   OH269058   5.860   1.097  12.852  0.4190 -0.0380  0.6637
15856TIP3    H169059   5.831   1.033  12.787 -1.9515  0.7593  0.8178
15856TIP3    H269060   5.919   1.155  12.804 -0.4771 -0.0815 -0.5386
15857TIP3   OH269061   6.623   1.749  14.294 -0.2201  0.0698 -0.9339
15857TIP3    H169062   6.573   1.726  14.372 -0.5886 -0.8053 -1.4193
15857TIP3    H269063   6.626   1.845  14.295 -0.9395  0.0967 -0.3024
15858TIP3   OH269064   6.626   1.242  14.047 -0.0962 -0.0900  0.1877
15858TIP3    H169065   6.691   1.312  14.048  0.8995 -0.9856  0.3988
15858TIP3    H269066   6.563   1.269  13.981  0.1942  1.0693  0.3677
15859TIP3   OH269067   5.872   4.306   3.940 -0.0433  0.5246  0.1991
15859TIP3    H169068   5.779   4.281   3.938  0.0898  0.0523 -1.0033
15859TIP3    H269069   5.897   4.312   3.848  1.1506  0.5670  0.5130
15860TIP3   OH269070   6.381   3.662  14.929  0.3251  0.0391  0.3098
15860TIP3    H169071   6.331   3.588  14.963  0.7814  0.0819  1.1124
15860TIP3    H269072   6.346   3.678  14.841  0.4013 -1.3038  0.0184
15861TIP3   OH269073   4.984   1.866   3.788 -0.1215  0.1765  0.0697
15861TIP3    H169074   5.040   1.825   3.722  0.2422  1.6186 -0.5581
15861TIP3    H269075   4.937   1.935   3.740  0.0229  1.1503  1.2644
15862TIP3   OH269076   1.159   4.082   0.552  1.0140  0.4433  0.5838
15862TIP3    H169077   1.195   4.056   0.468 -2.1704 -0.5462 -0.6100
15862TIP3    H269078   1.224   4.054   0.616  2.8255 -0.1597 -1.4165
15863TIP3   OH269079   1.406   5.490   3.743  0.3480  0.1847  0.3072
15863TIP3    H169080   1.349   5.425   3.785  2.1023 -1.1334  0.7968
15863TIP3    H269081   1.369   5.574   3.768 -1.0016 -0.6144  1.1387
15864TIP3   OH269082   6.673   1.711   3.387 -0.3102  0.2722  0.0817
15864TIP3    H169083   6.696   1.771   3.316  0.8259 -1.0802 -0.7476
15864TIP3    H269084   6.600   1.754   3.433  2.0424  3.5078  1.1548
15865TIP3   OH269085   4.403   0.344  12.369 -0.3248 -0.0855 -0.3493
15865TIP3    H169086   4.407   0.378  12.280 -1.0126  0.8635 -0.0472
15865TIP3    H269087   4.347   0.267  12.363  1.4941 -1.3950 -1.1042
15866TIP3   OH269088   2.508   6.494   5.091 -0.2932  0.3521  0.3436
15866TIP3    H169089   2.576   6.525   5.032 -0.6685  0.6743  0.0687
15866TIP3    H269090   2.511   6.399   5.085  1.4201  0.2492  1.8017
15867TIP3   OH269091   1.052   5.625   0.405  0.1699 -0.2645 -0.2065
15867TIP3    H169092   1.100   5.564   0.462  0.7529  0.5279  0.1816
15867TIP3    H269093   1.022   5.572   0.332  0.1032 -1.1443  0.4488
15868TIP3   OH269094   4.526   5.725   5.963 -0.6174  0.0082 -0.3243
15868TIP3    H169095   4.454   5.693   6.016 -1.7133  1.2533 -0.9846
15868TIP3    H269096   4.551   5.808   6.004  1.3237 -1.0045  0.6408
15869TIP3   OH269097   4.415   2.622  12.984  0.2062  0.0376 -0.1912
15869TIP3    H169098   4.504   2.592  12.967  0.8960  0.6829  1.9611
15869TIP3    H269099   4.371   2.547  13.024 -0.2770 -0.3101 -1.3347
15870TIP3   OH269100   2.446   1.349  16.791 -0.3261  0.3666  0.0511
15870TIP3    H169101   2.458   1.343  16.696 -0.4259 -1.9596  0.1383
15870TIP3    H269102   2.438   1.443  16.808  0.1378  0.8621 -2.1766
15871TIP3   OH269103   3.873   6.249  10.398 -0.6402 -0.1455 -0.4062
15871TIP3    H169104   3.928   6.248  10.321 -0.0205  1.3607 -0.0123
15871TIP3    H269105   3.784   6.257  10.364 -0.6810 -2.5397 -1.0366
15872TIP3   OH269106   5.652   3.590  15.261 -0.2792 -0.0029 -0.4435
15872TIP3    H169107   5.720   3.602  15.326  0.6757 -0.4530 -1.3310
15872TIP3    H269108   5.659   3.499  15.234  0.3171  0.5240 -2.1989
15873TIP3   OH269109   2.614   6.382   0.002  0.0595  0.5027  0.2333
15873TIP3    H169110   2.612   6.458  -0.055 -1.1126  0.0695 -0.3253
15873TIP3    H269111   2.634   6.309  -0.056 -1.7078 -0.0265  0.2429
15874TIP3   OH269112   5.191   0.214  15.590  0.0963  0.1055 -0.1959
15874TIP3    H169113   5.191   0.193  15.497  0.0692 -0.9091  0.0229
15874TIP3    H269114   5.228   0.303  15.594 -2.3804  1.3123 -1.3905
15875TIP3   OH269115   5.226   1.050  13.660  0.9567  0.1944  0.0448
15875TIP3    H169116   5.258   1.073  13.573 -0.5843  1.0976 -0.3165
15875TIP3    H269117   5.248   0.957  13.670 -0.7673 -0.5614 -2.2425
15876TIP3   OH269118   3.251   6.139  12.818 -0.2147 -0.3080 -0.2124
15876TIP3    H169119   3.212   6.186  12.744  0.6215  0.1715 -0.3677
15876TIP3    H269120   3.240   6.047  12.796 -0.0965 -0.1699 -0.8775
15877TIP3   OH269121   4.741   4.669   3.264  0.1442 -0.4644 -0.1853
15877TIP3    H169122   4.665   4.727   3.259  1.0068  0.8177  1.0999
15877TIP3    H269123   4.753   4.653   3.357  2.2719  0.4799 -0.2497
15878TIP3   OH269124   2.283   3.251  16.259  0.5506  0.1809 -0.1185
15878TIP3    H169125   2.311   3.188  16.192 -0.1161  0.1951 -0.4156
15878TIP3    H269126   2.305   3.337  16.222 -1.2032  0.2873 -1.0235
15879TIP3   OH269127   1.312   6.666  16.063  0.4018 -0.2619  0.1944
15879TIP3    H169128   1.242   6.604  16.043  0.7762 -0.6144 -0.0242
15879TIP3    H269129   1.281   6.749  16.027  0.6242 -0.6727 -0.9727
15880TIP3   OH269130   2.549   4.205  13.584  0.3366 -0.4053  0.2201
15880TIP3    H169131   2.552   4.125  13.532 -0.0815 -0.5764  0.4571
15880TIP3    H269132   2.491   4.263  13.536  0.0177 -0.5322  0.4514
15881TIP3   OH269133   6.569   6.591  16.189 -0.2799 -0.0017 -0.3484
15881TIP3    H169134   6.594   6.609  16.279  2.1814 -1.1069 -0.7544
15881TIP3    H269135   6.611   6.660  16.138  1.9570 -1.7581 -1.0235
15882TIP3   OH269136   6.539   0.922   1.602  0.0306  0.2832  0.4448
15882TIP3    H169137   6.514   0.993   1.661  2.0329 -0.5872  2.5244
15882TIP3    H269138   6.619   0.954   1.559 -0.3256  0.1516 -0.3280
15883TIP3   OH269139   6.131   3.595   3.115 -0.0482  0.1202 -0.3765
15883TIP3    H169140   6.205   3.537   3.097  0.6423  1.0587 -0.5756
15883TIP3    H269141   6.054   3.540   3.099  0.5577 -1.3842  1.4955
15884TIP3   OH269142   0.337   4.947   3.900 -0.5478 -0.0335  0.5320
15884TIP3    H169143   0.306   4.878   3.840  0.1284  0.6066 -0.5741
15884TIP3    H269144   0.305   5.028   3.861 -1.3387  0.3129  1.8328
15885TIP3   OH269145   6.724   6.159  13.638  0.0773 -0.9485 -0.1546
15885TIP3    H169146   6.763   6.090  13.584 -1.6339 -1.3623 -0.9271
15885TIP3    H269147   6.744   6.133  13.728 -1.0290 -2.8071 -0.3993
15886TIP3   OH269148   6.389   1.345  12.829 -0.2478  0.7352  0.7526
15886TIP3    H169149   6.405   1.328  12.922  0.5956 -0.8974  0.3568
15886TIP3    H269150   6.387   1.440  12.822  1.1680  0.9209  2.2249
15887TIP3   OH269151   1.809   0.764   2.328  0.6361  0.5952 -0.1900
15887TIP3    H169152   1.863   0.694   2.365 -0.4658 -0.0014  0.3192
15887TIP3    H269153   1.722   0.726   2.318  0.4910  1.2621 -1.8480
15888TIP3   OH269154   0.742   4.297   2.317  0.7381  0.3099 -0.2421
15888TIP3    H169155   0.673   4.288   2.251  1.4981  2.1590 -1.3673
15888TIP3    H269156   0.816   4.248   2.280  0.1269 -1.6155  0.9324
15889TIP3   OH269157   3.259   5.070   3.524 -0.8287  0.1002  0.1361
15889TIP3    H169158   3.307   5.031   3.451  0.7060  1.6786  0.2546
15889TIP3    H269159   3.216   4.995   3.566  1.1208 -1.3340 -0.2617
15890TIP3   OH269160   5.218   4.287  16.166  0.3349 -0.3117  0.5291
15890TIP3    H169161   5.219   4.251  16.255  1.2674 -1.3529  0.1242
15890TIP3    H269162   5.305   4.327  16.156  0.7659 -1.3907 -0.3416
15891TIP3   OH269163   4.713   5.493  16.160 -0.6401 -0.1692  0.3733
15891TIP3    H169164   4.635   5.469  16.210 -1.0759  1.5304  0.5557
15891TIP3    H269165   4.738   5.579  16.193  0.5169 -0.0909 -0.6347
15892TIP3   OH269166   6.547   1.292  14.497  0.4757 -0.2225  0.3115
15892TIP3    H169167   6.618   1.342  14.458  0.0296 -0.9305 -1.5007
15892TIP3    H269168   6.475   1.300  14.435 -0.2823 -1.3859  1.0000
15893TIP3   OH269169   1.441   4.268  15.256 -0.2473  0.6853 -0.1316
15893TIP3    H169170   1.378   4.303  15.319  0.9128  2.5525  0.0669
15893TIP3    H269171   1.439   4.174  15.269 -1.3747  0.8996  1.4186
15894TIP3   OH269172   4.652   1.914  11.833  0.5118 -0.2219  0.6414
15894TIP3    H169173   4.691   2.001  11.842 -0.2297  0.0519  1.2727
15894TIP3    H269174   4.706   1.871  11.766  1.7813  0.2108  1.3395
15895TIP3   OH269175   5.998   6.059   0.028  1.0480 -0.2484  0.2025
15895TIP3    H169176   6.058   6.133   0.040  1.9658 -0.5854 -1.9000
15895TIP3    H269177   5.912   6.098   0.019  1.3040  0.4367  0.6656
15896TIP3   OH269178   2.096   1.791   1.422 -0.3685 -0.5228 -0.3454
15896TIP3    H169179   2.134   1.816   1.338 -0.5034  0.0447 -0.2385
15896TIP3    H269180   2.172   1.770   1.477 -0.2482 -0.2608 -0.4087
15897TIP3   OH269181   1.094   5.189   4.592 -0.5123 -0.2978 -0.1066
15897TIP3    H169182   1.069   5.112   4.541 -0.1015 -1.0593  0.8100
15897TIP3    H269183   1.187   5.203   4.571 -0.2118 -0.8993  0.7585
15898TIP3   OH269184   0.119   1.216   2.408  0.2985  0.8160  0.1102
15898TIP3    H169185   0.160   1.163   2.476  0.2628 -0.7206 -1.0175
15898TIP3    H269186   0.027   1.191   2.411 -0.2516  2.7603  1.2734
15899TIP3   OH269187   6.402   4.989   3.740 -0.0978 -0.4845 -0.2105
15899TIP3    H169188   6.377   4.913   3.793  1.1585 -0.4608  0.4346
15899TIP3    H269189   6.388   5.064   3.798  1.1969 -0.4525  0.0802
15900TIP3   OH269190   6.221   2.808   3.709 -0.5073 -0.2825  0.1205
15900TIP3    H169191   6.241   2.770   3.795 -0.6187  1.5131  0.9898
15900TIP3    H269192   6.289   2.873   3.695 -1.8814  1.1951  0.0184
15901TIP3   OH269193   3.055   4.438  11.193  0.3062  0.4536  0.4616
15901TIP3    H169194   3.144   4.463  11.169 -0.0643  2.1166  0.7079
15901TIP3    H269195   3.066   4.375  11.264  1.2919 -0.0675 -0.1386
15902TIP3   OH269196   4.737   0.409   5.835 -0.0697  0.0561  0.3429
15902TIP3    H169197   4.745   0.383   5.927  0.2706  2.1350  0.9449
15902TIP3    H269198   4.704   0.498   5.838  1.0242  0.5813 -1.5351
15903TIP3   OH269199   4.391   1.115   0.488  0.4183  0.2072  0.5013
15903TIP3    H169200   4.409   1.203   0.521 -0.4920  0.5553  0.1228
15903TIP3    H269201   4.342   1.130   0.407 -1.4910 -0.6335  1.4351
15904TIP3   OH269202   1.388   2.610   3.289 -0.7375 -0.3397  0.4517
15904TIP3    H169203   1.397   2.550   3.215 -0.9922  0.6274 -0.3763
15904TIP3    H269204   1.469   2.599   3.338  0.5196  0.7575 -1.2952
15905TIP3   OH269205   4.178   2.394  15.134 -0.0854 -0.4698  0.1140
15905TIP3    H169206   4.083   2.392  15.125 -0.1024 -3.2695  0.2632
15905TIP3    H269207   4.207   2.307  15.108  2.1374 -0.7619  3.0564
15906TIP3   OH269208   1.878   2.139  11.729  0.2276 -0.4812 -0.6891
15906TIP3    H169209   1.865   2.081  11.803  3.9721 -1.4660 -0.6064
15906TIP3    H269210   1.854   2.226  11.761 -0.7107 -1.2509  0.7848
15907TIP3   OH269211   1.621   0.001  15.714  0.0733  0.1648 -0.3848
15907TIP3    H169212   1.631  -0.091  15.693  0.3011  0.6569 -2.6577
15907TIP3    H269213   1.541   0.028  15.669 -0.6941  0.8290  1.2787
15908TIP3   OH269214   3.344   4.948   5.528 -0.3725 -0.0535  0.4495
15908TIP3    H169215   3.276   5.012   5.505 -0.7771 -0.8110 -0.5760
15908TIP3    H269216   3.419   5.000   5.555 -1.1245  0.8208  0.8862
15909TIP3   OH269217   0.631   0.670  13.721  0.3936  0.2630 -0.2120
15909TIP3    H169218   0.696   0.658  13.791 -1.7427  0.2327  1.9200
15909TIP3    H269219   0.574   0.740  13.753 -1.8699 -1.1348 -0.9412
15910TIP3   OH269220   3.980   1.643  12.418  0.3430 -0.2907  0.2341
15910TIP3    H169221   3.976   1.618  12.510  2.8710 -1.2288  0.1727
15910TIP3    H269222   4.061   1.694  12.410  0.0436 -0.0052 -1.4145
15911TIP3   OH269223   4.812   4.524  14.680 -0.1559  0.3536 -0.1125
15911TIP3    H169224   4.847   4.545  14.766 -0.0335  0.0558 -0.0899
15911TIP3    H269225   4.820   4.605  14.630 -1.8587  1.0799  0.6883
15912TIP3   OH269226   5.231   0.869   0.152  0.2413  0.1437 -0.0882
15912TIP3    H169227   5.154   0.907   0.194  0.2758  0.9045 -0.6894
15912TIP3    H269228   5.233   0.909   0.064  0.6899 -0.7083 -0.4743
15913TIP3   OH269229   0.311   2.688   4.149  0.3109 -0.6864 -0.3709
15913TIP3    H169230   0.247   2.760   4.152 -0.6406 -1.5068 -0.5225
15913TIP3    H269231   0.343   2.688   4.059 -1.1197 -1.6468 -0.9101
15914TIP3   OH269232   1.570   0.922   2.915  0.5352  0.1626  0.0960
15914TIP3    H169233   1.548   1.008   2.952 -2.8353 -0.7743  0.6268
15914TIP3    H269234   1.493   0.868   2.933  1.5538 -2.3288 -2.3301
15915TIP3   OH269235   4.616   3.824   4.819  0.1670 -0.6156  0.1425
15915TIP3    H169236   4.529   3.785   4.825  0.6757 -1.6709  0.9824
15915TIP3    H269237   4.600   3.917   4.803 -1.1408 -0.5645  1.5400
15916TIP3   OH269238   4.879   3.458   2.784  0.0969 -0.0215 -0.0747
15916TIP3    H169239   4.859   3.525   2.849  1.6592  0.1122  0.2926
15916TIP3    H269240   4.794   3.435   2.746 -0.4760  2.0900 -0.1447
15917TIP3   OH269241   4.998   1.530   1.937 -0.3953  0.4254 -0.6030
15917TIP3    H169242   4.927   1.585   1.968 -0.5263  0.8198 -1.5921
15917TIP3    H269243   5.046   1.506   2.017 -0.4668  1.7762 -0.1380
15918TIP3   OH269244   5.311   5.105  13.473 -0.3749  0.0021 -0.4665
15918TIP3    H169245   5.258   5.038  13.431  0.3868 -0.9037 -0.0137
15918TIP3    H269246   5.381   5.057  13.516 -0.3949  1.0095  0.7477
15919TIP3   OH269247   6.712   1.283  12.688  0.1665  0.1184 -0.4145
15919TIP3    H169248   6.722   1.345  12.615 -1.0254  0.5405 -0.2483
15919TIP3    H269249   6.782   1.219  12.675  1.8576  1.8414 -0.2447
15920TIP3   OH269250   0.207   0.342   1.796 -0.7886 -0.3947  0.3362
15920TIP3    H169251   0.198   0.262   1.848  2.7855 -0.7689  0.6443
15920TIP3    H269252   0.170   0.320   1.710  1.3587 -2.9777 -0.0403
15921TIP3   OH269253   2.773   1.989  12.429  0.1360 -0.1893 -0.7458
15921TIP3    H169254   2.696   2.013  12.480  1.2402  2.1432 -0.0579
15921TIP3    H269255   2.845   1.990  12.492  1.1957  0.6514 -1.9205
15922TIP3   OH269256   3.727   4.686   0.003  0.0585 -0.1267 -0.3982
15922TIP3    H169257   3.662   4.744  -0.036 -0.4447 -1.2749 -1.3543
15922TIP3    H269258   3.683   4.649   0.079  0.9000  1.8106  1.1049
15923TIP3   OH269259   1.980   2.988  14.821 -0.0707 -0.8282  0.0154
15923TIP3    H169260   2.020   2.933  14.888  0.7329  0.5455  0.7197
15923TIP3    H269261   2.036   3.066  14.818 -2.5839  1.1480  0.9289
15924TIP3   OH269262   4.099   5.354  10.297 -0.0972  0.5702  0.4629
15924TIP3    H169263   4.173   5.387  10.245  1.2400  2.8256  3.4443
15924TIP3    H269264   4.131   5.273  10.335  0.1363  0.5749  0.2793
15925TIP3   OH269265   0.217   5.969  16.014  0.1452 -0.1025  0.1234
15925TIP3    H169266   0.204   5.954  16.108 -0.4297 -0.6686 -0.0413
15925TIP3    H269267   0.250   5.886  15.981 -0.1977 -0.0824 -0.2768
15926TIP3   OH269268   5.641   3.369   5.341 -0.2467 -0.4255 -0.3476
15926TIP3    H169269   5.611   3.403   5.426  2.2922 -0.8407  0.8051
15926TIP3    H269270   5.644   3.274   5.353  1.1191 -0.4247 -0.5130
15927TIP3   OH269271   6.223   2.173   2.791  0.1370 -0.4070 -0.3784
15927TIP3    H169272   6.179   2.245   2.837 -0.0664 -1.9223  1.9684
15927TIP3    H269273   6.297   2.215   2.746  1.2024  1.0740  2.5025
15928TIP3   OH269274   1.772   5.850   0.117 -0.2663 -0.5225  0.0911
15928TIP3    H169275   1.743   5.821   0.204 -2.2280 -2.1841 -1.0361
15928TIP3    H269276   1.773   5.945   0.123  0.5150 -0.6030  2.1723
15929TIP3   OH269277   4.249   0.405  11.623 -0.1736  0.4385 -0.1156
15929TIP3    H169278   4.216   0.495  11.629  1.5239  1.0852  0.2042
15929TIP3    H269279   4.238   0.381  11.531 -0.9069  0.8640 -0.1441
15930TIP3   OH269280   2.674   3.792  11.942  0.2716 -0.5208  0.3379
15930TIP3    H169281   2.638   3.879  11.960 -0.4784 -0.9078  0.7429
15930TIP3    H269282   2.763   3.810  11.911  0.8397  0.3087  2.2727
15931TIP3   OH269283   6.404   4.368  15.529  0.5986  0.0193  0.1869
15931TIP3    H169284   6.397   4.376  15.434  0.7525  1.2879  0.2657
15931TIP3    H269285   6.364   4.448  15.562  4.5227  1.8333  1.0445
15932TIP3   OH269286   0.673   1.575   0.207  0.2032 -0.3415  0.3431
15932TIP3    H169287   0.759   1.542   0.182  0.5226 -0.1463  1.1773
15932TIP3    H269288   0.663   1.656   0.156 -0.3679 -1.3939 -1.3132
15933TIP3   OH269289   3.698   2.755   4.186  0.4690 -0.0191 -0.0252
15933TIP3    H169290   3.788   2.728   4.206  0.3672  1.1019  2.3510
15933TIP3    H269291   3.645   2.680   4.212  0.5339  0.5525  1.9764
15934TIP3   OH269292   0.205   2.777   5.947  0.3282  0.2798  0.1856
15934TIP3    H169293   0.201   2.718   6.022  0.8441  0.5845  0.4603
15934TIP3    H269294   0.267   2.846   5.973 -1.6013  1.9688  0.5933
15935TIP3   OH269295   4.130   0.207  14.355 -0.5636  0.0180  0.0897
15935TIP3    H169296   4.073   0.283  14.344 -0.6732 -0.0321  0.2981
15935TIP3    H269297   4.110   0.175  14.443  1.6323  1.5297  1.2273
15936TIP3   OH269298   1.641   2.087  14.137 -0.2398  0.1412 -0.1489
15936TIP3    H169299   1.572   2.146  14.105 -1.0259 -1.1584 -0.9610
15936TIP3    H269300   1.629   2.008  14.086  0.3632 -0.9748  1.3745
15937TIP3   OH269301   3.454   6.162   2.588  0.2976 -0.3881 -0.4041
15937TIP3    H169302   3.507   6.236   2.559 -1.5922  1.1978 -0.0395
15937TIP3    H269303   3.406   6.195   2.664 -1.1917 -1.7272 -0.7087
15938TIP3   OH269304   0.498   4.808   5.240 -0.0229  0.0506  0.1824
15938TIP3    H169305   0.548   4.846   5.168  0.9159 -0.5366  0.5035
15938TIP3    H269306   0.418   4.775   5.199  0.1162  0.4779 -0.4439
15939TIP3   OH269307   2.412   5.032   3.705  0.4507  0.1968 -0.7215
15939TIP3    H169308   2.322   5.056   3.684 -0.0888 -0.7328  0.4200
15939TIP3    H269309   2.448   5.000   3.622 -0.0076  1.2839 -1.3645
15940TIP3   OH269310   5.051   0.049  15.782 -0.7987 -0.7183  0.7180
15940TIP3    H169311   5.105  -0.007  15.838 -0.7765 -0.0963  1.3291
15940TIP3    H269312   5.113   0.107  15.739 -0.7650 -1.5359 -0.3641
15941TIP3   OH269313   4.029   1.363  15.608 -0.0435  0.2624 -0.3235
15941TIP3    H169314   3.989   1.383  15.524  1.2246 -0.2145 -1.0765
15941TIP3    H269315   4.070   1.445  15.636 -0.1085  0.3117 -0.3730
15942TIP3   OH269316   5.017   4.613  11.606  0.3088 -0.3695  0.0106
15942TIP3    H169317   5.108   4.618  11.578  0.3743 -0.7293  0.1442
15942TIP3    H269318   5.002   4.692  11.657 -0.1926  0.9840 -2.1084
15943TIP3   OH269319   2.690   2.557  13.366 -0.1071  0.0180 -0.0744
15943TIP3    H169320   2.668   2.643  13.402  1.0849  0.3996 -0.1816
15943TIP3    H269321   2.655   2.494  13.429 -0.9679  0.5765  0.0213
15944TIP3   OH269322   6.168   0.198  14.631 -0.0974  0.1788  0.3280
15944TIP3    H169323   6.141   0.194  14.539 -0.8209 -0.0932  0.5472
15944TIP3    H269324   6.261   0.221  14.627  0.0969 -0.6699 -0.5000
15945TIP3   OH269325   2.115   6.701  15.168  0.4055 -0.2760 -0.1411
15945TIP3    H169326   2.075   6.757  15.235  0.0901 -1.9263  1.1082
15945TIP3    H269327   2.181   6.757  15.127  0.7057  0.7773  1.6559
15946TIP3   OH269328   0.615   4.312  16.707 -0.4282  0.2151  0.0266
15946TIP3    H169329   0.635   4.293  16.799  0.6547  0.9607 -0.0356
15946TIP3    H269330   0.555   4.386  16.711 -0.2931  0.3196  0.1279
15947TIP3   OH269331   2.942   5.719  16.939  0.5176  0.1840 -0.4019
15947TIP3    H169332   2.980   5.739  16.853 -0.7573  0.4189 -0.9490
15947TIP3    H269333   3.001   5.761  17.002  0.7866  1.1370 -1.2504
15948TIP3   OH269334   3.825   4.692  12.457  0.3184 -0.5188 -0.2789
15948TIP3    H169335   3.897   4.654  12.508  1.0590  0.9613 -0.1694
15948TIP3    H269336   3.869   4.744  12.389 -0.6540 -1.4991 -1.7214
15949TIP3   OH269337   3.869   6.690  14.809  0.4010 -0.3130 -0.3175
15949TIP3    H169338   3.818   6.663  14.733  0.0234 -0.2616 -0.0839
15949TIP3    H269339   3.815   6.664  14.884  0.6957 -0.2141 -0.0709
15950TIP3   OH269340   5.035   3.497  15.609  0.5047 -0.3468  0.7728
15950TIP3    H169341   5.018   3.589  15.627 -0.3619 -0.1476 -0.8233
15950TIP3    H269342   5.062   3.460  15.693  1.5409  1.4951  1.2991
15951TIP3   OH269343   0.295   6.052  11.595  0.1169  0.1845  0.1893
15951TIP3    H169344   0.245   6.132  11.608  1.2737  1.1838 -1.2846
15951TIP3    H269345   0.386   6.077  11.610  0.4089 -1.1256  0.7975
15952TIP3   OH269346   1.783   5.252  12.810 -0.3298 -0.4325 -0.1082
15952TIP3    H169347   1.698   5.283  12.840  0.2085  0.5988  0.3929
15952TIP3    H269348   1.831   5.231  12.890  0.2739  0.0385 -0.3400
15953TIP3   OH269349   3.009   6.626  12.813  0.4016 -0.2668  0.0606
15953TIP3    H169350   2.926   6.629  12.861 -0.1702 -0.8555 -0.8842
15953TIP3    H269351   3.016   6.536  12.782  1.2334 -0.1335 -0.1617
15954TIP3   OH269352   5.559   5.276  17.017  0.1063 -0.5380 -0.5037
15954TIP3    H169353   5.612   5.343  17.059  0.2629 -0.6689 -0.4915
15954TIP3    H269354   5.605   5.194  17.034  0.2892 -0.5682 -1.1086
15955TIP3   OH269355   3.542   3.101  13.540 -0.2602 -0.4856 -0.0414
15955TIP3    H169356   3.499   3.184  13.520  0.3410 -0.2536 -0.4176
15955TIP3    H269357   3.518   3.043  13.467  0.8676 -0.0393 -0.8142
15956TIP3   OH269358   6.312   2.177   4.160 -0.4651 -0.4531  0.2363
15956TIP3    H169359   6.373   2.240   4.198  0.6428 -1.2292 -0.2121
15956TIP3    H269360   6.356   2.145   4.082 -1.3602 -1.1959  0.0194
15957TIP3   OH269361   1.629   5.105  14.190  0.0234 -0.2597  0.1077
15957TIP3    H169362   1.716   5.146  14.195  0.2239 -0.4748 -1.1749
15957TIP3    H269363   1.629   5.061  14.105 -1.7414  0.7014 -0.4469
15958TIP3   OH269364   4.453   1.496   5.124  0.4202 -0.0226 -0.1472
15958TIP3    H169365   4.511   1.452   5.063  0.4986  0.9814 -0.8188
15958TIP3    H269366   4.411   1.565   5.072 -0.0712  0.3720  0.7468
15959TIP3   OH269367   0.462   0.654  11.933 -0.3400 -0.3259  0.1674
15959TIP3    H169368   0.413   0.602  11.997 -1.7477  0.6495 -0.0686
15959TIP3    H269369   0.507   0.590  11.879  0.9601 -1.1819  2.1517
15960TIP3   OH269370   0.430   1.228  15.052  0.3805  0.2272  0.3673
15960TIP3    H169371   0.464   1.317  15.047  0.9377 -0.0079 -0.1241
15960TIP3    H269372   0.368   1.230  15.125 -0.5634  1.3155 -0.4363
15961TIP3   OH269373   1.734   5.916  14.277 -0.1167 -0.0260 -0.1021
15961TIP3    H169374   1.689   5.961  14.348 -2.1554  0.0527 -1.3260
15961TIP3    H269375   1.739   5.981  14.207 -0.1031 -0.7104 -0.7490
15962TIP3   OH269376   0.574   0.132   1.492  0.0276  0.3265 -0.3359
15962TIP3    H169377   0.523   0.057   1.460  0.8169 -0.5245  0.3244
15962TIP3    H269378   0.519   0.172   1.559  0.1110 -0.4517  0.2200
15963TIP3   OH269379   5.736   4.727  15.023  0.0834 -0.0945 -0.4420
15963TIP3    H169380   5.775   4.737  15.110 -0.9666 -0.3942  0.0782
15963TIP3    H269381   5.780   4.651  14.986  0.8082  0.2616 -0.3313
15964TIP3   OH269382   1.217   2.505   1.103  0.5308  0.0646  0.2172
15964TIP3    H169383   1.302   2.544   1.124  0.6150 -0.8258  1.6019
15964TIP3    H269384   1.166   2.514   1.183 -0.1977 -0.7134 -0.1463
15965TIP3   OH269385   1.444   1.619   2.302  0.6086 -0.0027 -0.0155
15965TIP3    H169386   1.367   1.592   2.351  0.3720 -0.4643 -0.6328
15965TIP3    H269387   1.410   1.646   2.217  0.8882  1.8171  0.4078
15966TIP3   OH269388   2.280   5.513   4.241  1.3055 -0.1981  0.7441
15966TIP3    H169389   2.239   5.428   4.254  1.2906 -0.1155  1.2590
15966TIP3    H269390   2.372   5.499   4.266  1.5451 -0.3124 -0.1347
15967TIP3   OH269391   2.651   2.065   0.349  0.4884 -0.1966  0.2239
15967TIP3    H169392   2.638   2.005   0.276  0.5823 -0.1772  0.1915
15967TIP3    H269393   2.745   2.084   0.348  0.4252  0.1220  0.0983
15968TIP3   OH269394   6.250   4.595  11.978 -0.9024  0.3533  0.6659
15968TIP3    H169395   6.267   4.583  11.885  0.7865 -0.5637  1.0616
15968TIP3    H269396   6.227   4.687  11.987 -3.8426 -0.0774 -1.0067
15969TIP3   OH269397   3.032   2.956   0.806  0.1880  0.0382 -0.1523
15969TIP3    H169398   3.049   2.883   0.866  1.8921  1.0346  0.6564
15969TIP3    H269399   2.962   3.006   0.849 -0.3166 -0.5750 -0.2409
15970TIP3   OH269400   3.591   2.806  12.704 -0.2953  0.9983 -0.9135
15970TIP3    H169401   3.538   2.880  12.735 -0.0036  0.1435  1.8686
15970TIP3    H269402   3.667   2.805  12.762 -0.2548 -1.4346 -0.9155
15971TIP3   OH269403   4.118   6.167  12.637  0.0939  0.6153 -0.4160
15971TIP3    H169404   4.042   6.129  12.594  0.4155  0.6006 -0.9840
15971TIP3    H269405   4.141   6.243  12.582  0.7317  0.3807 -0.4868
15972TIP3   OH269406   0.193   4.735   3.780 -0.2900 -0.1970 -0.7512
15972TIP3    H169407   0.239   4.676   3.840  0.3587  0.3745 -0.6693
15972TIP3    H269408   0.103   4.737   3.813 -0.3957 -1.3483 -0.9254
15973TIP3   OH269409   3.675   3.809  15.458  0.1788  0.2982 -0.1840
15973TIP3    H169410   3.684   3.881  15.520 -1.1809 -1.0604  1.7162
15973TIP3    H269411   3.732   3.832  15.385  2.0726  1.8730  1.6763
15974TIP3   OH269412   4.418   2.140  17.245 -0.2114 -0.2015 -0.1567
15974TIP3    H169413   4.484   2.086  17.289 -1.0621 -1.4348 -0.3275
15974TIP3    H269414   4.431   2.228  17.281  0.7328 -0.6626  0.6907
15975TIP3   OH269415   4.326   3.557   5.558 -0.6407 -0.3244  0.1846
15975TIP3    H169416   4.233   3.549   5.539 -0.2367  0.9561 -2.9540
15975TIP3    H269417   4.336   3.647   5.589 -0.6025 -0.9377  2.0585
15976TIP3   OH269418   0.303   6.384   3.428  0.2739  0.3508 -0.2222
15976TIP3    H169419   0.324   6.321   3.496  1.8451  1.3655  0.2838
15976TIP3    H269420   0.386   6.400   3.383 -0.2991  1.2939 -0.9893
15977TIP3   OH269421   0.790   3.343   2.351  0.1070  0.6773  0.2673
15977TIP3    H169422   0.868   3.324   2.298 -0.4329 -0.9671  0.0041
15977TIP3    H269423   0.722   3.363   2.287 -0.0060  0.8705  0.4470
15978TIP3   OH269424   6.124   4.335   6.305 -0.2738 -0.0778 -0.1295
15978TIP3    H169425   6.198   4.354   6.248  0.8671 -2.2440  0.5015
15978TIP3    H269426   6.046   4.352   6.251  0.7262 -0.6155 -1.8021
15979TIP3   OH269427   2.854   0.224  11.127 -0.2704  0.1360  0.3521
15979TIP3    H169428   2.878   0.288  11.194  0.8620 -0.2661  0.3507
15979TIP3    H269429   2.929   0.222  11.068 -1.0963  0.2039 -0.7299
15980TIP3   OH269430   2.391   1.210  13.106 -0.4404  0.7739  0.6520
15980TIP3    H169431   2.325   1.279  13.098 -2.0220 -0.6574  0.8571
15980TIP3    H269432   2.371   1.167  13.189  0.1454 -0.3059  0.2568
15981TIP3   OH269433   4.679   0.460   2.084 -0.6036 -0.0914 -0.2142
15981TIP3    H169434   4.619   0.435   2.014 -1.0495  0.5807 -0.0807
15981TIP3    H269435   4.766   0.439   2.049 -0.8873 -0.7756 -0.5327
15982TIP3   OH269436   3.111   6.410   4.699  0.1379 -0.0292  0.5279
15982TIP3    H169437   3.121   6.393   4.605 -0.1610 -1.5919  0.7521
15982TIP3    H269438   3.113   6.506   4.706  1.0142  0.0983 -0.9662
15983TIP3   OH269439   1.359   6.080  12.096 -0.2566 -0.2134  0.1558
15983TIP3    H169440   1.296   6.008  12.091 -1.2012  0.6238 -0.3439
15983TIP3    H269441   1.342   6.131  12.017  1.2692 -0.1274 -0.1480
15984TIP3   OH269442   0.647   5.478  14.499 -0.0426 -0.1889  0.0476
15984TIP3    H169443   0.692   5.429  14.431  0.4943 -2.5344  1.9745
15984TIP3    H269444   0.584   5.416  14.537 -0.3892  1.0524  1.6280
15985TIP3   OH269445   3.945   5.501   0.674  0.0667 -0.6066  0.4525
15985TIP3    H169446   3.871   5.556   0.702 -0.1395 -1.0772  0.8365
15985TIP3    H269447   3.921   5.413   0.702  0.6853 -0.7940  0.3875
15986TIP3   OH269448   6.426   5.523   0.330 -0.3698  0.2342  0.2238
15986TIP3    H169449   6.466   5.525   0.243 -0.3260  1.6669  0.2525
15986TIP3    H269450   6.494   5.486   0.387 -0.0677  0.1409 -0.1947
15987TIP3   OH269451   5.082   1.515   3.464  0.2528 -0.1401 -0.2816
15987TIP3    H169452   5.080   1.428   3.504 -1.1878 -1.1649 -2.3845
15987TIP3    H269453   5.159   1.514   3.407  0.0005 -0.1757 -0.6192
15988TIP3   OH269454   0.470   1.619   1.856 -0.5183 -0.0791  0.1303
15988TIP3    H169455   0.466   1.540   1.910  0.1059  0.9797  1.8015
15988TIP3    H269456   0.526   1.679   1.905 -0.7129  1.2966 -1.2539
15989TIP3   OH269457   2.911   2.591   3.065  0.1094 -0.4907 -0.0218
15989TIP3    H169458   2.856   2.529   3.113  0.5115 -0.5524  0.3647
15989TIP3    H269459   2.985   2.607   3.122  0.7105 -0.7350 -0.7220
15990TIP3   OH269460   4.430   1.497  15.121 -0.1040 -0.4101  0.2484
15990TIP3    H169461   4.425   1.514  15.027  0.5710 -1.5366 -0.0182
15990TIP3    H269462   4.449   1.582  15.161 -1.6284  0.3017 -0.5002
15991TIP3   OH269463   5.555   5.908  12.236  0.3910 -0.3239  0.5193
15991TIP3    H169464   5.484   5.878  12.292 -1.5415 -0.5323 -1.8833
15991TIP3    H269465   5.596   5.979  12.285 -1.0420 -0.6236  2.2599
15992TIP3   OH269466   5.433   0.367   0.625  0.1628 -0.1117  0.2998
15992TIP3    H169467   5.346   0.334   0.599 -0.1542  0.5949  0.4418
15992TIP3    H269468   5.494   0.317   0.571 -0.3816 -0.0630 -0.3781
15993TIP3   OH269469   3.905   5.242  14.250  0.3909  0.1161  0.1596
15993TIP3    H169470   3.815   5.266  14.270  0.2646  1.3054 -1.5946
15993TIP3    H269471   3.953   5.325  14.251  1.0893 -0.2618 -0.5886
15994TIP3   OH269472   2.568   0.923  12.750  0.2712  0.0411  0.0136
15994TIP3    H169473   2.602   0.885  12.831 -1.2052 -2.8500 -0.5981
15994TIP3    H269474   2.476   0.942  12.769  0.1698  0.2843 -0.6889
15995TIP3   OH269475   3.665   3.532   1.361 -0.2639 -0.0959  1.2793
15995TIP3    H169476   3.593   3.577   1.317  0.6290  0.4307  0.3142
15995TIP3    H269477   3.623   3.459   1.407 -1.2265 -0.7864 -0.5931
15996TIP3   OH269478   3.234   3.958   4.202  0.0917  0.1206  0.4469
15996TIP3    H169479   3.313   3.955   4.256 -0.4347 -0.3424  1.2174
15996TIP3    H269480   3.184   4.032   4.237 -1.0999 -1.2839  1.8498
15997TIP3   OH269481   6.466   3.139   2.548 -0.1848 -0.2922 -0.1242
15997TIP3    H169482   6.486   3.112   2.458  1.1888  1.9439 -0.5682
15997TIP3    H269483   6.551   3.155   2.587 -0.8250  2.8103  0.1967
15998TIP3   OH269484   4.045   5.425   5.040 -0.4990 -0.1884 -0.0235
15998TIP3    H169485   4.119   5.428   4.979  0.4499  1.5522  1.1198
15998TIP3    H269486   4.012   5.515   5.041 -0.8019 -0.2854  1.6143
15999TIP3   OH269487   6.041   5.317  15.733 -0.0313 -0.1233 -0.6319
15999TIP3    H169488   6.105   5.246  15.742 -0.0314 -0.0979 -0.4321
15999TIP3    H269489   6.067   5.362  15.652  0.5384  0.2282 -0.2590
16000TIP3   OH269490   1.600   2.651  15.602 -0.2907 -0.3748  0.2320
16000TIP3    H169491   1.576   2.705  15.677 -1.8380  0.0940 -0.5605
16000TIP3    H269492   1.640   2.712  15.540 -0.3451 -0.4851  0.0866
16001TIP3   OH269493   5.581   3.376   1.825 -0.4821 -0.3574  0.5992
16001TIP3    H169494   5.636   3.361   1.902  1.6524 -0.5569 -0.8472
16001TIP3    H269495   5.538   3.292   1.810 -1.3202 -0.1729  1.8221
16002TIP3   OH269496   1.764   1.371   3.404 -0.3033 -0.1019 -0.0575
16002TIP3    H169497   1.741   1.285   3.370  1.7231 -0.7028 -0.0318
16002TIP3    H269498   1.857   1.381   3.385 -0.2408  1.6355  0.9024
16003TIP3   OH269499   5.488   5.586  16.572 -0.0661  0.2531  0.5333
16003TIP3    H169500   5.554   5.639  16.617 -0.7985  1.1664  0.5707
16003TIP3    H269501   5.455   5.526  16.639 -1.2174  1.6691  1.2787
16004TIP3   OH269502   4.522   4.399  12.251 -0.3557  0.4241  0.0980
16004TIP3    H169503   4.571   4.322  12.222  0.7586  2.1820 -3.2750
16004TIP3    H269504   4.432   4.382  12.224 -0.2505  0.0147 -0.0043
16005TIP3   OH269505   0.182   2.065   4.300  0.0264  0.7220  0.1885
16005TIP3    H169506   0.277   2.054   4.297  0.0601  0.3804  1.5880
16005TIP3    H269507   0.168   2.128   4.371 -0.7909  0.9152 -0.1320
16006TIP3   OH269508   1.986   4.683  12.566  0.1136 -0.6506  0.3081
16006TIP3    H169509   2.029   4.764  12.540  0.1288  0.1439  2.5723
16006TIP3    H269510   1.893   4.700  12.553 -0.0010  0.3133  2.0761
16007TIP3   OH269511   1.424   5.414   1.678 -0.4038  0.0487  0.5938
16007TIP3    H169512   1.381   5.494   1.650 -0.3955  0.4752  1.7729
16007TIP3    H269513   1.442   5.366   1.596 -0.1520  1.3616 -0.1405
16008TIP3   OH269514   3.862   4.902   1.782 -0.4766 -0.1989 -0.2065
16008TIP3    H169515   3.946   4.935   1.749 -0.0753 -1.8309 -0.9132
16008TIP3    H269516   3.825   4.976   1.830  0.8004  0.9542 -0.9066
16009TIP3   OH269517   2.763   6.262  13.042 -0.0520  0.1384  0.0714
16009TIP3    H169518   2.675   6.250  13.078  0.3248 -2.1523  0.3312
16009TIP3    H269519   2.816   6.194  13.083  1.1991 -0.3507 -2.1959
16010TIP3   OH269520   5.456   3.206   2.395  0.0687  0.1490 -0.1117
16010TIP3    H169521   5.510   3.176   2.468  0.3776  0.2770 -0.2856
16010TIP3    H269522   5.517   3.215   2.322 -0.2238  0.1003 -0.3651
16011TIP3   OH269523   0.101   2.232   0.079  0.2935  0.2864 -0.8665
16011TIP3    H169524   0.084   2.138   0.070 -0.6172  0.3242  0.2504
16011TIP3    H269525   0.184   2.246   0.033  0.8230 -1.2002 -0.4087
16012TIP3   OH269526   4.225   1.126  14.245 -0.4820 -0.7225  0.1428
16012TIP3    H169527   4.191   1.195  14.303 -1.3161 -1.8523  1.0507
16012TIP3    H269528   4.294   1.084  14.296  0.1635 -0.4407 -0.4863
16013TIP3   OH269529   1.337   0.849  13.498 -0.2636  0.1824 -0.6338
16013TIP3    H169530   1.428   0.860  13.471 -0.3197 -0.2267 -1.0075
16013TIP3    H269531   1.303   0.938  13.504  0.7243  0.4630  1.5814
16014TIP3   OH269532   6.728   5.144   0.868  0.7261  0.4991 -0.1255
16014TIP3    H169533   6.736   5.113   0.958 -0.7157  0.1921 -0.0713
16014TIP3    H269534   6.748   5.068   0.814  0.8659  0.4875 -0.0576
16015TIP3   OH269535   5.319   4.029   3.896 -0.1454 -0.1236 -0.0013
16015TIP3    H169536   5.276   3.944   3.896  0.3737 -0.3987  0.4255
16015TIP3    H269537   5.310   4.062   3.807 -1.5027 -0.0231  0.1535
16016TIP3   OH269538   5.098   6.083  13.732  0.5992 -1.0391  0.5374
16016TIP3    H169539   5.186   6.110  13.706  0.7026 -1.2451  0.6738
16016TIP3    H269540   5.059   6.162  13.770  1.1065 -1.2308  1.4773
16017TIP3   OH269541   3.610   1.576  13.632  0.7693 -0.4034  0.4672
16017TIP3    H169542   3.692   1.601  13.590 -0.0465 -0.6752 -1.3907
16017TIP3    H269543   3.576   1.658  13.670  0.5095  0.3358 -1.2832
16018TIP3   OH269544   4.767   6.561  11.703 -0.0293  0.2387  0.1996
16018TIP3    H169545   4.784   6.631  11.765 -1.6197  1.1529 -0.3225
16018TIP3    H269546   4.800   6.595  11.619  2.7898 -1.2796  0.5648
16019TIP3   OH269547   5.792   3.122   4.431 -0.0758  0.5191 -0.1558
16019TIP3    H169548   5.766   3.176   4.506  2.6757  2.1277 -0.2309
16019TIP3    H269549   5.793   3.033   4.465  1.2954  1.2366  1.8449
16020TIP3   OH269550   6.335   4.090  11.417 -0.2562 -0.2577  0.3651
16020TIP3    H169551   6.381   4.106  11.498 -1.2234 -1.3676  1.1690
16020TIP3    H269552   6.394   4.122  11.348  0.2337  1.4401  1.5169
16021TIP3   OH269553   6.511   3.912   5.213  0.0704  0.1085 -0.2181
16021TIP3    H169554   6.548   3.987   5.260  3.2442 -0.4551 -1.6052
16021TIP3    H269555   6.508   3.940   5.122  0.0504 -0.9950 -0.5688
16022TIP3   OH269556   6.813   0.999  13.832  0.4731  0.3232  0.3148
16022TIP3    H169557   6.839   1.064  13.767 -0.9371  0.2042 -0.4130
16022TIP3    H269558   6.735   0.958  13.795  0.0674 -0.2755  1.7442
16023TIP3   OH269559   5.829   6.373  11.694 -0.4627 -0.3533  0.0248
16023TIP3    H169560   5.861   6.323  11.769  1.5922 -0.8239 -1.0979
16023TIP3    H269561   5.876   6.457  11.700  0.5954 -0.8137 -1.3066
16024TIP3   OH269562   3.078   6.429   5.898  0.3594  0.5808  0.2842
16024TIP3    H169563   3.162   6.443   5.942  0.4145  2.8952 -0.4298
16024TIP3    H269564   3.048   6.517   5.874 -1.0126 -0.3746 -1.7962
16025TIP3   OH269565   2.877   2.060  16.464 -0.3569  0.0222 -0.5833
16025TIP3    H169566   2.814   2.060  16.391 -0.0242 -0.8852 -0.8932
16025TIP3    H269567   2.826   2.090  16.539 -1.4790 -1.6602 -0.5974
16026TIP3   OH269568   0.018   6.393   4.572 -0.2086  0.5238 -0.3269
16026TIP3    H169569   0.112   6.411   4.566  0.3434 -1.9599 -0.1974
16026TIP3    H269570  -0.023   6.480   4.571  2.1107  1.7307  0.5250
16027TIP3   OH269571   5.102   6.797   5.353 -0.0095  0.0317 -0.1775
16027TIP3    H169572   5.133   6.785   5.443  1.3479  1.4533 -0.4076
16027TIP3    H269573   5.016   6.838   5.363  0.0463  0.0056  0.4703
16028TIP3   OH269574   4.345   3.382   0.872  0.1481  0.4551 -0.6380
16028TIP3    H169575   4.396   3.319   0.924  0.1076 -1.6805 -2.9814
16028TIP3    H269576   4.267   3.399   0.925  1.6020  1.0246  1.4351
16029TIP3   OH269577   5.048   4.931   2.926 -0.2588  0.4917  0.3975
16029TIP3    H169578   5.086   4.877   2.856  1.1848 -0.4053  1.8152
16029TIP3    H269579   5.112   5.002   2.938 -0.8498  1.0433  0.3610
16030TIP3   OH269580   2.244   0.051  15.025  0.2331  0.5260 -0.1924
16030TIP3    H169581   2.225   0.065  14.932  0.3577  1.4042 -0.0957
16030TIP3    H269582   2.266   0.138  15.058  0.6175  0.1485  0.5666
16031TIP3   OH269583   4.287   3.549   0.593  0.1087 -0.2889 -0.4342
16031TIP3    H169584   4.307   3.517   0.505 -1.2407  0.6417 -1.1255
16031TIP3    H269585   4.281   3.470   0.646 -0.8410 -1.0337 -1.5846
16032TIP3   OH269586   5.737   0.074  16.539  0.2145 -0.2136  0.1216
16032TIP3    H169587   5.772   0.160  16.516  2.6096 -0.8016  1.2969
16032TIP3    H269588   5.745   0.023  16.458  1.5266 -0.1364  0.1805
16033TIP3   OH269589   4.149   4.259  12.874 -0.1032  0.1344  0.0250
16033TIP3    H169590   4.154   4.334  12.815  0.7296 -0.5151 -0.7694
16033TIP3    H269591   4.229   4.209  12.855  0.1668 -0.1130  1.6908
16034TIP3   OH269592   4.698   6.733  13.573  0.1137  0.2855  0.4832
16034TIP3    H169593   4.620   6.724  13.519  0.6083  0.9626 -0.3581
16034TIP3    H269594   4.764   6.771  13.515  0.7420  0.7669  1.4814
16035TIP3   OH269595   6.602   5.815  15.349  0.0055 -0.4645  0.5585
16035TIP3    H169596   6.559   5.756  15.410  0.0394  1.6088  2.7684
16035TIP3    H269597   6.695   5.805  15.367  0.2273 -1.7453 -1.0965
16036TIP3   OH269598   3.638   0.657  13.603 -0.5361  0.0763  0.4478
16036TIP3    H169599   3.731   0.633  13.607 -0.5694 -0.2023 -0.3784
16036TIP3    H269600   3.607   0.646  13.693 -0.3261 -2.0398  0.3003
16037TIP3   OH269601   3.182   5.062  14.295 -0.2505  0.3624  0.3962
16037TIP3    H169602   3.201   4.973  14.265  2.4870  1.1466 -0.4665
16037TIP3    H269603   3.114   5.093  14.235  0.8270 -0.1873 -1.1746
16038TIP3   OH269604   0.519   6.368   0.113 -0.1176  0.7485  0.0957
16038TIP3    H169605   0.462   6.422   0.168  0.3034  0.9664  0.3192
16038TIP3    H269606   0.460   6.301   0.077 -0.2379 -0.0332  1.6209
16039TIP3   OH269607   2.208   6.135   4.158 -0.0251  0.2530 -0.9510
16039TIP3    H169608   2.125   6.139   4.111 -0.4864  1.1859 -0.1043
16039TIP3    H269609   2.225   6.225   4.184  1.7058  0.2174 -1.8400
16040TIP3   OH269610   0.073   6.427  13.384 -0.0600 -0.2112  0.5315
16040TIP3    H169611   0.155   6.403  13.341 -0.5497  0.2971 -0.7497
16040TIP3    H269612   0.005   6.406  13.320 -0.9725 -0.9405  1.7051
16041TIP3   OH269613   4.280   6.237   5.372  0.5263 -0.6202 -0.9111
16041TIP3    H169614   4.193   6.210   5.401  0.0799  2.4461  1.0860
16041TIP3    H269615   4.334   6.158   5.383 -1.1043 -1.4712  2.1269
16042TIP3   OH269616   3.782   3.248  12.744 -0.1235 -0.4694 -0.2009
16042TIP3    H169617   3.852   3.289  12.793  0.6434 -0.3998 -1.3122
16042TIP3    H269618   3.823   3.220  12.662 -0.9507 -2.1619 -0.0803
16043TIP3   OH269619   4.606   3.872  11.141  0.1700 -0.1138  0.5236
16043TIP3    H169620   4.577   3.844  11.228 -1.9496 -1.7095 -0.6183
16043TIP3    H269621   4.558   3.953  11.125  1.7691  1.0842  1.3919
16044TIP3   OH269622   6.590   3.482  15.821 -0.5118 -0.1092  0.5304
16044TIP3    H169623   6.601   3.551  15.886 -2.6512  1.8357 -0.9947
16044TIP3    H269624   6.656   3.500  15.755 -1.1622  0.6341  0.0613
16045TIP3   OH269625   0.733   2.164   2.100 -0.1338 -0.0402 -0.1639
16045TIP3    H169626   0.776   2.078   2.095  1.0964  0.6283 -1.6995
16045TIP3    H269627   0.752   2.194   2.189  0.8204 -0.6706 -0.1304
16046TIP3   OH269628   3.616   0.867  11.539 -0.0364 -0.5002 -0.8606
16046TIP3    H169629   3.588   0.785  11.497 -1.8064 -0.0511 -0.6514
16046TIP3    H269630   3.560   0.874  11.617  0.4964  0.6142 -0.5614
16047TIP3   OH269631   0.035   0.451  12.253 -0.0255 -0.3495  0.0282
16047TIP3    H169632  -0.023   0.526  12.241  0.6063  0.2812  0.7801
16047TIP3    H269633   0.009   0.414  12.337  1.9412  1.1710  1.3936
16048TIP3   OH269634   6.627   6.418  15.269 -0.1591 -0.0331 -0.1296
16048TIP3    H169635   6.550   6.465  15.239  0.2062  1.1377  0.6853
16048TIP3    H269636   6.620   6.418  15.365  1.2796  0.9026  0.0085
16049TIP3   OH269637   6.728   6.093   1.441  0.1022  0.3309  0.5494
16049TIP3    H169638   6.777   6.013   1.462 -0.6163 -0.1914  0.3066
16049TIP3    H269639   6.636   6.067   1.453 -0.2349  0.5994 -1.2362
16050TIP3   OH269640   5.303   6.826   4.769 -0.5186  1.1200  0.4150
16050TIP3    H169641   5.222   6.811   4.819 -1.3236 -0.5773 -1.2492
16050TIP3    H269642   5.369   6.774   4.814 -1.1788 -0.1845 -0.0438
16051TIP3   OH269643   5.168   2.781  11.293 -0.2939 -0.4164  0.1895
16051TIP3    H169644   5.217   2.736  11.224 -1.5106 -0.7754 -0.4670
16051TIP3    H269645   5.198   2.872  11.288  2.1842 -1.0624  1.5216
16052TIP3   OH269646   0.411   4.740  11.619  0.5457 -0.5908 -0.2292
16052TIP3    H169647   0.317   4.756  11.622  0.3739 -1.0167 -2.3478
16052TIP3    H269648   0.444   4.782  11.699 -1.0369  2.2359 -0.9020
16053TIP3   OH269649   3.495   6.740   1.428 -0.4851  0.5027 -0.1805
16053TIP3    H169650   3.572   6.770   1.476 -0.5447  1.7648 -0.8486
16053TIP3    H269651   3.455   6.674   1.486 -1.5483  3.1951  2.3874
16054TIP3   OH269652   2.704   4.201  14.372 -0.6337  0.4346 -0.5656
16054TIP3    H169653   2.734   4.118  14.336  0.3705  0.3269  0.4622
16054TIP3    H269654   2.619   4.182  14.410 -0.0524 -0.3377  0.3851
16055TIP3   OH269655   3.885   1.857   1.628 -0.1687 -0.3414  0.1932
16055TIP3    H169656   3.962   1.844   1.573 -0.4728 -0.4584 -0.2120
16055TIP3    H269657   3.918   1.902   1.706  0.1606  0.3866 -0.3595
16056TIP3   OH269658   5.721   4.684  17.046  0.4400  0.2637  0.2126
16056TIP3    H169659   5.704   4.603  17.094  1.5092 -1.0959 -1.5628
16056TIP3    H269660   5.678   4.671  16.961  1.6608  0.9807 -0.5515
16057TIP3   OH269661   2.518   5.718   0.449  0.1805 -0.5195 -0.2763
16057TIP3    H169662   2.577   5.756   0.514 -2.1292 -1.4751  2.5522
16057TIP3    H269663   2.489   5.793   0.397  1.5023  0.3935  0.2301
16058TIP3   OH269664   3.132   0.720  13.474 -0.2696 -0.1622 -0.1860
16058TIP3    H169665   3.119   0.801  13.524  0.5747  1.1681 -2.0103
16058TIP3    H269666   3.225   0.700  13.485 -0.7506 -1.7659  1.4382
16059TIP3   OH269667   6.195   0.978  11.154  0.5375 -0.0822  0.0594
16059TIP3    H169668   6.235   0.980  11.067  2.4605  1.8068  0.9159
16059TIP3    H269669   6.150   1.062  11.162  0.0426 -0.4020  0.7469
16060TIP3   OH269670   4.498   4.191  13.118  0.0145  0.2520 -0.5640
16060TIP3    H169671   4.424   4.138  13.146 -0.1387  1.3408  1.2446
16060TIP3    H269672   4.459   4.264  13.070  0.0236  0.2274 -0.6093
16061TIP3   OH269673   0.648   4.729   0.924 -0.1040  0.6813 -0.2717
16061TIP3    H169674   0.614   4.648   0.887  0.7299  0.0747  0.2506
16061TIP3    H269675   0.726   4.749   0.871  0.4399  0.4250  0.4133
16062TIP3   OH269676   3.306   1.082   2.212 -0.4138  0.1273  0.2323
16062TIP3    H169677   3.308   1.083   2.308  2.1601  1.0070  0.2235
16062TIP3    H269678   3.394   1.108   2.186 -0.5695 -1.6700 -2.3878
16063TIP3   OH269679   0.681   4.588  16.018  0.3227  0.4781 -0.3678
16063TIP3    H169680   0.591   4.580  16.049 -0.3047  0.2393 -2.1636
16063TIP3    H269681   0.725   4.640  16.086 -1.1756  0.6509  0.5057
16064TIP3   OH269682   2.802   3.778  12.200  0.1083  0.4388 -0.1523
16064TIP3    H169683   2.897   3.772  12.188  0.1755 -1.8579  0.9526
16064TIP3    H269684   2.766   3.743  12.118  0.2233  0.6647 -0.3012
16065TIP3   OH269685   0.382   1.094  16.924 -0.1615  0.1010  0.0452
16065TIP3    H169686   0.472   1.126  16.936 -0.0787 -0.5272  1.2092
16065TIP3    H269687   0.349   1.143  16.848  1.5775 -0.5628 -1.2057
16066TIP3   OH269688   0.325   2.126   3.303 -0.2660 -0.4282  0.2446
16066TIP3    H169689   0.319   2.072   3.382 -2.2075 -0.7343 -0.0626
16066TIP3    H269690   0.286   2.209   3.328 -0.7500 -0.4741 -0.3239
16067TIP3   OH269691   1.864   3.532  17.195 -0.0066 -0.2894 -0.2493
16067TIP3    H169692   1.919   3.610  17.197 -1.3635  0.7349  2.0322
16067TIP3    H269693   1.809   3.543  17.118  1.3519 -0.2006 -1.2568
16068TIP3   OH269694   5.188   3.367  16.800  0.2645 -0.3866  0.2270
16068TIP3    H169695   5.105   3.414  16.795  0.6076  0.4297  1.5448
16068TIP3    H269696   5.196   3.343  16.892  1.8492  0.2640  0.2901
16069TIP3   OH269697   5.232   1.001   1.412  0.4747 -0.0178  0.0496
16069TIP3    H169698   5.320   1.000   1.448  0.3950 -0.8043  0.2554
16069TIP3    H269699   5.243   0.975   1.320  0.2621 -2.5226  0.6508
16070TIP3   OH269700   5.547   5.215   1.512  0.3438  0.2191 -0.0233
16070TIP3    H169701   5.609   5.151   1.479  1.5617  1.8298 -1.0356
16070TIP3    H269702   5.465   5.194   1.467  1.1723  0.4054 -1.7014
16071TIP3   OH269703   5.651   3.010  12.478  0.0585  0.5656  0.0807
16071TIP3    H169704   5.654   2.918  12.505 -1.6044  0.3581 -0.3688
16071TIP3    H269705   5.633   3.058  12.560 -0.0037  0.4020  0.1637
16072TIP3   OH269706   6.363   1.030   6.728 -0.0036  0.1953 -0.4486
16072TIP3    H169707   6.283   0.978   6.719  0.5064 -0.9337  1.0516
16072TIP3    H269708   6.400   1.003   6.812  2.3336  0.1431 -1.4101
16073TIP3   OH269709   3.880   4.534   2.667 -0.3313  0.6235  0.1265
16073TIP3    H169710   3.786   4.530   2.648 -0.4240  0.5238  0.5725
16073TIP3    H269711   3.922   4.536   2.581 -0.7286  0.2900 -0.0844
16074TIP3   OH269712   5.473   3.918  14.481 -0.0663 -0.4120  0.0142
16074TIP3    H169713   5.514   3.853  14.537  0.9508  0.5938  0.4706
16074TIP3    H269714   5.383   3.925  14.515  0.4595  0.0019  1.3772
16075TIP3   OH269715   4.045   0.459   4.872  0.0464 -0.0740 -0.0132
16075TIP3    H169716   4.130   0.487   4.906 -1.1768  3.6022  0.5147
16075TIP3    H269717   4.065   0.421   4.786  2.2787  0.0642  0.3776
16076TIP3   OH269718   1.007   5.266   2.485  0.3269  0.5958 -0.2235
16076TIP3    H169719   1.049   5.333   2.539  0.0001 -0.7530  1.8291
16076TIP3    H269720   1.038   5.183   2.522  0.1438 -0.4189 -2.2125
16077TIP3   OH269721   6.607   2.565   0.954 -0.0893  0.9691 -0.0828
16077TIP3    H169722   6.545   2.583   0.884  0.0341  0.9663 -0.1925
16077TIP3    H269723   6.693   2.581   0.915 -0.0169  0.8960  0.0463
16078TIP3   OH269724   2.421   3.592  15.109  0.9366 -0.0948 -0.2326
16078TIP3    H169725   2.368   3.549  15.042  0.6587 -0.2045  0.0536
16078TIP3    H269726   2.389   3.556  15.192  1.8973 -0.6531 -0.0809
16079TIP3   OH269727   2.445   5.617   5.523  0.5352  0.4737  0.0474
16079TIP3    H169728   2.518   5.607   5.461  1.3076  2.7935  0.4904
16079TIP3    H269729   2.475   5.684   5.584 -1.4429  0.4583  1.1070
16080TIP3   OH269730   5.622   2.126  17.028 -0.5126 -0.6443  0.1276
16080TIP3    H169731   5.593   2.093  16.943 -2.2613 -0.0642  0.4445
16080TIP3    H269732   5.595   2.059  17.090 -0.8215 -0.2867  0.3869
16081TIP3   OH269733   6.680   1.052  13.403  0.1874  0.3039 -0.3394
16081TIP3    H169734   6.772   1.067  13.381  0.5917 -0.9599  0.3296
16081TIP3    H269735   6.667   0.958  13.388 -0.1025 -0.2231  2.4941
16082TIP3   OH269736   5.657   1.753  15.874 -0.3200 -0.4305 -0.5440
16082TIP3    H169737   5.661   1.827  15.935 -0.7573 -1.1867  0.4318
16082TIP3    H269738   5.746   1.744  15.841  0.4004 -1.1967  1.4758
16083TIP3   OH269739   3.910   3.276  15.100 -0.4188  0.2791  0.2074
16083TIP3    H169740   3.883   3.244  15.014  0.0380 -1.2315  0.5934
16083TIP3    H269741   3.911   3.198  15.156  2.2134  0.6660  0.8350
16084TIP3   OH269742   1.332   5.000   0.961  0.0135 -0.0893 -0.3458
16084TIP3    H169743   1.353   4.932   1.024  0.5828 -0.8352 -1.3081
16084TIP3    H269744   1.407   5.002   0.901 -0.2438  1.0014 -0.6648
16085TIP3   OH269745   5.337   6.340  12.418  0.1274 -0.7794 -0.3419
16085TIP3    H169746   5.253   6.304  12.388  0.1925 -1.0251 -0.2344
16085TIP3    H269747   5.314   6.423  12.461 -0.1626 -1.2397  0.4250
16086TIP3   OH269748   4.791   6.105   4.793  0.6546  0.7678 -0.6404
16086TIP3    H169749   4.809   6.016   4.821  0.3764  0.8483 -0.2103
16086TIP3    H269750   4.818   6.106   4.701  0.9587  0.3316 -0.5630
16087TIP3   OH269751   4.466   5.512   0.488  0.2045  0.0671  0.1749
16087TIP3    H169752   4.434   5.504   0.398  2.3334 -1.9788 -0.5375
16087TIP3    H269753   4.392   5.488   0.543 -0.4140 -1.3119 -1.1954
16088TIP3   OH269754   2.053   4.560  12.130  0.5441 -0.1988  0.0457
16088TIP3    H169755   2.000   4.486  12.159 -0.3583  0.2498 -0.4264
16088TIP3    H269756   2.100   4.588  12.208  1.0380 -1.3743  0.1907
16089TIP3   OH269757   3.311   2.767   2.398 -0.2980 -0.3425  0.1299
16089TIP3    H169758   3.235   2.766   2.339 -1.0752  0.0293  1.1021
16089TIP3    H269759   3.379   2.720   2.350 -0.9785 -0.2271 -0.9770
16090TIP3   OH269760   1.805   6.361  12.669 -0.2561  0.1159 -0.0948
16090TIP3    H169761   1.730   6.420  12.675 -0.4662 -0.1792  0.2740
16090TIP3    H269762   1.783   6.288  12.727  0.9784  0.7604  1.2720
16091TIP3   OH269763   6.354   5.191  14.652  0.3107  0.2108 -0.5311
16091TIP3    H169764   6.396   5.217  14.734 -1.4571 -0.1240  0.5492
16091TIP3    H269765   6.422   5.145  14.604  1.5433  0.8592  0.5222
16092TIP3   OH269766   0.589   4.747  11.862 -0.7613  0.0469  0.1500
16092TIP3    H169767   0.663   4.805  11.878  0.7013 -1.6197 -0.2496
16092TIP3    H269768   0.536   4.754  11.941 -0.8691  2.1999 -0.0606
16093TIP3   OH269769   2.993   5.460   3.934  0.2065 -0.2049  0.2681
16093TIP3    H169770   3.003   5.542   3.982 -0.3111  0.0041  0.0239
16093TIP3    H269771   2.949   5.484   3.852  1.0816 -0.5616 -0.3200
16094TIP3   OH269772   5.166   3.288   0.887 -0.0950  0.1860  0.1456
16094TIP3    H169773   5.235   3.351   0.868 -0.8177  1.2244  0.8515
16094TIP3    H269774   5.090   3.320   0.838 -0.4136 -0.2423  0.3552
16095TIP3   OH269775   1.005   3.482   0.869 -0.4738  0.3670 -0.5544
16095TIP3    H169776   1.071   3.551   0.864  0.2884 -0.2144  0.8289
16095TIP3    H269777   1.001   3.459   0.962 -0.2641 -1.8288 -1.0200
16096TIP3   OH269778   1.562   1.218   4.437 -0.3656  1.0082 -0.1642
16096TIP3    H169779   1.489   1.159   4.416 -1.1945  1.4415  1.3636
16096TIP3    H269780   1.522   1.304   4.445  0.1648  1.1457  1.3576
16097TIP3   OH269781   5.638   5.727  17.154  0.2534  0.2512  0.2035
16097TIP3    H169782   5.677   5.797  17.101  1.0087  2.0502  2.9636
16097TIP3    H269783   5.544   5.740  17.145  0.3726  0.7001 -0.4707
16098TIP3   OH269784   4.547   3.372  16.704  0.3816 -0.2987  0.0570
16098TIP3    H169785   4.507   3.309  16.764  2.9084 -1.5749  0.5074
16098TIP3    H269786   4.496   3.364  16.624  0.1532 -2.3825  0.3587
16099TIP3   OH269787   6.432   1.397  16.679  0.0235 -0.5318  0.1579
16099TIP3    H169788   6.362   1.451  16.642  0.4496  0.3179  0.5559
16099TIP3    H269789   6.388   1.340  16.741 -0.4603 -0.7746 -0.3991
16100TIP3   OH269790   3.293   3.617   6.533 -0.0001 -0.2168 -0.2939
16100TIP3    H169791   3.338   3.696   6.503 -0.1193  0.2890  0.8051
16100TIP3    H269792   3.340   3.545   6.490  0.5700  0.4094 -0.7410
16101TIP3   OH269793   5.276   4.915  14.198 -0.2403 -0.4352 -0.2123
16101TIP3    H169794   5.265   4.992  14.141 -0.3386 -1.5338 -1.7572
16101TIP3    H269795   5.370   4.897  14.195 -0.4537 -1.4920 -1.4532
16102TIP3   OH269796   5.628   6.027   3.387 -0.3380 -0.0372  0.1214
16102TIP3    H169797   5.670   6.056   3.467 -0.3127 -0.9382  0.4420
16102TIP3    H269798   5.568   6.098   3.365  0.6781  0.8622  0.1417
16103TIP3   OH269799   4.033   3.488   2.123  0.0870 -0.6196  0.4586
16103TIP3    H169800   3.949   3.534   2.118 -0.7117 -1.6819  2.7414
16103TIP3    H269801   4.097   3.558   2.138 -0.2184  0.2614 -1.8350
16104TIP3   OH269802   2.378   1.974  14.076  0.0036  0.0137  0.0980
16104TIP3    H169803   2.458   1.978  14.023  0.5623  1.2714  0.9684
16104TIP3    H269804   2.308   1.957  14.014  0.8159  0.0424 -0.8469
16105TIP3   OH269805   2.554   4.494   4.093 -0.1935  0.2836 -0.9222
16105TIP3    H169806   2.617   4.434   4.052  1.9575  1.2974  0.7054
16105TIP3    H269807   2.575   4.579   4.055 -0.8479  0.5829 -0.6170
16106TIP3   OH269808   1.272   1.111  10.767  0.1505 -0.1793 -0.4320
16106TIP3    H169809   1.187   1.156  10.772  0.4473  0.2572  1.6802
16106TIP3    H269810   1.336   1.182  10.769  0.5785 -0.5380 -1.2979
16107TIP3   OH269811   1.376   5.953   1.648  0.0771 -0.2357  0.0888
16107TIP3    H169812   1.288   5.992   1.654  0.0196 -0.2599 -0.4941
16107TIP3    H269813   1.410   5.956   1.737  1.0314  3.3944 -0.2244
16108TIP3   OH269814   4.951   2.643   4.756 -0.2794  0.0499 -0.5594
16108TIP3    H169815   5.008   2.720   4.757  1.2253 -0.9836 -1.7546
16108TIP3    H269816   5.008   2.571   4.782 -1.2693 -0.8876 -0.9329
16109TIP3   OH269817   5.808   6.568   1.455 -0.3266  0.0904  0.5753
16109TIP3    H169818   5.778   6.491   1.504  1.5515  0.7788  2.9693
16109TIP3    H269819   5.728   6.605   1.418 -1.4239 -2.3676  0.2300
16110TIP3   OH269820   1.946   0.878   1.062 -0.1489 -0.2615  0.1753
16110TIP3    H169821   1.895   0.835   1.130  0.3287 -1.0079  0.0752
16110TIP3    H269822   1.925   0.830   0.982 -1.0835  0.9110 -0.3300
16111TIP3   OH269823   1.217   4.286  16.476 -0.1059  0.0364 -0.1369
16111TIP3    H169824   1.199   4.216  16.539 -1.0315  0.2133 -0.1794
16111TIP3    H269825   1.261   4.243  16.403  1.1152 -0.1468  0.6896
16112TIP3   OH269826   2.774   3.003   0.174  0.5089 -0.5142  0.0451
16112TIP3    H169827   2.821   2.925   0.145 -0.9904 -1.3792 -0.1111
16112TIP3    H269828   2.753   2.985   0.266  0.6342 -0.0367  0.1719
16113TIP3   OH269829   3.398   2.656   5.206  0.1908  0.1089 -0.0803
16113TIP3    H169830   3.434   2.716   5.141  1.4214 -1.5545 -1.0105
16113TIP3    H269831   3.459   2.661   5.280 -0.6568  1.2421  0.5801
16114TIP3   OH269832   3.614   5.953  14.153 -0.7075 -0.3773 -0.2471
16114TIP3    H169833   3.614   5.947  14.058 -0.2431 -1.1107 -0.2068
16114TIP3    H269834   3.582   5.868  14.182 -0.7380 -0.1967  0.2580
16115TIP3   OH269835   5.533   1.647   1.846 -0.0650  0.1974 -0.3511
16115TIP3    H169836   5.500   1.558   1.837  0.4226 -0.1277  0.8358
16115TIP3    H269837   5.564   1.670   1.758  0.6114 -1.1478 -0.5009
16116TIP3   OH269838   3.463   2.403   5.111 -0.1249 -0.4114 -0.1154
16116TIP3    H169839   3.428   2.477   5.160 -1.2091 -1.3848  0.6615
16116TIP3    H269840   3.411   2.400   5.031  0.1776 -0.1139 -0.3253
16117TIP3   OH269841   4.708   6.429   5.420  0.2814  0.1376 -0.3413
16117TIP3    H169842   4.650   6.495   5.383  1.4778  1.9293  0.8273
16117TIP3    H269843   4.796   6.461   5.401  0.9202 -1.6011 -0.5097
16118TIP3   OH269844   4.071   3.838  14.857 -0.0310  0.1417  0.2880
16118TIP3    H169845   4.156   3.881  14.868 -1.3773  2.8489  1.0796
16118TIP3    H269846   4.042   3.867  14.770 -1.0086  0.9798  0.8760
16119TIP3   OH269847   1.090   5.382  12.868 -0.2342 -0.5635 -0.0938
16119TIP3    H169848   1.149   5.308  12.859  1.3676  0.4218  1.6054
16119TIP3    H269849   1.051   5.371  12.955 -2.0390 -0.7720 -0.8656
16120TIP3   OH269850   5.542   5.671  14.318  0.1037  0.4247 -0.3822
16120TIP3    H169851   5.466   5.613  14.331  0.2064  0.2821 -0.4144
16120TIP3    H269852   5.605   5.642  14.383  1.0535 -1.0201 -1.8646
16121TIP3   OH269853   6.767   0.480  15.961 -0.9726 -0.0431 -0.8944
16121TIP3    H169854   6.727   0.445  15.881 -0.7110  0.7862 -1.4041
16121TIP3    H269855   6.770   0.405  16.021 -0.5286 -0.8664 -1.9034
16122TIP3   OH269856   3.106   1.194  12.999 -0.7350  0.4236 -0.2403
16122TIP3    H169857   3.147   1.268  12.953 -0.1082 -0.0056 -0.3750
16122TIP3    H269858   3.180   1.142  13.032 -1.1422  1.0919  1.8773
16123TIP3   OH269859   4.063   2.955   0.837  0.2963  0.1709  1.2724
16123TIP3    H169860   4.114   2.979   0.914 -1.4041  0.5847  2.3329
16123TIP3    H269861   3.972   2.974   0.862 -0.3120  0.1991 -0.8015
16124TIP3   OH269862   0.657   3.268  11.354 -0.0890  0.3127  0.2806
16124TIP3    H169863   0.718   3.217  11.407 -0.6442 -0.3672  0.2758
16124TIP3    H269864   0.713   3.329  11.306  0.8475 -1.6264 -1.2585
16125TIP3   OH269865   3.697   6.022  10.568 -0.8987 -0.5515 -0.4289
16125TIP3    H169866   3.626   5.989  10.513 -0.7298  0.2206 -1.1349
16125TIP3    H269867   3.734   6.095  10.518 -1.2444  0.6909  1.0584
16126TIP3   OH269868   0.376   6.410  15.777  0.2833  0.0031  0.4203
16126TIP3    H169869   0.318   6.474  15.737  1.6873  0.9626 -0.1340
16126TIP3    H269870   0.319   6.335  15.797 -1.4543  1.4940  1.3628
16127TIP3   OH269871   3.805   2.890   0.940 -0.4793 -0.4798  0.1409
16127TIP3    H169872   3.867   2.848   1.000 -1.7488 -0.5092  1.5006
16127TIP3    H269873   3.747   2.819   0.911  0.2866 -0.5151 -1.3777
16128TIP3   OH269874   1.839   4.801   0.912  0.3977 -0.1747 -0.2004
16128TIP3    H169875   1.894   4.726   0.892  2.0083  1.0097 -0.3913
16128TIP3    H269876   1.820   4.840   0.826 -0.4665 -0.3670 -0.1067
16129TIP3   OH269877   2.077   0.875  12.745 -0.1088 -0.2684 -0.0833
16129TIP3    H169878   2.002   0.900  12.799 -0.3775 -0.3451 -0.4108
16129TIP3    H269879   2.052   0.789  12.708 -0.6813  0.5364 -1.6763
16130TIP3   OH269880   0.407   4.012   0.622 -0.0267 -0.6928  0.0362
16130TIP3    H169881   0.329   3.957   0.613 -0.2064 -0.6796  1.3356
16130TIP3    H269882   0.465   3.961   0.679  1.5934 -1.3940 -2.0835
16131TIP3   OH269883   4.846   0.055   5.353 -0.3058 -0.1379  0.2326
16131TIP3    H169884   4.836   0.127   5.416  1.9233 -0.2429  0.7764
16131TIP3    H269885   4.836   0.097   5.268 -1.5994  0.3222  0.5729
16132TIP3   OH269886   2.496   4.288  15.958  0.5571 -0.0692 -0.0921
16132TIP3    H169887   2.424   4.348  15.937 -1.1021 -2.0293 -0.4000
16132TIP3    H269888   2.545   4.281  15.876 -1.2007 -1.5751 -1.1093
16133TIP3   OH269889   0.901   0.234   0.686 -0.9255 -0.5306 -0.6699
16133TIP3    H169890   0.891   0.296   0.758 -0.6909  0.3084 -1.3510
16133TIP3    H269891   0.926   0.287   0.611 -0.1748 -1.5116 -1.1471
16134TIP3   OH269892   5.672   6.311   4.813 -0.3694  0.2121 -0.3641
16134TIP3    H169893   5.659   6.302   4.719  0.2256 -0.5155 -0.3858
16134TIP3    H269894   5.612   6.248   4.852  2.0353 -2.3179 -0.4255
16135TIP3   OH269895   5.186   1.572  14.782 -0.5928 -0.5729 -0.5326
16135TIP3    H169896   5.277   1.583  14.754  0.1471  0.8475  2.0912
16135TIP3    H269897   5.186   1.490  14.830 -0.8282 -0.8275 -0.9644
16136TIP3   OH269898   2.246   5.525   1.190 -0.2266 -0.1628  0.4055
16136TIP3    H169899   2.331   5.560   1.217 -0.7863  1.6575 -0.0444
16136TIP3    H269900   2.267   5.461   1.121  0.7341  1.4559 -0.8863
16137TIP3   OH269901   4.763   4.136   6.224 -0.0855  0.0720  0.4722
16137TIP3    H169902   4.788   4.066   6.284  0.7955  0.0799  0.1200
16137TIP3    H269903   4.721   4.202   6.280 -1.1406 -0.8167  0.7755
16138TIP3   OH269904   3.310   4.326   0.343  0.0393 -0.7667  0.1507
16138TIP3    H169905   3.374   4.386   0.383  1.7338 -1.8042 -0.8521
16138TIP3    H269906   3.353   4.241   0.346 -1.2053 -1.4549 -0.8534
16139TIP3   OH269907   1.173   2.040  15.787  0.5048  0.1726  0.2342
16139TIP3    H169908   1.096   1.990  15.813  2.4240 -2.3411  1.5525
16139TIP3    H269909   1.155   2.129  15.816 -1.8725 -0.3050  0.4435
16140TIP3   OH269910   0.444   0.691   4.929 -0.2855 -0.4264 -0.2629
16140TIP3    H169911   0.504   0.734   4.990  1.3417 -1.8219 -0.8029
16140TIP3    H269912   0.400   0.624   4.982  0.1100 -0.7169 -0.2952
16141TIP3   OH269913   0.247   2.360  14.455 -0.3584 -0.4104 -0.0370
16141TIP3    H169914   0.308   2.288  14.470 -0.7205 -0.5325  0.9370
16141TIP3    H269915   0.302   2.438  14.447  0.2079 -1.0075 -3.1500
16142TIP3   OH269916   6.392   6.503   5.769 -0.1969  0.0976  0.3665
16142TIP3    H169917   6.348   6.585   5.746  0.1346  0.3234  0.5288
16142TIP3    H269918   6.358   6.480   5.855 -1.6212 -0.8763 -0.4126
16143TIP3   OH269919   4.898   0.628  15.298  0.4473  0.3350 -0.9749
16143TIP3    H169920   4.944   0.544  15.301 -0.4075 -0.1094  0.1462
16143TIP3    H269921   4.860   0.632  15.210 -0.2317 -0.8581 -0.7559
16144TIP3   OH269922   4.027   0.885  13.117 -0.2446 -0.3743 -0.3773
16144TIP3    H169923   3.967   0.956  13.141 -0.0765  0.3555 -1.9639
16144TIP3    H269924   3.981   0.838  13.048  0.9731  0.1998 -1.6228
16145TIP3   OH269925   0.626   5.842   0.105 -0.0577  0.4009  0.1073
16145TIP3    H169926   0.571   5.918   0.086 -1.7630 -0.4329  1.4461
16145TIP3    H269927   0.569   5.767   0.088  2.0477 -0.7597 -2.7661
16146TIP3   OH269928   2.134   6.739  13.033  0.0163  0.1882  0.6605
16146TIP3    H169929   2.214   6.778  12.996  0.6701 -1.1897  0.5466
16146TIP3    H269930   2.104   6.678  12.966 -2.8038  2.6527 -0.5614
16147TIP3   OH269931   0.104   0.426  16.508  0.2882 -0.2722 -0.2378
16147TIP3    H169932   0.102   0.506  16.560  1.1691 -0.8247  0.6926
16147TIP3    H269933   0.164   0.445  16.436  0.3503 -0.0377 -0.1229
16148TIP3   OH269934   2.979   3.658  13.640  0.0037 -0.0826 -0.1647
16148TIP3    H169935   2.942   3.576  13.609  0.7908  0.2222 -2.0397
16148TIP3    H269936   2.904   3.718  13.644 -0.1461 -0.1537 -1.4889
16149TIP3   OH269937   3.872   3.993  11.545 -0.3696  0.3313 -0.2165
16149TIP3    H169938   3.808   3.975  11.615 -1.0536 -0.0156 -0.9193
16149TIP3    H269939   3.885   4.088  11.547 -0.2519  0.3064  0.4890
16150TIP3   OH269940   1.917   2.544  15.633  0.3866  0.4408  0.4869
16150TIP3    H169941   1.834   2.537  15.587  0.3472  0.6180  0.5307
16150TIP3    H269942   1.967   2.608  15.583 -0.8435  3.1088  2.4329
16151TIP3   OH269943   3.178   2.380  13.335 -0.2795 -0.1478 -0.0189
16151TIP3    H169944   3.170   2.472  13.312  0.1129 -0.4174 -1.3723
16151TIP3    H269945   3.231   2.342  13.264 -0.3340 -1.3885  0.5656
16152TIP3   OH269946   3.415   6.129  12.337  0.3134  0.4799 -0.3684
16152TIP3    H169947   3.387   6.183  12.263  0.4387 -0.6492 -1.2789
16152TIP3    H269948   3.466   6.059  12.297 -0.3755 -0.6652  0.6831
16153TIP3   OH269949   1.721   5.110  16.361  0.2798 -0.6045  0.3394
16153TIP3    H169950   1.632   5.122  16.328  1.0062 -0.6445 -1.7688
16153TIP3    H269951   1.754   5.033  16.314  2.0187  0.4461 -0.2469
16154TIP3   OH269952   2.216   5.360   1.770 -0.6149 -0.1072 -0.1464
16154TIP3    H169953   2.257   5.274   1.773 -1.5041 -0.5197  1.5167
16154TIP3    H269954   2.142   5.349   1.710  0.2490 -0.0079 -1.2662
16155TIP3   OH269955   3.036   4.217  15.335 -0.5393 -0.0683  0.7021
16155TIP3    H169956   3.034   4.203  15.240 -1.2851  3.2188  0.1290
16155TIP3    H269957   2.961   4.167  15.367 -0.4228 -1.0389 -0.4445
16156TIP3   OH269958   0.859   5.443   1.173 -0.2045 -0.1529 -0.0744
16156TIP3    H169959   0.806   5.523   1.183  0.1539  0.0894 -0.0953
16156TIP3    H269960   0.819   5.397   1.099  0.6490  0.8751 -1.2178
16157TIP3   OH269961   2.219   5.552  16.226  0.3390 -0.2123 -0.5953
16157TIP3    H169962   2.212   5.481  16.162 -0.2560 -3.3093  2.6091
16157TIP3    H269963   2.300   5.532  16.274 -0.5661  0.4490  1.2671
16158TIP3   OH269964   3.800   0.179  13.583  0.5256  0.1785 -0.0768
16158TIP3    H169965   3.740   0.246  13.550 -1.6528 -1.1804  0.8813
16158TIP3    H269966   3.806   0.116  13.511 -0.6300 -0.5342  0.4165
16159TIP3   OH269967   1.120   3.001   3.378  0.1002 -0.0406 -0.0572
16159TIP3    H169968   1.203   2.972   3.340 -0.3076 -0.8150 -0.3728
16159TIP3    H269969   1.123   2.971   3.469 -1.2047 -3.1028 -0.8907
16160TIP3   OH269970   1.678   3.347  16.128  0.9345 -0.0344  0.2867
16160TIP3    H169971   1.631   3.419  16.170 -2.6401 -2.0586  0.1428
16160TIP3    H269972   1.645   3.346  16.038  2.4383 -0.6755 -0.2891
16161TIP3   OH269973   1.428   0.969   2.404  0.0332 -0.3606  0.7001
16161TIP3    H169974   1.389   1.004   2.484  0.5136 -1.2896  1.3576
16161TIP3    H269975   1.355   0.959   2.344 -0.1161  1.8408  0.4300
16162TIP3   OH269976   4.790   6.144   2.924  0.1925 -0.0242  0.1051
16162TIP3    H169977   4.770   6.122   2.833  1.4435  0.2971 -0.2650
16162TIP3    H269978   4.716   6.195   2.954  0.0956  0.4803 -0.9681
16163TIP3   OH269979   2.072   1.445  12.986  0.4523  0.1273 -0.1231
16163TIP3    H169980   2.005   1.436  12.918  0.5842 -1.5620 -0.0535
16163TIP3    H269981   2.153   1.416  12.944  0.9259  1.0031  0.1656
16164TIP3   OH269982   2.168   3.492  13.689 -0.9535  0.1955 -0.0180
16164TIP3    H169983   2.114   3.558  13.645 -1.1967 -0.5202 -0.8158
16164TIP3    H269984   2.105   3.428  13.722 -0.7261  0.4111  0.8703
16165TIP3   OH269985   0.294   0.787  14.588  0.1940  0.2809  0.1162
16165TIP3    H169986   0.342   0.784  14.671  0.3865  1.5539  0.0651
16165TIP3    H269987   0.360   0.811  14.523 -0.2897  0.9605 -0.1331
16166TIP3   OH269988   3.774   1.651   0.035  0.4381  0.5461 -0.1794
16166TIP3    H169989   3.841   1.606  -0.016 -0.0592 -0.3833 -0.0417
16166TIP3    H269990   3.723   1.580   0.075 -0.2309  1.2390  0.2249
16167TIP3   OH269991   5.341   4.756   0.957 -0.3398  0.1242 -0.0355
16167TIP3    H169992   5.329   4.849   0.939  1.8530  0.6307  0.7479
16167TIP3    H269993   5.255   4.717   0.944 -1.4827  2.3828  0.3261
16168TIP3   OH269994   5.719   1.298  11.968  0.0393  0.3719  0.4599
16168TIP3    H169995   5.757   1.362  12.028  0.2380 -0.0586  0.7980
16168TIP3    H269996   5.663   1.243  12.023  1.3150 -0.9233  0.5394
16169TIP3   OH269997   1.582   5.717   0.327  0.0486  0.6241  0.8646
16169TIP3    H169998   1.552   5.789   0.383 -2.4742 -0.5988  1.2159
16169TIP3    H269999   1.518   5.714   0.256  1.6309  0.3630 -0.6228
16170TIP3   OH270000   0.614   6.648  10.624  0.5195 -0.0979 -0.8712
16170TIP3    H170001   0.562   6.577  10.585  0.9241 -0.7677 -0.2274
16170TIP3    H270002   0.699   6.607  10.644 -0.3019 -0.4537  2.6674
16171TIP3   OH270003   3.957   6.221  16.568  0.2147 -0.4414  0.1925
16171TIP3    H170004   3.917   6.242  16.483  0.2719 -3.3796 -0.6735
16171TIP3    H270005   4.048   6.248  16.559  0.0860 -0.2293 -0.5026
16172TIP3   OH270006   3.042   3.053   4.153 -0.4786 -0.3593  0.7431
16172TIP3    H170007   2.990   2.984   4.113 -2.6331  1.0310  1.0261
16172TIP3    H270008   3.133   3.030   4.131 -1.2187 -2.4671 -0.3726
16173TIP3   OH270009   4.944   0.725  13.842 -0.3797 -0.2091 -0.6412
16173TIP3    H170010   4.995   0.755  13.917 -0.4431 -1.2533 -0.1618
16173TIP3    H270011   4.856   0.758  13.858 -0.5232 -0.8763  0.0455
16174TIP3   OH270012   6.162   3.308   6.060 -0.4052 -0.7061  0.4252
16174TIP3    H170013   6.169   3.401   6.036 -0.8149 -1.4767 -3.1754
16174TIP3    H270014   6.185   3.306   6.153  2.0200  2.6870  0.0893
16175TIP3   OH270015   4.254   3.914  13.649  0.4617 -0.1892 -0.4637
16175TIP3    H170016   4.301   3.844  13.604 -0.9030 -1.5996  0.1979
16175TIP3    H270017   4.217   3.872  13.726 -0.6860  1.2063 -0.2113
16176TIP3   OH270018   3.656   4.347   1.808 -0.9497  0.1168  0.0990
16176TIP3    H170019   3.719   4.413   1.779  0.1731 -0.6302  0.7683
16176TIP3    H270020   3.603   4.391   1.874  0.5822  0.0391  1.4314
16177TIP3   OH270021   5.775   1.572  11.856 -0.5449 -0.1892 -0.3292
16177TIP3    H170022   5.860   1.615  11.869 -0.4487 -0.4472 -0.0925
16177TIP3    H270023   5.729   1.583  11.940 -1.0827  0.6837 -0.7261
16178TIP3   OH270024   2.148   3.495  16.355 -0.6946 -0.0704 -0.6441
16178TIP3    H170025   2.167   3.587  16.337  0.6333 -0.1227  0.3695
16178TIP3    H270026   2.229   3.460  16.391 -1.3643 -1.4961 -0.4533
16179TIP3   OH270027   4.550   5.251  13.049  0.0053 -0.4147  0.3938
16179TIP3    H170028   4.608   5.310  13.001  0.1726  0.2513  1.3840
16179TIP3    H270029   4.605   5.176  13.071  1.2073  1.1389  3.1967
16180TIP3   OH270030   2.706   6.443  13.816 -0.2646  0.0365 -0.3343
16180TIP3    H170031   2.770   6.419  13.883 -1.4295 -0.8816  0.4905
16180TIP3    H270032   2.661   6.520  13.852 -0.7540 -0.3380 -0.1195
16181TIP3   OH270033   1.657   3.013   4.284  0.2488 -0.2065  0.2814
16181TIP3    H170034   1.637   3.053   4.199  2.1060  1.8766  0.7415
16181TIP3    H270035   1.583   3.037   4.340  0.7531  1.6597  0.2125
16182TIP3   OH270036   4.310   0.517  15.281 -0.3111  0.5754 -0.5032
16182TIP3    H170037   4.378   0.541  15.344  1.2348 -0.0407 -1.8379
16182TIP3    H270038   4.228   0.546  15.321  0.5527 -0.0151  1.8620
16183TIP3   OH270039   5.585   4.433  11.745 -0.8083 -0.5349 -0.3460
16183TIP3    H170040   5.592   4.528  11.739  1.6177 -0.6700 -0.8747
16183TIP3    H270041   5.633   4.409  11.824 -0.7832 -1.3355 -0.5847
16184TIP3   OH270042   4.815   2.502  14.808 -0.3127  0.3453 -0.4504
16184TIP3    H170043   4.830   2.592  14.835 -1.0291 -0.4129  2.9400
16184TIP3    H270044   4.901   2.470  14.782  0.2983  1.4924  0.0950
16185TIP3   OH270045   3.846   4.217  11.943 -0.4647 -0.3665  0.2220
16185TIP3    H170046   3.884   4.264  11.869 -0.7280 -1.8661 -0.9414
16185TIP3    H270047   3.921   4.179  11.989 -0.3608 -0.3558  0.0627
16186TIP3   OH270048   1.795   0.241  11.375  0.0889 -0.1212  0.3541
16186TIP3    H170049   1.855   0.170  11.353  0.5863  0.2317  0.5867
16186TIP3    H270050   1.785   0.236  11.470 -1.2219 -0.9556  0.2181
16187TIP3   OH270051   3.072   5.769  13.472  0.1799 -0.3675 -0.2776
16187TIP3    H170052   3.107   5.766  13.383 -1.1329 -0.2993 -0.8063
16187TIP3    H270053   3.007   5.839  13.470 -0.0414 -0.5406  0.6676
16188TIP3   OH270054   0.208   6.552  11.765  0.4812 -0.0104 -0.3560
16188TIP3    H170055   0.281   6.514  11.716  2.0197  0.7354  1.2450
16188TIP3    H270056   0.221   6.647  11.757  0.5165  0.1266  1.0854
16189TIP3   OH270057   6.239   0.041   6.295  0.0533 -0.5897  0.2222
16189TIP3    H170058   6.311   0.060   6.355 -0.3994  1.2623  0.2498
16189TIP3    H270059   6.164   0.025   6.352 -0.0432 -0.3076  0.1763
16190TIP3   OH270060   5.707   2.210   2.570  0.3176 -0.3640 -0.6368
16190TIP3    H170061   5.767   2.159   2.515  1.6742 -0.3777  0.7860
16190TIP3    H270062   5.691   2.155   2.646  0.3902  0.5977  0.0911
16191TIP3   OH270063   0.050   2.022  13.914  0.2332  0.1555  0.7643
16191TIP3    H170064   0.045   2.070  13.996  1.0982 -0.0687  0.9628
16191TIP3    H270065   0.062   2.089  13.847 -1.6327  0.4337  0.6558
16192TIP3   OH270066   4.258   6.365  15.358  0.3588 -0.5192  0.2485
16192TIP3    H170067   4.283   6.275  15.378  1.9068 -0.2347 -0.2673
16192TIP3    H270068   4.342   6.412  15.349 -0.4087  1.0321  0.7722
16193TIP3   OH270069   3.099   0.703   4.136 -0.1236 -0.2330 -0.2340
16193TIP3    H170070   3.007   0.691   4.113 -0.6469  1.2267  0.9651
16193TIP3    H270071   3.145   0.700   4.052 -1.1384 -1.8504 -0.7647
16194TIP3   OH270072   4.333   1.687   5.361 -0.1465  0.0039 -0.1409
16194TIP3    H170073   4.374   1.619   5.414  0.2863  0.0518 -0.4092
16194TIP3    H270074   4.280   1.639   5.297  0.0684 -0.0806 -0.2574
16195TIP3   OH270075   2.595   0.690  15.797  0.6352 -0.7595 -0.5027
16195TIP3    H170076   2.668   0.751  15.787  1.6338 -2.1075 -1.9621
16195TIP3    H270077   2.571   0.666  15.708 -2.4632  0.5429 -0.1592
16196TIP3   OH270078   0.507   4.917   0.457 -0.0826  0.0238 -0.4003
16196TIP3    H170079   0.573   4.855   0.426  2.4086  1.5395  1.4907
16196TIP3    H270080   0.499   4.899   0.551 -1.8105  0.4213 -0.4306
16197TIP3   OH270081   3.972   1.093  14.131 -0.2969 -0.3146 -0.4243
16197TIP3    H170082   4.057   1.100  14.174  1.0290 -2.0416 -2.5470
16197TIP3    H270083   3.992   1.095  14.038 -2.6831 -0.0901 -1.0042
16198TIP3   OH270084   6.151   4.129  16.803 -0.2816 -0.0750  0.0167
16198TIP3    H170085   6.104   4.067  16.859 -0.4746 -1.8827 -2.0291
16198TIP3    H270086   6.216   4.169  16.861 -3.0790  1.2294  2.5240
16199TIP3   OH270087   0.370   0.200   3.471  0.5040 -0.3570 -0.3802
16199TIP3    H170088   0.327   0.266   3.416  0.8693 -0.2253 -0.5158
16199TIP3    H270089   0.341   0.220   3.560  0.1255 -0.3993 -0.4947
16200TIP3   OH270090   1.465   1.016  14.458 -0.2976 -0.6155 -0.3665
16200TIP3    H170091   1.530   0.946  14.451 -0.7160 -1.1044  0.5070
16200TIP3    H270092   1.486   1.061  14.540 -0.4091 -0.0901 -0.6175
16201TIP3   OH270093   1.047   1.862   4.312 -0.1644  0.0272  0.3146
16201TIP3    H170094   0.974   1.912   4.276 -0.7575  0.4402  1.9895
16201TIP3    H270095   1.047   1.780   4.262 -1.6159  0.1306  0.1050
16202TIP3   OH270096   0.668   5.149   1.373  0.2439  0.1823 -0.3357
16202TIP3    H170097   0.617   5.180   1.299  0.4064  0.3800 -0.3668
16202TIP3    H270098   0.722   5.079   1.337  2.0463  1.8020 -0.9830
16203TIP3   OH270099   1.941   4.283  16.368  0.0713 -0.4246 -0.8660
16203TIP3    H170100   2.019   4.231  16.389 -0.1065 -0.6123 -0.6710
16203TIP3    H270101   1.868   4.231  16.400 -0.0451  0.3798  0.2408
16204TIP3   OH270102   3.366   5.271  11.607 -0.3406  0.3932 -0.1030
16204TIP3    H170103   3.274   5.271  11.630 -0.2309 -1.0895  0.4521
16204TIP3    H270104   3.381   5.356  11.566 -1.5979  1.2451  1.1351
16205TIP3   OH270105   3.303   6.226  16.413  0.5652  0.3180  0.3458
16205TIP3    H170106   3.349   6.205  16.332  2.7739  0.5170  1.4583
16205TIP3    H270107   3.244   6.153  16.427  1.4052 -0.5620 -0.5756
16206TIP3   OH270108   5.718   4.235   1.734  0.0691 -0.0131  0.3673
16206TIP3    H170109   5.786   4.295   1.702  0.9257 -0.7441  0.7551
16206TIP3    H270110   5.749   4.149   1.706 -1.2009 -0.2682 -0.2852
16207TIP3   OH270111   5.694   3.720   5.717 -0.3829  0.0075 -0.4452
16207TIP3    H170112   5.672   3.695   5.807 -1.4963  1.3383 -0.3153
16207TIP3    H270113   5.704   3.816   5.720  0.7699 -0.0387 -1.5102
16208TIP3   OH270114   2.747   6.575   4.992 -0.5866  0.1464 -0.0977
16208TIP3    H170115   2.751   6.669   5.011 -2.5179  0.1983  0.3468
16208TIP3    H270116   2.830   6.555   4.950 -0.1864  2.0880 -0.3397
16209TIP3   OH270117   5.714   5.603   4.962  0.3247  0.2556 -0.4511
16209TIP3    H170118   5.795   5.553   4.955  0.6353  0.6613  0.2675
16209TIP3    H270119   5.656   5.563   4.896  0.6614 -0.8645 -0.0863
16210TIP3   OH270120   6.433   3.759  11.264 -0.3657 -0.2965  0.2595
16210TIP3    H170121   6.489   3.826  11.303 -0.7865 -0.2045  0.7089
16210TIP3    H270122   6.465   3.751  11.174  1.3766 -1.3502  0.9363
16211TIP3   OH270123   3.944   0.846  16.764  0.1523 -0.1092  0.4147
16211TIP3    H170124   4.026   0.853  16.716 -0.7143  0.9919 -0.9920
16211TIP3    H270125   3.901   0.769  16.726  0.2132 -0.2370  0.6087
16212TIP3   OH270126   6.071   6.537  11.739  1.0857  0.2805 -0.2775
16212TIP3    H170127   6.052   6.577  11.823  1.2355 -0.1117 -0.0568
16212TIP3    H270128   6.142   6.475  11.756 -0.7280 -1.9186 -0.0726
16213TIP3   OH270129   1.922   5.144   1.248 -0.3644 -0.5970  0.0714
16213TIP3    H170130   2.006   5.148   1.201  0.3300  1.7800  1.3955
16213TIP3    H270131   1.936   5.079   1.317 -0.2535 -1.5434 -0.8137
16214TIP3   OH270132   2.576   6.351  12.025  0.4191 -0.4096  0.6521
16214TIP3    H170133   2.543   6.372  12.112 -0.1214 -0.3475  0.4344
16214TIP3    H270134   2.500   6.322  11.976  0.7740 -0.7440  0.2879
16215TIP3   OH270135   3.316   3.263  15.839  0.0117 -0.1174  0.4955
16215TIP3    H170136   3.272   3.179  15.855  0.6788 -0.4074  0.8917
16215TIP3    H270137   3.272   3.300  15.764 -0.3429 -0.8004  0.3602
16216TIP3   OH270138   3.074   3.633   5.112  0.1920 -0.3148 -0.3268
16216TIP3    H170139   3.125   3.692   5.166 -0.0474 -0.8681  0.5199
16216TIP3    H270140   3.007   3.689   5.072 -0.1406 -0.0374  0.5982
16217TIP3   OH270141   0.823   5.492  11.743 -0.5608 -0.9413 -0.5389
16217TIP3    H170142   0.737   5.455  11.722 -1.2654  1.4579 -2.2460
16217TIP3    H270143   0.865   5.507  11.659  0.5159  0.2376  0.1712
16218TIP3   OH270144   3.219   5.956   5.856  0.9363 -0.4310 -0.0476
16218TIP3    H170145   3.281   6.023   5.827  1.6856 -0.8520  0.5444
16218TIP3    H270146   3.267   5.906   5.922 -0.7510  0.6675  2.1708
16219TIP3   OH270147   0.820   5.330   2.309  0.2155  0.1209 -0.3537
16219TIP3    H170148   0.888   5.309   2.374 -0.6083 -1.6890 -0.0266
16219TIP3    H270149   0.759   5.257   2.314 -0.1685  0.2088 -2.8009
16220TIP3   OH270150   5.042   5.238  12.188 -0.4901  0.2309 -0.0026
16220TIP3    H170151   5.108   5.183  12.146 -1.0803 -0.1746 -0.4206
16220TIP3    H270152   4.997   5.180  12.250 -0.1265  0.6326  0.6431
16221TIP3   OH270153   0.436   4.376   4.353  0.0377 -0.4934 -0.0680
16221TIP3    H170154   0.508   4.400   4.295 -0.2713 -0.9942 -0.6703
16221TIP3    H270155   0.471   4.388   4.441 -0.2152  2.6123 -0.2593
16222TIP3   OH270156   4.065   2.930   0.373 -0.1565 -0.4515  0.1216
16222TIP3    H170157   4.123   2.900   0.443  0.7594 -0.4848 -0.6172
16222TIP3    H270158   3.983   2.883   0.386 -0.2523  0.0727  1.5755
16223TIP3   OH270159   5.644   1.971   6.075 -0.1321 -0.0840 -0.2741
16223TIP3    H170160   5.662   2.000   6.164 -0.0902 -1.0908  0.0561
16223TIP3    H270161   5.551   1.990   6.062 -0.7074 -1.9110  0.7903
16224TIP3   OH270162   2.562   3.091   2.158  0.1154 -0.1160  0.1642
16224TIP3    H170163   2.563   3.096   2.063  2.7532 -0.6732  0.1078
16224TIP3    H270164   2.638   3.039   2.181 -1.1095 -1.0142  2.5672
16225TIP3   OH270165   4.086   0.816   5.710  0.0186 -0.2638 -0.0265
16225TIP3    H170166   4.051   0.894   5.754 -0.3957 -0.4061 -0.1046
16225TIP3    H270167   4.080   0.837   5.617 -0.8575 -0.7126 -0.0787
16226TIP3   OH270168   6.023   0.348   6.049 -0.3643 -0.0902 -1.1275
16226TIP3    H170169   6.069   0.403   5.985 -0.0688 -0.9448 -1.6682
16226TIP3    H270170   5.971   0.288   5.997 -0.0583 -0.8578 -0.5720
16227TIP3   OH270171   3.189   5.750  15.755 -0.0151 -0.0415  0.1185
16227TIP3    H170172   3.262   5.691  15.742 -0.4260 -0.5165 -0.0556
16227TIP3    H270173   3.113   5.703  15.721 -0.2417  0.8604 -0.6799
16228TIP3   OH270174   4.645   1.124   2.346 -0.2291  0.3635  0.0868
16228TIP3    H170175   4.585   1.192   2.314 -0.2921  0.9647  1.4122
16228TIP3    H270176   4.731   1.152   2.316 -0.4932 -0.1203 -1.2001
16229TIP3   OH270177   5.836   4.683  14.237  0.1155 -0.6791  0.0873
16229TIP3    H170178   5.913   4.681  14.293  0.2970 -0.5620 -0.1546
16229TIP3    H270179   5.871   4.685  14.148 -0.1580 -2.6841 -0.1253
16230TIP3   OH270180   4.103   1.574  15.763  0.3914 -0.1432 -0.3338
16230TIP3    H170181   4.183   1.619  15.791  0.5593  0.9162 -2.3837
16230TIP3    H270182   4.043   1.586  15.837  1.2259  1.4275  0.1481
16231TIP3   OH270183   5.257   3.019   1.314 -0.1033 -0.5626  0.5694
16231TIP3    H170184   5.215   3.079   1.375 -0.5926  0.7201 -0.9763
16231TIP3    H270185   5.185   2.978   1.266  0.2973 -0.9869  0.3146
16232TIP3   OH270186   4.967   1.282   1.211  0.1418  0.1474  0.0759
16232TIP3    H170187   5.006   1.239   1.135  0.9904  0.7295  0.1806
16232TIP3    H270188   4.920   1.357   1.174 -0.4083 -0.2116  0.0182
16233TIP3   OH270189   5.815   6.552   4.611  0.1913 -0.7359  0.1166
16233TIP3    H170190   5.818   6.642   4.645 -0.6860 -0.5010 -0.4073
16233TIP3    H270191   5.722   6.530   4.609  0.1854 -0.6931 -2.2119
16234TIP3   OH270192   0.419   6.123  13.928 -0.5103 -0.4990 -0.7801
16234TIP3    H170193   0.406   6.099  14.019 -2.8394  0.3780 -0.8100
16234TIP3    H270194   0.493   6.070  13.899 -0.8534 -2.1153  1.1091
16235TIP3   OH270195   1.862   0.936   5.449  0.2353  0.5575 -0.4009
16235TIP3    H170196   1.938   0.907   5.398 -0.3604 -0.8432 -0.5587
16235TIP3    H270197   1.808   0.985   5.387  0.3543  0.3668 -0.6584
16236TIP3   OH270198   5.212   3.189   3.460  0.1506  0.1119 -0.1791
16236TIP3    H170199   5.188   3.199   3.368  1.3530 -1.7205 -0.7394
16236TIP3    H270200   5.181   3.101   3.483  1.3692 -0.1159  0.6544
16237TIP3   OH270201   3.501   5.932  12.626  0.6630  0.4272 -0.2425
16237TIP3    H170202   3.544   5.849  12.647 -0.8656 -0.9391 -2.1980
16237TIP3    H270203   3.413   5.924  12.662  0.8806  1.7952  0.7049
16238TIP3   OH270204   5.017   5.901  15.921  0.2112  0.1562  0.1777
16238TIP3    H170205   4.939   5.869  15.967  1.2357  1.0684  2.7336
16238TIP3    H270206   4.983   5.965  15.859 -1.2293 -0.8990 -0.1695
16239TIP3   OH270207   6.240   2.425  14.664 -0.3561  0.4256  0.2073
16239TIP3    H170208   6.324   2.419  14.709 -0.5020 -0.2155  0.3955
16239TIP3    H270209   6.262   2.417  14.571 -0.0404  1.8718  0.1277
16240TIP3   OH270210   5.843   3.094   0.490  0.6664 -0.2540  0.2224
16240TIP3    H170211   5.794   3.027   0.538 -0.9810  1.0850  0.5299
16240TIP3    H270212   5.874   3.050   0.411 -0.6407 -1.3127  0.2634
16241TIP3   OH270213   5.417   1.222  16.984  0.2752  0.1207  0.2858
16241TIP3    H170214   5.494   1.256  17.031  1.7088 -0.7222 -1.3128
16241TIP3    H270215   5.455   1.173  16.911 -1.8249 -0.1932 -0.6420
16242TIP3   OH270216   4.592   3.063   3.625  0.1545  0.9018 -0.0256
16242TIP3    H170217   4.571   3.152   3.652 -0.3878  0.6085  0.5425
16242TIP3    H270218   4.574   3.009   3.702  1.4620  0.4171 -0.0297
16243TIP3   OH270219   5.780   4.408   9.976 -0.1206  1.1060 -0.2182
16243TIP3    H170220   5.686   4.393   9.977 -0.1554  1.3071 -0.3273
16243TIP3    H270221   5.804   4.419  10.068 -0.0230 -0.0151 -0.1001
16244TIP3   OH270222   2.267   4.453  15.923  0.3075  0.7465  0.7907
16244TIP3    H170223   2.237   4.413  15.842  0.1604 -2.1519  2.1404
16244TIP3    H270224   2.187   4.490  15.962  0.0206  0.4212  0.5235
16245TIP3   OH270225   0.551   5.553  13.537  0.4454 -0.2501  0.9874
16245TIP3    H170226   0.550   5.558  13.632 -1.8952 -1.3343  1.1007
16245TIP3    H270227   0.627   5.498  13.516  0.5961 -0.5574  2.2651
16246TIP3   OH270228   3.035   3.306   5.577  0.7231 -0.4809 -0.0922
16246TIP3    H170229   2.982   3.364   5.633  0.4788 -0.8877  0.1019
16246TIP3    H270230   3.095   3.365   5.532  0.0689 -0.0034 -0.3593
16247TIP3   OH270231   0.416   1.835  16.338 -0.2653  0.3363  0.2855
16247TIP3    H170232   0.481   1.774  16.302 -0.4190 -0.5171  1.3882
16247TIP3    H270233   0.469   1.904  16.377 -0.0224 -0.0719  0.6943
16248TIP3   OH270234   0.088   3.969  13.191 -0.2313  0.4241  0.5784
16248TIP3    H170235   0.150   3.919  13.244  0.7955  0.4670 -0.5470
16248TIP3    H270236   0.118   3.958  13.101 -2.8469 -0.9222 -0.2135
16249TIP3   OH270237   4.850   5.904   6.612 -0.2321  0.2428  0.3917
16249TIP3    H170238   4.786   5.833   6.615  0.1309 -0.0973  0.0891
16249TIP3    H270239   4.921   5.876   6.668  0.6706 -0.3919 -1.0102
16250TIP3   OH270240   3.856   1.204  16.878 -0.4426  0.2001 -0.8248
16250TIP3    H170241   3.786   1.170  16.822  0.0383 -3.4559  0.5460
16250TIP3    H270242   3.842   1.162  16.963  3.2544 -0.5799 -0.4372
16251TIP3   OH270243   4.726   3.892  13.127  0.0645  0.2217  0.4731
16251TIP3    H170244   4.736   3.949  13.051 -0.2668  0.7005  0.7814
16251TIP3    H270245   4.815   3.867  13.151  0.1207 -0.9150 -0.7914
16252TIP3   OH270246   0.962   6.763  16.039 -0.6156  0.4214 -0.3876
16252TIP3    H170247   0.885   6.711  16.019  1.1075 -1.8382 -1.5630
16252TIP3    H270248   1.000   6.784  15.954 -0.3544  2.2600  0.1330
16253TIP3   OH270249   6.082   3.593   1.425  0.3578  0.4797  0.3884
16253TIP3    H170250   6.068   3.643   1.345  0.6071  1.3185  0.8517
16253TIP3    H270251   6.026   3.635   1.490  2.6007  1.9920  1.5054
16254TIP3   OH270252   6.733   0.288  16.187 -0.0118  0.1899  0.3784
16254TIP3    H170253   6.781   0.207  16.199 -0.6503 -0.1241  0.8252
16254TIP3    H270254   6.739   0.333  16.271  0.2427  0.5539  0.1673
16255TIP3   OH270255   2.671   0.925   0.912 -0.1625  0.1579  0.0152
16255TIP3    H170256   2.600   0.877   0.955 -0.8617  1.5075  0.4139
16255TIP3    H270257   2.644   1.017   0.916  1.6701  0.7340  0.3249
16256TIP3   OH270258   2.592   2.222   4.986  0.0313  0.1831  0.2225
16256TIP3    H170259   2.537   2.292   4.951 -0.4412 -0.0062  0.5630
16256TIP3    H270260   2.582   2.150   4.923 -1.5631 -0.4913  1.1714
16257TIP3   OH270261   2.233   3.858  16.031 -0.3833 -0.4386  0.5211
16257TIP3    H170262   2.300   3.881  16.095 -0.3259 -0.3683  0.4367
16257TIP3    H270263   2.265   3.778  15.991  0.3992  0.3841 -0.5798
16258TIP3   OH270264   3.918   0.865  15.952  0.1243 -0.0991  0.5156
16258TIP3    H170265   3.937   0.773  15.938  0.4368  0.2577 -1.7608
16258TIP3    H270266   3.849   0.886  15.889  0.6894  1.3957  0.3374
16259TIP3   OH270267   3.074   5.089   1.140  0.3844 -0.2801 -0.3686
16259TIP3    H170268   3.123   5.072   1.220  0.8823 -1.5963 -0.9313
16259TIP3    H270269   3.073   5.185   1.132 -0.6743 -0.0368  1.8057
16260TIP3   OH270270   2.670   5.075  14.790 -0.4031  0.2975  0.4744
16260TIP3    H170271   2.581   5.053  14.763 -0.0344  1.4262 -1.9166
16260TIP3    H270272   2.706   4.992  14.823 -1.7961 -0.5688 -0.0768
16261TIP3   OH270273   4.792   4.854  16.996  0.1801 -0.1528 -0.9202
16261TIP3    H170274   4.730   4.835  17.066  1.2114 -4.8392 -0.9880
16261TIP3    H270275   4.878   4.837  17.034  1.0774  0.9209 -2.3468
16262TIP3   OH270276   2.918   2.926   1.580  0.6315 -0.0930 -0.1037
16262TIP3    H170277   2.889   2.899   1.667  1.8662  0.1685  0.4060
16262TIP3    H270278   2.854   2.886   1.520 -1.2570  1.1627  0.9904
16263TIP3   OH270279   0.990   1.759  14.437 -0.5621 -0.3781 -0.0806
16263TIP3    H170280   1.071   1.804  14.459 -0.1948 -1.2161  0.3296
16263TIP3    H270281   0.923   1.803  14.489  0.1596 -1.7837  2.2037
16264TIP3   OH270282   3.353   3.441  14.963 -0.0191 -0.0976  0.3417
16264TIP3    H170283   3.340   3.409  14.874  0.6648  0.3677  0.0669
16264TIP3    H270284   3.275   3.413  15.010 -1.4548  1.5400 -0.9255
16265TIP3   OH270285   3.762   4.881  16.752 -0.2096  0.4319 -0.0310
16265TIP3    H170286   3.808   4.852  16.673 -0.0842 -0.1268  0.2396
16265TIP3    H270287   3.676   4.910  16.720  0.0736  0.8196 -0.4510
16266TIP3   OH270288   2.953   3.575   1.819  0.3202  0.4677 -0.0956
16266TIP3    H170289   2.978   3.559   1.729  0.3235 -1.7927  0.2326
16266TIP3    H270290   2.857   3.580   1.817  0.3428  0.7748 -0.2840
16267TIP3   OH270291   3.128   3.804  16.490  0.4516 -0.0030  0.2297
16267TIP3    H170292   3.170   3.777  16.572  0.8787 -1.3354 -0.4020
16267TIP3    H270293   3.196   3.854  16.444  0.7269 -0.5560  0.0289
16268TIP3   OH270294   2.877   2.337  12.325  0.4665 -0.0491 -0.1208
16268TIP3    H170295   2.945   2.283  12.365  0.0429 -0.5354 -0.0447
16268TIP3    H270296   2.807   2.275  12.302 -0.9954  0.6963  1.9560
16269TIP3   OH270297   4.795   5.348  12.436 -0.2550  0.4217 -0.3274
16269TIP3    H170298   4.815   5.402  12.360 -0.4727 -0.5173 -1.0659
16269TIP3    H270299   4.786   5.259  12.401 -3.1294  0.3678  0.3292
16270TIP3   OH270300   2.483   1.781   6.719  0.4081 -0.0209 -0.1188
16270TIP3    H170301   2.394   1.748   6.719  0.5917 -0.5686  1.2362
16270TIP3    H270302   2.497   1.811   6.629 -1.3631  0.7263 -0.1852
16271TIP3   OH270303   5.963   5.234  12.505  0.0921  0.4737 -0.3523
16271TIP3    H170304   6.004   5.160  12.549  2.1253  0.5760 -1.9158
16271TIP3    H270305   5.911   5.195  12.435 -0.4715  0.4630  0.0626
16272TIP3   OH270306   1.488   3.726   3.767 -0.1912 -0.6091 -0.1789
16272TIP3    H170307   1.504   3.632   3.774  1.4726 -0.3230  0.3946
16272TIP3    H270308   1.437   3.747   3.845 -0.4762 -1.0093 -0.2520
16273TIP3   OH270309   0.451   3.729  14.978  0.4788  0.8770  0.1227
16273TIP3    H170310   0.374   3.750  15.032 -0.6813 -1.3286 -0.5520
16273TIP3    H270311   0.510   3.684  15.037 -0.1819 -0.2846 -0.0708
16274TIP3   OH270312   3.159   3.140  16.689  0.5223 -0.1910 -0.0453
16274TIP3    H170313   3.134   3.048  16.676 -1.3901  0.1387  0.8777
16274TIP3    H270314   3.241   3.137  16.738  0.5117 -1.3949 -0.0771
16275TIP3   OH270315   3.633   4.388   3.689  0.1048  0.6460  0.0639
16275TIP3    H170316   3.680   4.343   3.619  0.4995  1.0162  0.0866
16275TIP3    H270317   3.640   4.481   3.667 -0.3762  0.7243  0.2194
16276TIP3   OH270318   2.297   0.662  10.661 -0.3133  0.3362  0.2989
16276TIP3    H170319   2.392   0.644  10.664 -0.3868 -0.2930 -0.8272
16276TIP3    H270320   2.257   0.576  10.653 -0.8463  0.7572 -1.9743
16277TIP3   OH270321   2.258   1.366   2.103  0.0051  0.3020 -0.7530
16277TIP3    H170322   2.215   1.431   2.159  0.6097  0.5789 -0.6041
16277TIP3    H270323   2.329   1.414   2.061  1.0851 -0.4784  0.1086
16278TIP3   OH270324   2.110   3.300  12.661  0.2424  0.2469  0.3955
16278TIP3    H170325   2.018   3.277  12.676  0.1535 -0.2269 -0.7324
16278TIP3    H270326   2.113   3.325  12.568  1.3573 -0.3302  0.2564
16279TIP3   OH270327   2.162   4.882   2.694 -0.2762 -0.1434 -0.3826
16279TIP3    H170328   2.108   4.805   2.711 -0.2201 -0.7127 -2.4740
16279TIP3    H270329   2.111   4.932   2.629  0.7874  0.3124 -0.8890
16280TIP3   OH270330   0.399   4.930  15.089 -0.3591 -0.0431 -0.4949
16280TIP3    H170331   0.342   4.998  15.054  0.3829  0.6959 -0.2906
16280TIP3    H270332   0.422   4.877  15.013  0.5474  1.0356 -0.9909
16281TIP3   OH270333   0.560   0.279  16.711 -0.0394  0.0828 -0.0808
16281TIP3    H170334   0.547   0.257  16.803 -1.6495 -2.1545 -0.7662
16281TIP3    H270335   0.475   0.309  16.680  0.2475 -0.0656 -1.0595
16282TIP3   OH270336   4.360   2.240  11.961  0.1552  0.0823  0.1740
16282TIP3    H170337   4.362   2.210  12.052 -0.0311 -1.5491 -0.3299
16282TIP3    H270338   4.448   2.223  11.927 -0.0311 -0.1633 -0.1999
16283TIP3   OH270339   5.212   2.616   1.819  0.2631 -0.4006  0.5112
16283TIP3    H170340   5.139   2.579   1.770 -1.3299  1.9187  0.9989
16283TIP3    H270341   5.228   2.553   1.890 -2.3947 -0.1943  1.3873
16284TIP3   OH270342   5.137   5.851   5.901  0.2077  0.1703  0.5004
16284TIP3    H170343   5.091   5.790   5.843  2.4616 -1.7413  0.5594
16284TIP3    H270344   5.199   5.896   5.843  0.3937  0.4474  0.9091
16285TIP3   OH270345   3.816   0.934  13.705  0.5181 -0.0830 -0.0743
16285TIP3    H170346   3.823   0.884  13.623  0.4996  2.3667 -1.6595
16285TIP3    H270347   3.721   0.946  13.717  0.5725  1.2590 -0.8307
16286TIP3   OH270348   5.893   1.694   0.477 -0.1542 -0.4657  0.1246
16286TIP3    H170349   5.828   1.763   0.465  0.5296  0.1438 -0.2074
16286TIP3    H270350   5.975   1.733   0.445  0.4394 -1.0909  0.8456
16287TIP3   OH270351   5.367   5.776  17.120 -0.4454 -0.0227  0.5315
16287TIP3    H170352   5.296   5.828  17.157 -2.1580 -1.7708 -0.1050
16287TIP3    H270353   5.333   5.745  17.036  1.4973 -0.0517 -0.3030
16288TIP3   OH270354   0.737   2.973   0.326 -0.7383 -0.2413 -0.9470
16288TIP3    H170355   0.810   3.026   0.293 -1.0109  0.0102 -1.1565
16288TIP3    H270356   0.678   2.965   0.251 -1.0962 -0.1435 -0.6763
16289TIP3   OH270357   1.454   2.187  17.047 -0.0998 -0.1168  0.2726
16289TIP3    H170358   1.420   2.261  16.996 -1.6072 -1.3186 -0.5544
16289TIP3    H270359   1.543   2.174  17.015 -0.6262 -0.1207 -1.2895
16290TIP3   OH270360   2.168   0.344  15.050 -0.3530  0.5589  0.4737
16290TIP3    H170361   2.177   0.347  15.145 -1.1009  1.9401  0.5370
16290TIP3    H270362   2.180   0.435  15.022 -1.5197  0.4213 -0.5943
16291TIP3   OH270363   6.334   5.108  10.734  0.7198  0.0136 -0.4368
16291TIP3    H170364   6.336   5.101  10.829 -1.2691  0.3136 -0.3208
16291TIP3    H270365   6.425   5.099  10.707  1.2889 -0.3822  1.4641
16292TIP3   OH270366   1.599   0.073   1.750  0.0729  0.1021  0.3547
16292TIP3    H170367   1.562   0.109   1.831  1.6393 -0.3981  1.3437
16292TIP3    H270368   1.687   0.110   1.746  1.0643 -2.0911  0.4208
16293TIP3   OH270369   1.247   4.953  15.592  0.0314  0.0448 -0.1967
16293TIP3    H170370   1.208   4.953  15.505  0.3850 -1.2630 -0.3787
16293TIP3    H270371   1.187   5.005  15.645  0.3265  1.7167 -1.4265
16294TIP3   OH270372   0.837   3.620   1.538  0.5902  0.0729  0.1937
16294TIP3    H170373   0.918   3.586   1.576  0.0481  0.3266  1.6215
16294TIP3    H270374   0.780   3.637   1.613 -0.5065  0.6425 -0.7354
16295TIP3   OH270375   0.021   5.524   1.519 -0.4244  0.1215 -0.1986
16295TIP3    H170376  -0.038   5.520   1.595 -0.7741  1.0775 -0.4110
16295TIP3    H270377  -0.037   5.536   1.444  0.0345  1.1397 -0.4028
16296TIP3   OH270378   3.508   3.352  12.801  0.0109 -0.1400 -0.1146
16296TIP3    H170379   3.594   3.316  12.779  0.2650  0.1901  0.3055
16296TIP3    H270380   3.528   3.436  12.842 -0.5801  0.6043 -1.3066
16297TIP3   OH270381   6.462   5.889  14.955 -0.1051  0.1501  0.3273
16297TIP3    H170382   6.512   5.857  14.881 -1.7975  0.1207 -0.8635
16297TIP3    H270383   6.467   5.819  15.020  0.8173 -0.1257 -0.0306
16298TIP3   OH270384   1.938   2.556  13.038  0.1782  0.0533 -0.3654
16298TIP3    H170385   1.920   2.468  13.072 -1.8710  0.6735  0.2703
16298TIP3    H270386   1.905   2.556  12.949  0.0872  0.1972 -0.3327
16299TIP3   OH270387   6.796   3.494   1.206  0.2579 -0.1859  0.0187
16299TIP3    H170388   6.881   3.466   1.172  0.9991  0.2913  1.4066
16299TIP3    H270389   6.752   3.412   1.229  0.0515 -0.4704 -1.3286
16300TIP3   OH270390   4.308   5.191   0.910  0.2452 -0.5077  0.9868
16300TIP3    H170391   4.379   5.132   0.884  0.2092 -0.4956  0.8616
16300TIP3    H270392   4.275   5.154   0.992 -0.4029 -1.1915  0.4264
16301TIP3   OH270393   0.788   5.358  15.799 -0.0436 -0.3277  0.1345
16301TIP3    H170394   0.846   5.304  15.853  0.3110  1.4208  1.6299
16301TIP3    H270395   0.844   5.391  15.729  0.2247 -0.3689  0.3270
16302TIP3   OH270396   6.371   2.424  14.393 -0.4911  0.4176 -0.1679
16302TIP3    H170397   6.376   2.518  14.409  0.6074  0.6011 -1.4697
16302TIP3    H270398   6.320   2.415  14.313 -0.7505 -0.1047  0.0517
16303TIP3   OH270399   4.532   2.728  13.975 -0.0814 -0.0506 -0.3233
16303TIP3    H170400   4.452   2.775  13.998 -0.2031 -0.5622  0.3159
16303TIP3    H270401   4.601   2.795  13.978 -0.2381  0.0777  0.6748
16304TIP3   OH270402   6.806   4.018   5.287  0.4579  0.1278 -0.2063
16304TIP3    H170403   6.739   4.054   5.345 -0.0366 -1.2927  0.1274
16304TIP3    H270404   6.824   4.089   5.225 -2.0662  0.2313 -0.9300
16305TIP3   OH270405   1.728   3.984   0.398 -0.3364  0.9954 -0.0337
16305TIP3    H170406   1.754   4.022   0.482 -0.6222  1.1248 -0.0047
16305TIP3    H270407   1.645   4.027   0.376 -1.4424 -0.6941  0.7099
16306TIP3   OH270408   6.488   3.812   1.658 -0.1215  0.1219 -0.5951
16306TIP3    H170409   6.458   3.738   1.711 -0.3169  0.2982 -0.4573
16306TIP3    H270410   6.547   3.860   1.716  0.9497 -0.5799 -1.0772
16307TIP3   OH270411   4.859   3.295  12.391  0.2363  0.1626  0.7931
16307TIP3    H170412   4.876   3.277  12.484  0.5975  2.4110  1.2283
16307TIP3    H270413   4.776   3.342  12.391  1.6081  2.7645  0.3695
16308TIP3   OH270414   1.910   5.061  17.285  0.1185  0.0271 -0.2784
16308TIP3    H170415   1.990   5.031  17.327  0.2943 -0.2176 -0.7845
16308TIP3    H270416   1.915   5.157  17.291 -0.7834 -0.0030  1.9708
16309TIP3   OH270417   3.964   6.339   2.588 -0.2135 -0.3918  0.1137
16309TIP3    H170418   4.036   6.333   2.525 -0.9404  3.4995 -1.3726
16309TIP3    H270419   3.999   6.303   2.669  2.8677 -0.1005 -0.9737
16310TIP3   OH270420   3.132   2.330   3.702  0.4217 -0.1457 -0.2860
16310TIP3    H170421   3.147   2.246   3.659  0.2260  1.1658 -3.1747
16310TIP3    H270422   3.181   2.393   3.650 -0.3954  1.7090  1.0602
16311TIP3   OH270423   2.894   1.649  11.067 -0.0047  0.0016 -0.1087
16311TIP3    H170424   2.974   1.687  11.030 -0.0769 -0.7453 -1.0745
16311TIP3    H270425   2.856   1.719  11.119 -0.0480  1.2141 -1.6874
16312TIP3   OH270426   0.956   0.088   5.069 -0.2710  0.0806 -0.1064
16312TIP3    H170427   0.945   0.011   5.125  3.0468 -0.6989 -0.3331
16312TIP3    H270428   1.021   0.142   5.114 -1.6363  2.2479 -0.5531
16313TIP3   OH270429   1.878   1.860   5.153  0.4393  0.7661  0.4281
16313TIP3    H170430   1.961   1.814   5.144  0.4748  1.1431 -1.8513
16313TIP3    H270431   1.881   1.900   5.240  0.8753 -2.5272  2.0697
16314TIP3   OH270432   6.410   6.646   6.193  0.0446 -0.2361 -0.1439
16314TIP3    H170433   6.479   6.647   6.259  0.0783 -1.8757 -0.1242
16314TIP3    H270434   6.355   6.721   6.215  0.0399 -0.7607  1.7748
16315TIP3   OH270435   3.222   5.287  16.843 -0.8226 -0.1905 -0.0036
16315TIP3    H170436   3.146   5.342  16.825 -0.4128  1.0701  1.8315
16315TIP3    H270437   3.206   5.207  16.794 -1.1582  1.7232 -3.3205
16316TIP3   OH270438   0.078   6.000  15.537 -0.0641  0.6837  0.3625
16316TIP3    H170439   0.034   5.922  15.571  1.7580 -0.7577 -0.3738
16316TIP3    H270440   0.165   5.998  15.579 -0.2093  2.7553  0.8840
16317TIP3   OH270441   0.172   6.736  10.857 -0.1518  0.4430 -0.3254
16317TIP3    H170442   0.138   6.816  10.818 -0.3865 -0.3875 -1.9046
16317TIP3    H270443   0.148   6.667  10.795  0.8005 -0.7373  0.5716
16318TIP3   OH270444   4.960   5.982   6.063  0.0733 -0.0257  0.5108
16318TIP3    H170445   4.994   6.059   6.018 -1.2324 -0.3113 -1.0344
16318TIP3    H270446   5.001   5.908   6.017 -1.7231 -0.3384 -0.6556
16319TIP3   OH270447   2.188   0.206   0.751 -0.0366 -0.2754  0.0164
16319TIP3    H170448   2.210   0.216   0.658 -1.0956  1.7322 -0.0795
16319TIP3    H270449   2.271   0.219   0.797  0.3273 -0.3422 -0.6140
16320TIP3   OH270450   0.614   5.080  11.778 -0.2333  0.2914  0.0111
16320TIP3    H170451   0.704   5.058  11.753  0.1860  1.1931  0.6845
16320TIP3    H270452   0.618   5.091  11.873 -1.3103 -0.7988  0.2002
16321TIP3   OH270453   1.916   3.038  17.272 -0.0949 -0.8153  0.5230
16321TIP3    H170454   1.989   2.977  17.267  0.2702 -0.4467  1.1949
16321TIP3    H270455   1.951   3.121  17.240 -0.8589 -1.1569 -1.3437
16322TIP3   OH270456   5.631   4.227  10.309  0.3934  0.1587  0.2809
16322TIP3    H170457   5.707   4.284  10.307  0.5190 -0.0272 -1.1631
16322TIP3    H270458   5.599   4.232  10.400  1.5062  1.0259  0.6414
16323TIP3   OH270459   2.293   2.986  12.294  0.4458 -0.2891 -0.0035
16323TIP3    H170460   2.365   2.924  12.284  2.3196  1.3492  2.2126
16323TIP3    H270461   2.278   2.990  12.388 -1.2587  0.8406 -0.2898
16324TIP3   OH270462   1.432   3.681   3.410  0.5232  0.0088  0.1346
16324TIP3    H170463   1.478   3.748   3.461  1.1833  0.0327 -0.4768
16324TIP3    H270464   1.430   3.604   3.467  2.3712 -0.3634 -0.2508
16325TIP3   OH270465   0.398   5.946  14.860 -0.3830  0.1288  0.0341
16325TIP3    H170466   0.388   5.998  14.939 -0.7658 -0.3146  0.2805
16325TIP3    H270467   0.389   5.855  14.889 -0.4484 -0.0418 -0.5042
16326TIP3   OH270468   3.102   4.154  12.587  0.7327 -0.1167 -0.0240
16326TIP3    H170469   3.129   4.240  12.618 -0.9987  0.2043  0.7387
16326TIP3    H270470   3.094   4.101  12.667  1.4032 -0.8736 -0.4494
16327TIP3   OH270471   2.888   2.994  16.869  0.5875 -0.0789  0.1677
16327TIP3    H170472   2.833   3.072  16.863 -0.1425 -0.6603 -1.2041
16327TIP3    H270473   2.961   3.011  16.810  0.4214 -0.4317 -0.1440
16328TIP3   OH270474   2.766   5.441  16.237 -0.4916  0.2395 -0.6038
16328TIP3    H170475   2.750   5.368  16.177  0.5037  0.5284 -1.2349
16328TIP3    H270476   2.723   5.414  16.319  0.7059 -1.5390 -0.4927
16329TIP3   OH270477   1.123   3.868   3.644  0.1601 -0.4478  0.4240
16329TIP3    H170478   1.048   3.815   3.617 -0.2432  0.1211  0.4111
16329TIP3    H270479   1.130   3.855   3.738 -0.9893  0.7794  0.7055
16330TIP3   OH270480   4.341   6.227  15.719  0.8835 -0.5264  0.2243
16330TIP3    H170481   4.258   6.237  15.766  1.2694 -0.3665  0.8819
16330TIP3    H270482   4.343   6.302  15.659  0.6170 -0.4617  0.2916
16331TIP3   OH270483   4.486   4.916   3.257  0.0754 -0.7882  0.3929
16331TIP3    H170484   4.486   4.907   3.162  0.8657 -1.4750  0.4510
16331TIP3    H270485   4.578   4.913   3.282 -0.1903 -2.2757  1.3288
16332TIP3   OH270486   5.222   5.564   2.915 -0.5953 -0.4441 -0.9426
16332TIP3    H170487   5.189   5.545   2.828 -2.0324 -1.8165 -0.1475
16332TIP3    H270488   5.149   5.606   2.960  0.6791  1.9203 -0.8640
16333TIP3   OH270489   5.611   3.293   0.678 -0.4364 -0.3101 -0.1879
16333TIP3    H170490   5.678   3.269   0.742 -1.3281 -0.6001  0.6615
16333TIP3    H270491   5.577   3.210   0.646 -1.2570 -0.1891  0.3283
16334TIP3   OH270492   0.897   4.725  15.498 -0.1375 -0.2774 -0.2192
16334TIP3    H170493   0.915   4.790  15.566  1.2879  0.5008 -1.2888
16334TIP3    H270494   0.803   4.705  15.508 -0.1054  0.2771  1.5383
16335TIP3   OH270495   5.739   6.288   0.155  0.0613  0.3727 -0.1068
16335TIP3    H170496   5.702   6.224   0.095  1.4546 -0.8591  0.2803
16335TIP3    H270497   5.749   6.367   0.102  1.0224 -0.6023 -1.4478
16336TIP3   OH270498   1.374   2.199   2.345  0.1868 -1.1234 -0.4296
16336TIP3    H170499   1.356   2.199   2.251 -1.0878 -0.9947 -0.1924
16336TIP3    H270500   1.360   2.108   2.372  1.9847 -1.4973 -0.6022
16337TIP3   OH270501   5.829   3.708   4.597 -0.1011 -0.0387  0.4626
16337TIP3    H170502   5.889   3.662   4.656 -1.8650  0.0803  2.4429
16337TIP3    H270503   5.870   3.793   4.583  1.9157 -1.1804 -1.1693
16338TIP3   OH270504   5.825   3.669   1.597  0.0808  0.0328 -0.0566
16338TIP3    H170505   5.765   3.691   1.668  2.3456  2.0548  1.3873
16338TIP3    H270506   5.835   3.574   1.603  0.9172  0.2167  3.0664
16339TIP3   OH270507   3.486   1.530  14.626 -0.1204  0.9057  0.0090
16339TIP3    H170508   3.457   1.587  14.555 -0.3917  0.1612 -0.4829
16339TIP3    H270509   3.501   1.589  14.700 -0.2407  1.6303 -0.5431
16340TIP3   OH270510   4.457   0.085   2.415  0.3743  0.1685  0.4318
16340TIP3    H170511   4.439   0.109   2.325  0.5669  2.0166  0.8416
16340TIP3    H270512   4.552   0.096   2.425  0.6268 -1.6635  0.4407
16341TIP3   OH270513   5.588   2.926   2.954 -0.2700  0.1570  0.5843
16341TIP3    H170514   5.677   2.904   2.926 -0.2586 -0.7518  1.3010
16341TIP3    H270515   5.557   2.848   3.001 -1.4452  0.4600  0.3472
16342TIP3   OH270516   1.813   1.772   5.509  0.2177 -0.1666 -0.1249
16342TIP3    H170517   1.835   1.786   5.601 -0.6963  0.5383  0.0021
16342TIP3    H270518   1.818   1.859   5.470 -1.5866 -0.0491 -0.2229
16343TIP3   OH270519   1.961   1.016  11.533  0.4551  0.0405 -0.3382
16343TIP3    H170520   1.942   0.937  11.483  1.3500  0.6075 -1.6504
16343TIP3    H270521   1.897   1.016  11.604 -0.5700 -1.0494 -1.2161
16344TIP3   OH270522   0.009   4.477  17.153 -0.2553 -0.4303 -0.1152
16344TIP3    H170523   0.005   4.562  17.197  1.0604  0.1011 -0.9540
16344TIP3    H270524   0.093   4.477  17.108 -1.8769 -0.4506 -3.5353
16345TIP3   OH270525   3.500   0.740  12.482  0.6098 -0.1831 -0.1750
16345TIP3    H170526   3.559   0.687  12.534  1.8767  0.8124 -0.5242
16345TIP3    H270527   3.431   0.767  12.542 -1.2546 -3.8183 -0.4550
16346TIP3   OH270528   0.698   6.692  13.332  0.2644 -0.3958 -0.2684
16346TIP3    H170529   0.726   6.747  13.258  2.3551  0.9349  1.4067
16346TIP3    H270530   0.617   6.732  13.362  0.4755  0.2761 -0.5808
16347TIP3   OH270531   6.641   4.804  16.031  0.3931  0.7646  0.0058
16347TIP3    H170532   6.572   4.856  15.991  1.1206  2.0083  0.3128
16347TIP3    H270533   6.722   4.845  16.001  1.0345 -0.8477 -0.6020
16348TIP3   OH270534   5.688   3.056   1.409  0.1629  0.4362  0.0472
16348TIP3    H170535   5.724   3.013   1.486  1.0379  0.0935 -0.5352
16348TIP3    H270536   5.754   3.122   1.386  0.1364  0.2142 -0.6784
16349TIP3   OH270537   5.756   5.232   4.592  0.3256 -0.2677  0.3600
16349TIP3    H170538   5.790   5.302   4.648  0.7385 -0.2983  0.1474
16349TIP3    H270539   5.806   5.154   4.618  0.4492 -0.3026  0.0165
16350TIP3   OH270540   4.952   0.950  14.230 -0.5330  0.2770 -0.2361
16350TIP3    H170541   4.956   0.918  14.140  1.0683 -2.0923  0.5909
16350TIP3    H270542   4.872   0.910  14.266 -1.1057  1.1248 -0.5253
16351TIP3   OH270543   6.457   4.153  15.707 -0.0641 -0.4198  0.3718
16351TIP3    H170544   6.437   4.215  15.637  1.4002 -0.3351 -0.0001
16351TIP3    H270545   6.477   4.071  15.662  3.3543  0.2601  0.4362
16352TIP3   OH270546   1.740   1.846  17.251  0.0315 -0.3725 -0.4893
16352TIP3    H170547   1.788   1.788  17.192 -0.3548 -0.2455 -0.9424
16352TIP3    H270548   1.807   1.881  17.310  0.1198 -2.0811  0.4962
16353TIP3   OH270549   3.461   3.127  11.614  0.0272 -0.1582  0.3881
16353TIP3    H170550   3.552   3.151  11.599 -0.5955  2.4048  0.3217
16353TIP3    H270551   3.411   3.203  11.586 -2.0455 -0.8022  2.0708
16354TIP3   OH270552   6.510   2.795   0.223 -0.4671  0.6540  0.9304
16354TIP3    H170553   6.429   2.780   0.272 -0.2233 -0.9202  0.8945
16354TIP3    H270554   6.521   2.716   0.171  0.2820  1.5022 -0.2598
16355TIP3   OH270555   0.974   6.561  14.503 -0.4104  0.1710  0.2180
16355TIP3    H170556   1.060   6.578  14.541 -0.6649  1.0414  0.4379
16355TIP3    H270557   0.978   6.471  14.472  2.0243  1.4047 -3.6500
16356TIP3   OH270558   2.749   3.507  10.849 -0.3686  0.1560 -0.4490
16356TIP3    H170559   2.655   3.495  10.864 -0.4048 -1.1679 -1.6214
16356TIP3    H270560   2.757   3.521  10.755  0.6511  0.0092 -0.3966
16357TIP3   OH270561   5.942   1.349   2.153  0.0602  0.1844 -0.0171
16357TIP3    H170562   5.961   1.418   2.089  0.7248 -0.1886 -0.2336
16357TIP3    H270563   5.969   1.268   2.109 -1.9078 -0.3737 -0.2792
16358TIP3   OH270564   1.526   5.115   1.194  0.5352  0.4036 -0.4576
16358TIP3    H170565   1.506   5.022   1.201  2.5288  0.0435  1.0331
16358TIP3    H270566   1.579   5.122   1.114  0.7664  0.2051 -0.3196
16359TIP3   OH270567   6.203   2.465  13.901 -0.3742  0.0221  0.0425
16359TIP3    H170568   6.141   2.516  13.848  1.1767  1.3122 -0.6095
16359TIP3    H270569   6.263   2.531  13.936  0.3874 -1.1551  1.0043
16360TIP3   OH270570   4.938   2.636  16.690 -0.0439  0.0106 -0.3075
16360TIP3    H170571   4.960   2.546  16.663 -0.5802 -0.3140  0.3285
16360TIP3    H270572   4.888   2.671  16.616 -2.1143 -1.1117  0.4723
16361TIP3   OH270573   6.060   0.907   7.062  0.7132  0.4363  0.0212
16361TIP3    H170574   5.998   0.979   7.058  0.5623  0.3511  0.6757
16361TIP3    H270575   6.015   0.839   7.112  0.7871 -0.1831 -0.7259
16362TIP3   OH270576   1.821   6.579  12.063  0.2548 -0.3287  0.3741
16362TIP3    H170577   1.860   6.507  12.113 -0.9484 -0.8302  0.6372
16362TIP3    H270578   1.848   6.564  11.973  0.1035 -1.0640  0.4447
16363TIP3   OH270579   3.768   5.326   5.618 -0.2206  0.3385  1.0428
16363TIP3    H170580   3.676   5.350   5.630  0.0673  2.0702  0.2070
16363TIP3    H270581   3.772   5.287   5.530 -0.1503  0.3997  1.0175
16364TIP3   OH270582   6.078   1.480   2.577 -0.0260 -0.2287 -0.1240
16364TIP3    H170583   6.137   1.426   2.630  0.6063  0.6648  0.1134
16364TIP3    H270584   6.123   1.487   2.492  0.7287  1.2544  0.3586
16365TIP3   OH270585   5.965   5.543   3.189  0.1873  0.3757 -0.5092
16365TIP3    H170586   5.915   5.539   3.270 -0.3309  2.8483 -0.6269
16365TIP3    H270587   6.006   5.457   3.181 -0.8250 -0.3625  1.6635
16366TIP3   OH270588   4.940   1.728   5.608  0.3419  0.1478 -0.0623
16366TIP3    H170589   4.964   1.793   5.542 -1.4376 -0.5484 -1.4988
16366TIP3    H270590   5.002   1.656   5.594  0.3271  0.2381 -0.6344
16367TIP3   OH270591   3.679   5.417  14.538 -0.7938 -0.5215  0.3310
16367TIP3    H170592   3.687   5.360  14.615 -1.2053 -0.3897  0.4734
16367TIP3    H270593   3.769   5.446  14.521 -0.6674 -0.7296  0.6258
16368TIP3   OH270594   1.413   5.818   5.246  0.0124  0.7677 -0.2555
16368TIP3    H170595   1.346   5.861   5.192  1.3037  1.2491 -1.5333
16368TIP3    H270596   1.495   5.860   5.222  1.0255 -0.8912  0.0823
16369TIP3   OH270597   1.250   2.317   0.702  0.2502 -0.6462  0.0497
16369TIP3    H170598   1.203   2.366   0.634 -0.0566 -0.4458  0.4005
16369TIP3    H270599   1.232   2.225   0.682 -0.5633 -0.5643  0.3642
16370TIP3   OH270600   5.794   6.448   3.728  0.1287  0.3672  0.0053
16370TIP3    H170601   5.779   6.497   3.647  3.2579  0.1201 -0.8688
16370TIP3    H270602   5.800   6.357   3.699 -2.4818 -0.2532  1.1553
16371TIP3   OH270603   0.820   5.886   4.981 -0.5908  0.2578  0.0632
16371TIP3    H170604   0.774   5.967   5.002  1.3377  1.4090  0.1063
16371TIP3    H270605   0.845   5.850   5.065 -1.9540 -0.7480  0.0737
16372TIP3   OH270606   2.740   1.883  14.256 -0.3090  0.4109  0.2511
16372TIP3    H170607   2.747   1.870  14.351  0.3671  1.5212  0.3766
16372TIP3    H270608   2.746   1.978  14.245  1.9356  0.2002 -1.0485
16373TIP3   OH270609   5.483   5.086  15.183  0.2396 -0.6213  0.0731
16373TIP3    H170610   5.402   5.104  15.135  0.8031  0.0284 -0.6345
16373TIP3    H270611   5.482   5.148  15.256  0.5123 -0.0264 -0.4226
16374TIP3   OH270612   3.353   0.584   1.229  0.3370 -0.7633 -0.2802
16374TIP3    H170613   3.444   0.580   1.199 -0.1944 -0.2158 -2.1182
16374TIP3    H270614   3.306   0.527   1.168 -0.7682  0.1226 -0.2762
16375TIP3   OH270615   0.162   1.855  16.970  0.0288 -0.4399 -0.6384
16375TIP3    H170616   0.087   1.892  16.923 -0.1158 -1.0384 -0.8932
16375TIP3    H270617   0.137   1.859  17.062 -1.1560 -2.3690 -0.8116
16376TIP3   OH270618   1.465   6.285  11.666  0.6953 -0.7513 -0.4331
16376TIP3    H170619   1.443   6.306  11.757  2.4581 -0.0232 -0.1321
16376TIP3    H270620   1.393   6.321  11.615  0.3814  0.1205  0.5829
16377TIP3   OH270621   2.143   0.703  16.070  0.3941 -0.1098 -0.4148
16377TIP3    H170622   2.206   0.736  16.136 -0.1703  2.9289 -1.2470
16377TIP3    H270623   2.198   0.671  15.999  0.9937 -0.1392  0.0498
16378TIP3   OH270624   4.470   6.597  11.231  0.0980 -0.0008  0.5964
16378TIP3    H170625   4.465   6.502  11.222 -0.9545  0.1507 -0.6614
16378TIP3    H270626   4.564   6.616  11.231  0.3716 -0.8359 -2.1297
16379TIP3   OH270627   3.891   3.287   3.371 -0.2390  0.0739 -0.1440
16379TIP3    H170628   3.814   3.283   3.427 -1.1434  0.2360 -1.3345
16379TIP3    H270629   3.925   3.375   3.383 -1.1392  0.5220 -0.7360
16380TIP3   OH270630   6.404   2.336   4.632  0.5359  0.5909  0.3696
16380TIP3    H170631   6.314   2.316   4.608  0.0722  1.0604  1.6331
16380TIP3    H270632   6.452   2.333   4.549 -0.8421  1.4459 -0.5059
16381TIP3   OH270633   3.773   1.793  15.073 -0.1608 -0.2372 -1.0183
16381TIP3    H170634   3.799   1.878  15.108 -3.1277  0.6568 -0.7036
16381TIP3    H270635   3.709   1.814  15.004 -1.1946 -2.1899 -0.7334
16382TIP3   OH270636   0.431   2.659   0.783 -0.0559 -0.5131  0.4364
16382TIP3    H170637   0.367   2.595   0.751 -0.7544 -0.2670  1.2849
16382TIP3    H270638   0.492   2.608   0.836 -0.2317 -0.5765  0.5794
16383TIP3   OH270639   1.713   6.317   3.263  0.1428 -0.1078 -0.7399
16383TIP3    H170640   1.795   6.341   3.220  1.4978 -0.3625  1.4994
16383TIP3    H270641   1.692   6.393   3.318  0.1690 -0.9015  0.4209
16384TIP3   OH270642   3.532   3.701   3.290  0.5266 -0.4559  0.3660
16384TIP3    H170643   3.540   3.664   3.203  0.6572 -1.7036  0.8844
16384TIP3    H270644   3.556   3.794   3.280  2.2381 -0.9589 -0.6133
16385TIP3   OH270645   3.996   4.183   0.203 -0.5300  0.0787 -0.0398
16385TIP3    H170646   4.004   4.234   0.122  0.5983 -2.8430 -1.9310
16385TIP3    H270647   4.084   4.186   0.242 -0.5120 -0.2541 -0.0542
16386TIP3   OH270648   0.718   1.292   4.623  0.1504 -0.3525 -0.4230
16386TIP3    H170649   0.648   1.227   4.633 -0.5072  0.3496 -0.4430
16386TIP3    H270650   0.793   1.241   4.593 -0.5715 -0.9928 -1.1871
16387TIP3   OH270651   3.987   2.294  16.836 -0.5985 -0.0266 -0.1685
16387TIP3    H170652   3.945   2.306  16.922 -3.4259 -1.7554 -1.1595
16387TIP3    H270653   3.995   2.382  16.801  3.3464  1.1169  2.8583
16388TIP3   OH270654   4.213   1.069  12.962  0.3043 -0.1288  0.6995
16388TIP3    H170655   4.133   1.044  13.010  0.4784 -0.0486  1.0391
16388TIP3    H270656   4.249   0.986  12.932  0.3902 -0.2159  1.0334
16389TIP3   OH270657   4.105   1.351   5.280  0.8301  0.3762  0.2242
16389TIP3    H170658   4.096   1.261   5.310  1.3906  0.4361  0.5787
16389TIP3    H270659   4.045   1.401   5.337 -0.8702 -0.0028 -1.1550
16390TIP3   OH270660   0.619   1.665  14.160  0.4212 -0.0174 -0.0545
16390TIP3    H170661   0.650   1.714  14.084  0.2051 -0.0506 -0.1633
16390TIP3    H270662   0.574   1.731  14.214  1.4410  0.2131  0.5299
16391TIP3   OH270663   1.654   2.166   0.715 -0.1368 -0.0929 -0.3751
16391TIP3    H170664   1.654   2.198   0.805 -1.6187 -0.4850 -0.2224
16391TIP3    H270665   1.729   2.209   0.675  0.7400 -0.1490  1.1216
16392TIP3   OH270666   2.470   1.487  13.734 -0.3308 -0.7831 -0.0683
16392TIP3    H170667   2.552   1.508  13.778 -2.0532  1.2967  2.4156
16392TIP3    H270668   2.485   1.511  13.642  0.8733  2.7212  0.9056
16393TIP3   OH270669   1.081   4.711  14.732  0.0103 -0.8671  0.0578
16393TIP3    H170670   1.088   4.643  14.799  2.1843 -0.0976  0.6897
16393TIP3    H270671   1.076   4.793  14.780  1.1540 -0.3294 -0.7047
16394TIP3   OH270672   1.961   6.206  13.517 -0.0021  0.4231  0.3895
16394TIP3    H170673   1.900   6.253  13.461  0.0878 -1.1470 -1.1237
16394TIP3    H270674   2.047   6.221  13.477 -0.1758 -2.5168 -1.3738
16395TIP3   OH270675   0.882   2.664   3.825  0.1835 -0.1933  0.4241
16395TIP3    H170676   0.853   2.741   3.874  0.0710  0.8098 -1.1386
16395TIP3    H270677   0.961   2.635   3.871  0.7096  1.3780  0.5945
16396TIP3   OH270678   1.708   0.654  16.268  0.7272  0.4769 -0.1762
16396TIP3    H170679   1.743   0.743  16.263  2.4745 -0.0746  1.1100
16396TIP3    H270680   1.719   0.618  16.180  1.1412  1.1465 -0.4071
16397TIP3   OH270681   5.382   2.928  11.068  0.3356 -0.4161  0.4622
16397TIP3    H170682   5.339   2.844  11.052 -1.1710 -0.0487  2.2622
16397TIP3    H270683   5.313   2.984  11.104  1.8527  0.8492  1.5197
16398TIP3   OH270684   2.039   1.721  17.130 -0.0103  0.0766 -0.0076
16398TIP3    H170685   2.083   1.803  17.152 -0.4194  0.0261  1.0940
16398TIP3    H270686   1.966   1.747  17.074 -0.1604  0.4870  0.3654
16399TIP3   OH270687   4.824   3.527  15.931 -0.0870  0.2948 -0.5699
16399TIP3    H170688   4.830   3.588  16.004  0.3275 -1.0294  0.5487
16399TIP3    H270689   4.826   3.583  15.853  1.7948  1.6312  0.3409
16400TIP3   OH270690   1.542   2.685   0.142  0.1676 -0.0438 -0.8007
16400TIP3    H170691   1.587   2.719   0.219 -0.9624  0.0998 -0.1689
16400TIP3    H270692   1.468   2.636   0.178 -0.0625 -0.4475 -1.7868
16401TIP3   OH270693   0.619   5.041  11.163  0.1034  0.7401 -0.1851
16401TIP3    H170694   0.714   5.037  11.156  0.1110  0.6298 -0.0301
16401TIP3    H270695   0.602   5.052  11.257 -0.0795 -0.6445 -0.0331
16402TIP3   OH270696   2.669   1.977   3.327  0.1603 -0.0329  0.0898
16402TIP3    H170697   2.624   1.914   3.270 -1.1937  0.9369  0.0201
16402TIP3    H270698   2.707   2.041   3.266  1.1938 -0.5630  0.1728
16403TIP3   OH270699   3.051   0.721   5.381  0.7337  0.0360 -0.1337
16403TIP3    H170700   3.137   0.714   5.424  0.2719  0.9441  1.0087
16403TIP3    H270701   3.044   0.814   5.357  0.4176 -0.2042 -0.9780
16404TIP3   OH270702   6.691   0.508   1.890  0.6640  0.6508  0.0337
16404TIP3    H170703   6.753   0.493   1.961  0.9229 -4.2847 -0.8841
16404TIP3    H270704   6.606   0.518   1.934  1.3661  2.4562  1.0858
16405TIP3   OH270705   2.269   4.865  12.317  0.1232  0.0637 -0.0731
16405TIP3    H170706   2.233   4.778  12.299 -1.5544  0.6137  0.4558
16405TIP3    H270707   2.214   4.925  12.266  0.8371  0.8740  0.0900
16406TIP3   OH270708   0.959   1.557  13.328  0.2892  0.2098 -0.3902
16406TIP3    H170709   1.035   1.536  13.274  1.0651  0.7409  0.4693
16406TIP3    H270710   0.936   1.647  13.304  1.2208  0.7951  0.7877
16407TIP3   OH270711   0.978   3.585   3.700  0.0898  0.7333 -0.5236
16407TIP3    H170712   0.898   3.619   3.658  0.0531  0.8231 -0.3810
16407TIP3    H270713   0.963   3.598   3.794 -0.4578 -0.8188 -0.3794
16408TIP3   OH270714   3.818   0.043  15.434  0.4348  0.0623 -0.0256
16408TIP3    H170715   3.794   0.134  15.419  0.2062  0.1270  0.7042
16408TIP3    H270716   3.746  -0.008  15.397  0.2397  0.1953  0.1734
16409TIP3   OH270717   3.582   2.575  11.400 -0.6478 -0.0070  0.6858
16409TIP3    H170718   3.573   2.650  11.342  1.4258 -0.7421 -0.7056
16409TIP3    H270719   3.641   2.604  11.470 -1.0517  0.1049  0.9808
16410TIP3   OH270720   0.449   6.228   4.434 -0.4544 -0.5025  0.0664
16410TIP3    H170721   0.412   6.317   4.438  0.8994  0.0842 -0.0574
16410TIP3    H270722   0.540   6.238   4.462  1.4421 -0.8513 -4.9798
16411TIP3   OH270723   3.152   1.424   1.838 -0.7490  0.0853 -0.0127
16411TIP3    H170724   3.224   1.449   1.780  1.3020 -2.0647  1.4264
16411TIP3    H270725   3.192   1.367   1.903 -3.2947  0.8922  2.4688
16412TIP3   OH270726   4.742   2.404   0.457  1.0351 -0.0208  0.1494
16412TIP3    H170727   4.761   2.342   0.528  1.6540  0.1562  0.1455
16412TIP3    H270728   4.712   2.349   0.385  0.6132 -0.2221  0.4702
16413TIP3   OH270729   6.018   0.672   5.997 -0.2309  0.1173  0.1125
16413TIP3    H170730   6.102   0.629   6.015 -0.8153 -0.2058  2.4583
16413TIP3    H270731   5.992   0.638   5.912  1.9258  0.1095 -0.6024
16414TIP3   OH270732   5.995   5.453   0.605  0.7169 -0.1667 -0.1606
16414TIP3    H170733   5.999   5.548   0.601  0.6203 -0.2035 -1.2951
16414TIP3    H270734   5.999   5.433   0.699 -2.4973  1.0934  0.3778
16415TIP3   OH270735   2.029   1.448  13.503  0.3623 -0.5492 -0.2755
16415TIP3    H170736   2.009   1.421  13.593  0.9477  1.6801  0.6013
16415TIP3    H270737   2.113   1.406  13.484  0.0827 -1.2921  0.0883
16416TIP3   OH270738   6.521   5.268  16.525 -0.3211 -0.3307  0.0218
16416TIP3    H170739   6.548   5.212  16.453  0.7358  0.2750 -0.0736
16416TIP3    H270740   6.451   5.219  16.569 -0.6189 -0.9290 -1.0976
16417TIP3   OH270741   1.038   6.087  13.212  0.2199 -0.6741 -0.2260
16417TIP3    H170742   1.047   6.178  13.184 -1.5356 -0.7221 -1.0902
16417TIP3    H270743   1.077   6.036  13.141 -1.2639 -0.6688 -1.0790
16418TIP3   OH270744   4.059   1.402   2.213  0.4229  0.4295  0.3925
16418TIP3    H170745   4.110   1.401   2.132  1.1651  0.4239  0.8481
16418TIP3    H270746   4.091   1.325   2.262 -2.4257 -1.6302 -0.7430
16419TIP3   OH270747   0.457   3.664   1.527 -0.2921 -0.3029  0.0742
16419TIP3    H170748   0.389   3.718   1.487  0.4905 -1.0061 -2.4077
16419TIP3    H270749   0.528   3.663   1.462  1.9968  0.1207  2.3768
16420TIP3   OH270750   4.274   5.158  13.030  0.1604  0.1556 -0.2439
16420TIP3    H170751   4.295   5.197  12.945 -0.9832  1.0124 -0.1491
16420TIP3    H270752   4.344   5.189  13.088  0.7752 -0.1852 -0.7781
16421TIP3   OH270753   0.221   4.477  11.496  0.1120  1.0706 -0.0853
16421TIP3    H170754   0.165   4.553  11.506 -1.1453  0.5317 -2.4608
16421TIP3    H270755   0.289   4.504  11.435 -0.2445  0.3634 -0.8159
16422TIP3   OH270756   1.224   5.185  15.335  0.6102 -0.4888 -0.1190
16422TIP3    H170757   1.284   5.256  15.313  1.6235 -0.6787  1.7693
16422TIP3    H270758   1.189   5.208  15.421 -1.8346 -0.5563 -1.0164
16423TIP3   OH270759   4.388   1.016  13.521 -0.2788  0.2051  0.8727
16423TIP3    H170760   4.346   1.099  13.545  0.3021  0.7323  0.0718
16423TIP3    H270761   4.339   0.986  13.445 -0.1572  0.0662  0.8497
16424TIP3   OH270762   1.046   1.616   4.209 -0.2756 -0.1070 -0.4256
16424TIP3    H170763   1.134   1.584   4.230 -0.2739 -0.3662 -0.8115
16424TIP3    H270764   0.995   1.536   4.193 -0.3011  0.0763 -1.2845
16425TIP3   OH270765   1.781   0.790   3.919  0.3278  0.2438  0.3977
16425TIP3    H170766   1.731   0.754   3.846  1.0455 -0.6246  0.3246
16425TIP3    H270767   1.715   0.811   3.985 -0.2275  0.0406 -0.0860
16426TIP3   OH270768   3.872   0.221  16.300  0.7023 -0.4851  0.0918
16426TIP3    H170769   3.937   0.284  16.270 -1.0813  1.0052 -0.8557
16426TIP3    H270770   3.802   0.227  16.235 -0.4564 -1.9276  1.1452
16427TIP3   OH270771   5.366   1.706   5.484  0.4648  0.2196  0.2042
16427TIP3    H170772   5.412   1.623   5.468 -1.0117 -0.4505 -0.8267
16427TIP3    H270773   5.273   1.683   5.474  0.0630  2.1680 -0.9869
16428TIP3   OH270774   3.887   5.105  15.092 -0.1396  0.0922 -0.7618
16428TIP3    H170775   3.874   5.076  15.182 -1.4056  1.2241 -0.5470
16428TIP3    H270776   3.933   5.033  15.050 -0.7721 -1.0522  0.4294
16429TIP3   OH270777   0.845   0.784   2.735  0.4671  0.1028  0.2472
16429TIP3    H170778   0.850   0.741   2.650 -1.8973  1.3295 -0.6127
16429TIP3    H270779   0.936   0.798   2.761  1.2407 -0.4728 -1.9885
16430TIP3   OH270780   4.075   3.549  14.912  0.4544  0.5254  0.3338
16430TIP3    H170781   4.000   3.574  14.965  0.5285 -0.5755  0.9951
16430TIP3    H270782   4.149   3.548  14.973  0.5915 -0.4743  0.1808
16431TIP3   OH270783   3.448   4.939   1.203  1.0164  0.1594 -0.0927
16431TIP3    H170784   3.460   4.846   1.223  0.4195 -0.0088 -0.4522
16431TIP3    H270785   3.394   4.972   1.275  1.3367  0.2562  0.1017
16432TIP3   OH270786   0.294   5.822   2.862  0.0349  0.1953 -0.4029
16432TIP3    H170787   0.382   5.792   2.884 -0.2649 -0.2185  0.2658
16432TIP3    H270788   0.283   5.903   2.912 -0.0094  0.1783 -0.3850
16433TIP3   OH270789   3.011   1.618   0.487 -0.4192 -0.1033 -0.2332
16433TIP3    H170790   3.086   1.677   0.490  1.0986 -1.9551  1.2397
16433TIP3    H270791   2.941   1.670   0.449  1.0699  2.3187  0.1132
16434TIP3   OH270792   5.696   5.377  10.430 -0.0625 -0.3843  0.1733
16434TIP3    H170793   5.766   5.333  10.381  1.9335  0.4956  2.0269
16434TIP3    H270794   5.673   5.316  10.500 -1.0201 -0.5703 -0.2913
16435TIP3   OH270795   0.797   6.332   1.997 -0.3289  0.0955 -0.2147
16435TIP3    H170796   0.735   6.261   2.011  0.5550 -0.8109 -0.6817
16435TIP3    H270797   0.848   6.336   2.078 -2.1876  2.1315  0.9339
16436TIP3   OH270798   1.772   1.536  15.555  0.0526  0.0007  0.1555
16436TIP3    H170799   1.865   1.552  15.570  0.7617 -2.1515 -1.5038
16436TIP3    H270800   1.765   1.520  15.461 -1.5969 -2.0767  0.5494
16437TIP3   OH270801   6.511   2.474   5.770 -0.5862  0.8273  0.2673
16437TIP3    H170802   6.600   2.509   5.761 -0.8272  1.6502  0.9923
16437TIP3    H270803   6.489   2.488   5.862 -0.6246 -1.4409  0.6849
16438TIP3   OH270804   4.635   4.599  10.125  0.7982  0.1466  0.0906
16438TIP3    H170805   4.560   4.619  10.068 -0.8272 -1.2308  1.6196
16438TIP3    H270806   4.633   4.668  10.192  1.2240  0.3999 -0.1552
16439TIP3   OH270807   4.999   4.077   4.678 -0.2372 -0.2207 -0.1257
16439TIP3    H170808   4.990   4.002   4.737  0.5719  0.6474  1.1660
16439TIP3    H270809   4.909   4.109   4.666 -0.6318 -1.6364 -1.0404
16440TIP3   OH270810   2.120   0.492   5.231 -0.0442  0.2565 -0.0572
16440TIP3    H170811   2.198   0.439   5.250 -0.0155 -0.0375 -0.9236
16440TIP3    H270812   2.057   0.468   5.298  0.4693  0.1864  0.4074
16441TIP3   OH270813   2.748   0.658  11.109 -0.6048  0.4970 -0.5923
16441TIP3    H170814   2.666   0.630  11.068 -0.3913 -1.9285  0.4868
16441TIP3    H270815   2.721   0.717  11.179 -1.4792 -0.5266 -0.0385
16442TIP3   OH270816   2.264   2.885   4.135 -0.0733  0.1208 -0.3727
16442TIP3    H170817   2.285   2.940   4.210 -0.1232  0.3569 -0.5278
16442TIP3    H270818   2.301   2.799   4.156  1.2428  0.5782 -0.7312
16443TIP3   OH270819   1.347   3.328   1.719 -0.3881  0.0855  0.1748
16443TIP3    H170820   1.254   3.307   1.718  0.0349 -2.0248 -1.6290
16443TIP3    H270821   1.390   3.244   1.735  1.2557  0.7459 -0.6221
16444TIP3   OH270822   6.531   0.139  12.030 -0.0328  0.2058  0.2628
16444TIP3    H170823   6.617   0.097  12.037 -0.1713 -0.9086 -3.1237
16444TIP3    H270824   6.485   0.111  12.110  1.7127 -1.6668  0.7020
16445TIP3   OH270825   5.516   3.942   5.016 -0.4560  0.5343 -0.3027
16445TIP3    H170826   5.485   3.871   5.072 -0.3960  2.2456  2.0396
16445TIP3    H270827   5.611   3.929   5.013 -0.4741  0.3399 -0.1043
16446TIP3   OH270828   5.939   0.600   2.672 -0.2283  0.0145 -0.4015
16446TIP3    H170829   5.957   0.694   2.673  1.5410 -0.2557  2.3508
16446TIP3    H270830   6.008   0.563   2.617 -0.9621  0.2600 -1.5383
16447TIP3   OH270831   4.434   3.333   1.600 -0.2217 -0.5277 -0.1646
16447TIP3    H170832   4.465   3.326   1.690  0.2104 -2.5346 -0.4067
16447TIP3    H270833   4.339   3.342   1.607  0.0105  2.1494  0.5060
16448TIP3   OH270834   3.596   1.231   3.518 -0.1568  0.6707  0.1420
16448TIP3    H170835   3.664   1.165   3.503 -1.2803 -0.6554  0.6473
16448TIP3    H270836   3.642   1.305   3.555  1.1663  0.2115 -0.5133
16449TIP3   OH270837   5.589   3.697  16.776 -0.3346 -0.1473 -0.3898
16449TIP3    H170838   5.653   3.650  16.722 -1.0270  0.2175 -1.5673
16449TIP3    H270839   5.508   3.647  16.765 -0.6277  0.2705 -0.1552
16450TIP3   OH270840   5.979   3.496  11.379 -0.4525  0.0163  0.4595
16450TIP3    H170841   5.984   3.405  11.406  0.6820 -0.4208 -1.0881
16450TIP3    H270842   5.951   3.493  11.288  0.1561  1.1848  0.2109
16451TIP3   OH270843   1.037   5.381   0.782  0.1953 -0.4208 -0.1845
16451TIP3    H170844   1.058   5.471   0.806 -0.6904 -0.0084 -0.8739
16451TIP3    H270845   1.092   5.327   0.838  2.6808  0.5625 -1.4923
16452TIP3   OH270846   3.851   3.072  16.684  0.1146  0.4106 -0.3255
16452TIP3    H170847   3.805   3.007  16.737  1.5074 -2.6465 -2.5742
16452TIP3    H270848   3.784   3.107  16.625 -0.2833 -0.5086 -0.4371
16453TIP3   OH270849   5.211   3.005  14.082  0.2380  0.3903  0.0356
16453TIP3    H170850   5.216   2.918  14.043 -1.1404  0.5180 -0.4810
16453TIP3    H270851   5.289   3.051  14.050  0.3599 -0.2732 -0.6341
16454TIP3   OH270852   0.046   6.401   2.012  0.8824 -0.6032 -0.1314
16454TIP3    H170853   0.006   6.484   2.035  1.4660 -0.8021  1.8029
16454TIP3    H270854   0.121   6.424   1.957 -0.3645 -0.0731 -1.6946
16455TIP3   OH270855   3.467   3.947   2.816  0.0742 -0.0643  1.0218
16455TIP3    H170856   3.474   3.959   2.911 -1.1055 -0.9732  1.2362
16455TIP3    H270857   3.382   3.983   2.793  1.5325  2.9366 -0.2130
16456TIP3   OH270858   3.897   1.881  13.305  0.2252  0.1884  0.9968
16456TIP3    H170859   3.854   1.910  13.224  1.1068 -0.0207  0.4377
16456TIP3    H270860   3.976   1.935  13.311  0.2084  0.1389  1.6755
16457TIP3   OH270861   2.569   6.422   3.868  0.1440 -0.7236 -0.0104
16457TIP3    H170862   2.609   6.478   3.802  0.5070 -0.6903  0.2346
16457TIP3    H270863   2.642   6.370   3.903  0.1680  0.0782  1.1779
16458TIP3   OH270864   5.538   1.749  12.683 -0.3497 -0.3122 -0.1135
16458TIP3    H170865   5.519   1.656  12.684 -0.3606 -0.3258 -0.7642
16458TIP3    H270866   5.596   1.761  12.608  0.1536  0.1120  0.3370
16459TIP3   OH270867   0.572   0.507  15.944  0.5902 -0.6038 -0.1283
16459TIP3    H170868   0.506   0.559  15.899 -0.7452 -1.6137  0.6168
16459TIP3    H270869   0.626   0.571  15.990  0.7835  0.3009 -1.5638
16460TIP3   OH270870   3.919   1.184  12.607  0.2338  0.1930 -0.0379
16460TIP3    H170871   3.883   1.149  12.688 -1.8391 -0.2927 -1.0708
16460TIP3    H270872   4.014   1.185  12.620 -0.0342  0.0203  2.3056
16461TIP3   OH270873   1.973   2.259  13.810 -0.8995 -0.0368  0.2996
16461TIP3    H170874   2.000   2.331  13.753  0.3804 -0.9702 -0.3196
16461TIP3    H270875   1.987   2.292  13.898  2.0092 -0.2805  0.0303
16462TIP3   OH270876   3.471   6.272   5.193 -0.4824 -0.0248  0.4934
16462TIP3    H170877   3.503   6.239   5.109 -0.7946  1.2698 -0.1632
16462TIP3    H270878   3.543   6.255   5.255  1.0239  1.7231 -0.6832
16463TIP3   OH270879   1.432   5.227   1.481  0.6409 -0.0214 -0.2178
16463TIP3    H170880   1.500   5.197   1.421 -0.7504 -0.7501 -1.4897
16463TIP3    H270881   1.354   5.236   1.427 -0.4513  0.1766  1.3139
16464TIP3   OH270882   3.337   2.091  11.305 -0.6243  0.2234  0.3532
16464TIP3    H170883   3.368   2.066  11.393 -0.1057 -0.5639 -0.0377
16464TIP3    H270884   3.242   2.096  11.314 -0.8294 -2.4360  0.3673
16465TIP3   OH270885   6.243   6.527   0.907  0.0741  0.1755  0.1397
16465TIP3    H170886   6.269   6.550   0.997 -1.0971 -2.1091  1.1505
16465TIP3    H270887   6.150   6.548   0.903 -0.0044 -0.2570 -0.3678
16466TIP3   OH270888   1.418   6.187   2.281 -0.1671  0.6572 -0.0551
16466TIP3    H170889   1.438   6.268   2.330  1.1704 -0.1595  0.8138
16466TIP3    H270890   1.460   6.200   2.196 -0.1606  0.9815 -0.0064
16467TIP3   OH270891   6.451   4.568  10.708  0.5844 -0.5108 -1.3336
16467TIP3    H170892   6.391   4.519  10.765  0.6646  1.6889  0.8047
16467TIP3    H270893   6.439   4.529  10.622 -0.8032 -2.9175 -0.1663
16468TIP3   OH270894   1.029   5.926   5.567 -0.2318  0.1685  0.4611
16468TIP3    H170895   1.123   5.938   5.571  0.2191 -2.8176  0.7459
16468TIP3    H270896   0.996   5.968   5.647  1.2997 -1.7341  2.1909
16469TIP3   OH270897   5.203   0.547   2.592 -0.1298  0.3157  0.3262
16469TIP3    H170898   5.223   0.473   2.649  0.0258 -0.1556 -0.3143
16469TIP3    H270899   5.168   0.506   2.513 -0.6710  0.9739  0.2264
16470TIP3   OH270900   2.143   2.429   1.758  0.4417 -0.5818 -0.4836
16470TIP3    H170901   2.162   2.480   1.837 -0.1596 -0.9709 -0.0831
16470TIP3    H270902   2.047   2.421   1.757  0.4020 -0.1481 -1.5242
16471TIP3   OH270903   1.878   0.284  12.868  0.4919  0.1814  0.1701
16471TIP3    H170904   1.934   0.207  12.881 -0.2739 -0.8064 -2.0026
16471TIP3    H270905   1.843   0.303  12.955  1.7142 -1.1159  0.9919
16472TIP3   OH270906   2.824   6.601   6.079 -0.2662  0.4018  0.1092
16472TIP3    H170907   2.818   6.505   6.072 -0.8816  0.5378 -2.1992
16472TIP3    H270908   2.915   6.618   6.103 -0.1643 -0.7454  0.6239
16473TIP3   OH270909   5.270   4.692   1.913  0.2430  0.0022  0.2997
16473TIP3    H170910   5.192   4.748   1.907  0.3965  0.1601 -0.3055
16473TIP3    H270911   5.271   4.644   1.830  1.6296  1.1255 -0.3656
16474TIP3   OH270912   3.966   3.475   3.048 -0.0583 -0.0121 -0.3650
16474TIP3    H170913   4.027   3.496   3.118 -0.6404  0.2459  0.0711
16474TIP3    H270914   3.881   3.466   3.091 -0.5400  0.7591 -1.1059
16475TIP3   OH270915   3.553   3.549   1.794 -0.2722 -0.1603 -0.1960
16475TIP3    H170916   3.465   3.530   1.762 -0.4237  0.1523  0.0372
16475TIP3    H270917   3.607   3.553   1.715 -0.2582 -1.4225 -0.2733
16476TIP3   OH270918   6.793   3.183  15.041 -0.5155 -0.4959  0.2447
16476TIP3    H170919   6.813   3.265  14.996  0.3207 -1.1820 -0.7100
16476TIP3    H270920   6.873   3.131  15.031 -0.7155 -1.0961  1.5961
16477TIP3   OH270921   6.096   4.557  11.172 -0.1805  0.0019  0.1390
16477TIP3    H170922   6.122   4.465  11.180 -0.8612 -0.6955 -3.6611
16477TIP3    H270923   6.176   4.602  11.146 -0.5258 -0.2738 -1.5495
16478TIP3   OH270924   3.681   4.043   4.544  0.0491 -0.1533  0.3244
16478TIP3    H170925   3.621   4.090   4.603 -0.9527  1.3608 -1.7795
16478TIP3    H270926   3.727   4.112   4.497  3.0709 -1.2908  1.3647
16479TIP3   OH270927   2.906   0.452   2.790 -0.1484  0.0008 -0.8854
16479TIP3    H170928   2.910   0.547   2.777  0.1005  0.0981 -0.1455
16479TIP3    H270929   2.813   0.435   2.808  0.0553  0.3539  0.6640
16480TIP3   OH270930   6.593   3.259  12.535 -0.5026 -0.4804  0.2879
16480TIP3    H170931   6.499   3.253  12.519 -0.3673  1.4640 -1.5916
16480TIP3    H270932   6.600   3.300  12.621 -1.4048  0.9386 -0.2898
16481TIP3   OH270933   1.444   1.877   2.195  0.8766 -0.0579  0.0524
16481TIP3    H170934   1.392   1.911   2.268  0.3805 -1.2646  0.2847
16481TIP3    H270935   1.534   1.883   2.225  0.6692 -0.6059  0.7986
16482TIP3   OH270936   6.014   0.801  15.321  0.1151 -0.0516 -0.4469
16482TIP3    H170937   6.050   0.783  15.408  1.0998 -1.2689 -1.0603
16482TIP3    H270938   6.090   0.792  15.262 -0.9291 -1.5134 -1.6557
16483TIP3   OH270939   5.816   2.552   3.314  0.3471  0.0991  0.4272
16483TIP3    H170940   5.856   2.639   3.325  1.5203 -0.2563 -0.6822
16483TIP3    H270941   5.751   2.564   3.245 -0.9420  0.5020  1.6699
16484TIP3   OH270942   3.586   1.794   3.937 -0.5489  0.5434  0.5407
16484TIP3    H170943   3.638   1.798   4.017  2.2860  1.4031 -1.2087
16484TIP3    H270944   3.548   1.881   3.928 -1.6511  0.1724  1.3689
16485TIP3   OH270945   3.423   5.088  12.245 -0.2147  0.3853  0.5169
16485TIP3    H170946   3.464   5.017  12.294  1.3503  0.4889 -0.5872
16485TIP3    H270947   3.329   5.067  12.246  0.0967 -1.0498  1.2004
16486TIP3   OH270948   0.527   3.683  16.360 -0.3720  0.1699 -0.2366
16486TIP3    H170949   0.576   3.601  16.370 -0.4641  0.1101 -0.2716
16486TIP3    H270950   0.548   3.734  16.438 -0.4723  0.0302 -0.1181
16487TIP3   OH270951   4.206   3.849  12.099  0.2212 -0.3895 -0.3169
16487TIP3    H170952   4.151   3.826  12.173  0.6321 -0.7784 -0.1270
16487TIP3    H270953   4.190   3.781  12.034  1.1509 -1.0296  0.0968
16488TIP3   OH270954   2.925   6.623  11.477  0.5001 -0.1240 -0.3289
16488TIP3    H170955   2.917   6.605  11.384  1.8745  0.8395 -0.6688
16488TIP3    H270956   2.952   6.715  11.481  0.7029 -0.2248  1.0091
16489TIP3   OH270957   2.926   3.577  15.698  0.3814 -0.0132 -0.1528
16489TIP3    H170958   2.907   3.589  15.791  2.2832 -1.0460  0.4283
16489TIP3    H270959   2.841   3.586  15.655 -0.4674  1.0122  1.6036
16490TIP3   OH270960   3.703   3.080  16.165  0.0767  0.1909  0.4219
16490TIP3    H170961   3.771   3.132  16.209 -0.6035  1.3263  0.1736
16490TIP3    H270962   3.670   3.138  16.096 -0.8822 -0.4878  0.2959
16491TIP3   OH270963   3.514   2.079   5.882 -0.2092  0.9485 -0.2108
16491TIP3    H170964   3.503   2.066   5.976 -0.9974  0.0126 -0.4247
16491TIP3    H270965   3.467   2.160   5.863  1.4290  2.1205  0.4689
16492TIP3   OH270966   0.560   1.242   5.214  0.1444 -0.0189  0.5333
16492TIP3    H170967   0.496   1.233   5.144  2.4163 -1.1219 -1.5427
16492TIP3    H270968   0.633   1.290   5.174  1.7037 -1.0671  1.9942
16493TIP3   OH270969   5.543   0.307   3.036 -0.0130 -0.3053 -0.2322
16493TIP3    H170970   5.531   0.375   3.103  2.2811 -0.2963  0.2532
16493TIP3    H270971   5.461   0.257   3.039 -1.2603  1.6087  0.2963
16494TIP3   OH270972   5.018   4.089  15.526  0.5313  0.2959  0.0785
16494TIP3    H170973   4.956   4.056  15.591  1.3956  0.2889  0.9147
16494TIP3    H270974   5.104   4.079  15.566  1.2899 -1.4817 -1.8150
16495TIP3   OH270975   2.701   0.347   4.077  0.1488 -0.0284 -0.1361
16495TIP3    H170976   2.612   0.338   4.041  0.1431 -0.7912  0.0368
16495TIP3    H270977   2.706   0.278   4.143  1.6078 -1.4699 -1.6525
16496TIP3   OH270978   4.432   5.560  10.250  0.4453  0.6014 -0.4031
16496TIP3    H170979   4.386   5.480  10.227  1.3663 -0.3901  1.0725
16496TIP3    H270980   4.523   5.545  10.223  0.4734  1.4660 -0.8308
16497TIP3   OH270981   5.165   4.877  13.539 -0.3787  0.1934  0.1614
16497TIP3    H170982   5.105   4.804  13.555  0.7012 -0.6065  0.6447
16497TIP3    H270983   5.138   4.912  13.454 -0.0206 -1.6905 -0.7921
16498TIP3   OH270984   5.262   2.850   0.462  0.0414  0.9363  0.1009
16498TIP3    H170985   5.183   2.898   0.438  0.0019  0.3886 -0.9299
16498TIP3    H270986   5.249   2.827   0.554 -2.7935 -2.3911 -0.9127
16499TIP3   OH270987   4.966   3.798   3.445  0.0432  0.1602  0.4887
16499TIP3    H170988   5.042   3.748   3.474  0.1505  0.1923  0.2667
16499TIP3    H270989   4.904   3.732   3.414  0.2871  0.1746 -0.0461
16500TIP3   OH270990   4.171   3.825  11.423 -0.0841 -0.0244 -0.1711
16500TIP3    H170991   4.137   3.855  11.508 -0.5563  0.2656 -0.4602
16500TIP3    H270992   4.202   3.736  11.440  1.6667  0.7133  0.7960
16501TIP3   OH270993   5.061   4.147  15.241  0.6501  0.2110 -0.2171
16501TIP3    H170994   5.099   4.064  15.210 -0.9022 -0.0130 -1.6349
16501TIP3    H270995   5.036   4.129  15.332 -2.3786 -1.9551 -1.3133
16502TIP3   OH270996   1.479   1.951  14.438  0.5493 -0.0396  0.3551
16502TIP3    H170997   1.523   1.959  14.523 -1.4777  0.6857  1.4009
16502TIP3    H270998   1.450   2.040  14.417 -1.6569 -0.6710  0.4567
16503TIP3   OH270999   5.243   4.213   2.286 -0.4503  0.4478 -0.0027
16503TIP3    H171000   5.177   4.254   2.342  0.4001 -0.4200  1.7180
16503TIP3    H271001   5.214   4.122   2.279  0.9437 -0.1660  1.5010
16504TIP3   OH271002   5.672   2.419   3.591  0.1854 -0.4961 -0.3722
16504TIP3    H171003   5.758   2.461   3.586 -0.0512  0.0341  0.0299
16504TIP3    H271004   5.690   2.330   3.623  0.6211 -0.5191 -0.6750
16505TIP3   OH271005   2.913   5.959  15.533 -0.4094  0.3847 -0.0023
16505TIP3    H171006   2.973   5.893  15.496 -1.6459 -0.0123 -1.3834
16505TIP3    H271007   2.971   6.025  15.571  0.9977  0.8050 -2.6379
16506TIP3   OH271008   5.617   5.627  13.256 -0.4050  0.6084 -0.2628
16506TIP3    H171009   5.544   5.679  13.224 -0.8401 -0.1172 -0.4877
16506TIP3    H271010   5.614   5.637  13.351 -0.4396  1.0402 -0.3064
16507TIP3   OH271011   1.835   6.723   2.191  0.5573 -0.2289  0.0212
16507TIP3    H171012   1.847   6.749   2.282  1.6345  1.2960 -0.5168
16507TIP3    H271013   1.824   6.628   2.194  2.3682 -0.4510  1.6073
16508TIP3   OH271014   3.008   5.088   5.564  0.0763 -0.1039  0.2192
16508TIP3    H171015   2.987   5.000   5.597  1.2035 -0.1296  0.9223
16508TIP3    H271016   3.087   5.113   5.612  1.0587  0.3895 -1.5537
16509TIP3   OH271017   5.834   6.505  16.218  0.2431  0.0565  0.1758
16509TIP3    H171018   5.790   6.465  16.143 -0.7807 -0.4349  0.9971
16509TIP3    H271019   5.925   6.512  16.192  0.0776 -0.9735 -0.7585
16510TIP3   OH271020   1.682   5.821  12.573 -0.4349 -0.1955  0.6781
16510TIP3    H171021   1.712   5.903  12.533  0.5326 -0.7251  0.2793
16510TIP3    H271022   1.761   5.783  12.611 -0.2929 -2.1871 -1.3775
16511TIP3   OH271023   3.574   1.098   2.151  0.2591  0.1833  0.0255
16511TIP3    H171024   3.616   1.021   2.190  0.4159 -0.4877 -1.4088
16511TIP3    H271025   3.648   1.153   2.124  0.1625  0.2727 -0.0536
16512TIP3   OH271026   0.089   5.880  14.900 -0.0766 -0.3230  0.1907
16512TIP3    H171027   0.151   5.811  14.878 -0.2113 -0.5621  0.5428
16512TIP3    H271028   0.142   5.948  14.941  0.3195  0.5361 -1.6951
16513TIP3   OH271029   3.826   3.415   3.685 -0.0826 -0.3003 -0.4361
16513TIP3    H171030   3.765   3.370   3.627 -0.9005  1.6081 -1.1278
16513TIP3    H271031   3.885   3.462   3.626  0.9697 -0.7239  0.2528
16514TIP3   OH271032   4.913   1.818  14.745 -0.0538  0.2255 -0.5061
16514TIP3    H171033   4.845   1.873  14.782  1.2561  0.5020  1.6840
16514TIP3    H271034   4.978   1.810  14.815  2.5978  0.6837 -2.7304
16515TIP3   OH271035   2.645   0.840  11.316  0.4571  0.6711 -0.1441
16515TIP3    H171036   2.578   0.880  11.261  0.6147  1.5170  0.2612
16515TIP3    H271037   2.598   0.812  11.395  0.4075  0.3587 -0.2829
16516TIP3   OH271038   5.493   3.403   4.432  0.1467  0.1061 -0.0715
16516TIP3    H171039   5.497   3.464   4.506  0.3230 -0.0784  0.0705
16516TIP3    H271040   5.422   3.343   4.453 -0.1746  0.3911 -0.3139
16517TIP3   OH271041   1.502   1.150   3.058 -0.1043  0.0613  0.3532
16517TIP3    H171042   1.475   1.116   3.144 -0.5970  1.5008  0.7909
16517TIP3    H271043   1.461   1.236   3.052  3.2665  1.8418  0.4860
16518TIP3   OH271044   6.591   0.069  15.775  1.2044  0.8338  0.1895
16518TIP3    H171045   6.544   0.151  15.794 -0.7530 -0.8353  3.4777
16518TIP3    H271046   6.680   0.084  15.808 -0.2411  0.4592  5.0320
16519TIP3   OH271047   3.258   2.259   4.083  0.1769  0.1384 -0.2613
16519TIP3    H171048   3.274   2.165   4.069 -2.0255 -0.3470  0.1500
16519TIP3    H271049   3.218   2.263   4.170 -0.0360  1.4421 -0.4069
16520TIP3   OH271050   2.998   4.652  14.056 -0.6770 -0.6786  0.0834
16520TIP3    H171051   2.977   4.567  14.095 -0.6371 -1.4490 -1.4903
16520TIP3    H271052   3.047   4.630  13.977 -1.2849  0.7814 -0.7277
16521TIP3   OH271053   5.831   1.079  14.136  0.5511 -0.1337  0.1327
16521TIP3    H171054   5.775   1.112  14.066  0.9558 -0.1554 -0.2033
16521TIP3    H271055   5.919   1.081  14.099  0.7363 -0.3694  0.5599
16522TIP3   OH271056   2.945   1.196  17.009 -0.6123 -0.4719  0.4309
16522TIP3    H171057   2.858   1.233  16.993 -0.3332  0.2692  0.5873
16522TIP3    H271058   3.005   1.270  16.999  0.1006 -1.1578 -0.5864
16523TIP3   OH271059   0.183   1.037  12.301  0.0286  0.6245  0.6016
16523TIP3    H171060   0.217   1.119  12.336 -2.1380  1.2285  1.4780
16523TIP3    H271061   0.088   1.044  12.311 -0.3215 -1.4203 -0.6020
16524TIP3   OH271062   2.713   6.208   0.201 -0.1463  1.2053 -0.0421
16524TIP3    H171063   2.684   6.283   0.148  1.9731  2.2361  0.1671
16524TIP3    H271064   2.792   6.177   0.157 -1.2386 -1.3304 -0.4319
16525TIP3   OH271065   0.459   3.444  12.741 -0.0061  0.2412  0.2936
16525TIP3    H171066   0.381   3.468  12.791 -0.9348 -4.0301  1.2712
16525TIP3    H271067   0.527   3.432  12.807  0.8647  1.5323 -0.3231
16526TIP3   OH271068   4.622   6.172   3.593 -0.0195 -0.5208  0.4000
16526TIP3    H171069   4.629   6.109   3.665 -1.0019  1.0901  2.0149
16526TIP3    H271070   4.703   6.222   3.597  0.3913 -1.1074 -0.3373
16527TIP3   OH271071   5.198   3.062  15.997 -0.0024  0.6817 -0.0840
16527TIP3    H171072   5.210   3.103  16.083 -2.2175  1.3478 -0.0477
16527TIP3    H271073   5.167   2.974  16.017 -0.0041  0.6531 -0.2120
16528TIP3   OH271074   6.651   1.075   5.241  0.5252  0.1115  0.0624
16528TIP3    H171075   6.652   1.167   5.213 -0.6697  0.3102  0.5936
16528TIP3    H271076   6.696   1.028   5.170  1.6610  1.1597  0.0581
16529TIP3   OH271077   0.792   2.883  13.772 -0.2156 -0.9284 -0.1455
16529TIP3    H171078   0.781   2.812  13.835 -1.6720 -1.3431 -0.8049
16529TIP3    H271079   0.749   2.958  13.812  2.6500  0.1189  1.2424
16530TIP3   OH271080   5.679   3.454  16.099 -0.2412  0.0948 -0.2438
16530TIP3    H171081   5.740   3.384  16.077 -1.0342 -0.4707 -0.6796
16530TIP3    H271082   5.669   3.504  16.018  1.9010  2.0055  0.5530
16531TIP3   OH271083   5.077   2.585   0.238  0.0942 -0.2129  0.4063
16531TIP3    H171084   5.014   2.635   0.291  1.0461  0.0019  1.3799
16531TIP3    H271085   5.081   2.632   0.155 -0.3793  0.2734  0.6497
16532TIP3   OH271086   0.295   5.314  16.089 -0.4781  0.6933  0.2619
16532TIP3    H171087   0.385   5.345  16.087 -0.8204  1.9852  2.2487
16532TIP3    H271088   0.292   5.254  16.164 -0.8813 -0.7139 -0.8534
16533TIP3   OH271089   2.803   3.534   5.056  0.5814  0.1335  0.3918
16533TIP3    H171090   2.863   3.465   5.084  0.5053  0.0819  0.4271
16533TIP3    H271091   2.720   3.514   5.099 -0.1445 -1.1218 -1.4679
16534TIP3   OH271092   4.668   5.536  15.165 -0.3416 -0.3688  0.0292
16534TIP3    H171093   4.630   5.449  15.160 -0.8729 -0.0672 -1.4758
16534TIP3    H271094   4.595   5.596  15.149  0.4607  0.2622 -1.5280
16535TIP3   OH271095   0.814   2.244  13.717 -0.2850  0.2999 -0.6241
16535TIP3    H171096   0.819   2.151  13.740 -0.1395  0.6045  0.5945
16535TIP3    H271097   0.873   2.253  13.642 -0.0381 -0.5261 -0.5382
16536TIP3   OH271098   4.854   1.066  15.230  0.4903  0.4678  0.3355
16536TIP3    H171099   4.924   1.116  15.187  0.4570 -0.2499 -0.5795
16536TIP3    H271100   4.834   0.995  15.168 -0.9520  0.5787  0.6513
16537TIP3   OH271101   6.458   0.832   6.453  0.4344  0.3155 -0.2366
16537TIP3    H171102   6.540   0.808   6.409  0.3936 -0.7138  0.2214
16537TIP3    H271103   6.462   0.788   6.538 -1.0057 -0.5175 -0.5715
16538TIP3   OH271104   5.009   1.871   2.963 -0.2553  0.1621  0.4185
16538TIP3    H171105   5.033   1.779   2.978  0.0390  0.2666  0.5892
16538TIP3    H271106   4.918   1.867   2.932  0.0132 -0.2427 -0.3494
16539TIP3   OH271107   4.058   1.889   5.692  0.6148 -0.5350  0.1527
16539TIP3    H171108   4.031   1.972   5.652 -5.5599 -0.3102  3.5776
16539TIP3    H271109   4.133   1.913   5.746  0.3875  2.3154 -0.5993
16540TIP3   OH271110   0.652   0.047  17.270  0.1834  0.2875 -0.0049
16540TIP3    H171111   0.573   0.036  17.218 -0.7763 -2.7380  1.8103
16540TIP3    H271112   0.718  -0.007  17.226  0.0657 -0.3560  0.5952
16541TIP3   OH271113   3.052   5.260   3.613 -0.1725  0.9463 -0.6163
16541TIP3    H171114   3.120   5.252   3.546  0.4229  2.4874 -0.2324
16541TIP3    H271115   3.047   5.353   3.631 -1.0087  0.6544  0.8048
16542TIP3   OH271116   3.714   0.960  14.166  0.3233  0.3994 -0.1357
16542TIP3    H171117   3.697   0.900  14.093 -0.0630 -0.5105  0.6793
16542TIP3    H271118   3.809   0.971  14.166  0.2721  0.9302 -1.1733
16543TIP3   OH271119   3.433   3.981  16.108 -0.0844  0.4819 -0.4097
16543TIP3    H171120   3.461   3.905  16.158 -0.5505 -0.0201 -0.8881
16543TIP3    H271121   3.339   3.966  16.092 -0.1635  1.1144 -0.5785
16544TIP3   OH271122   2.868   3.517   2.114  0.4520  0.3977  0.4156
16544TIP3    H171123   2.881   3.432   2.158 -1.1695 -0.7918 -1.2341
16544TIP3    H271124   2.907   3.506   2.028 -1.1890  0.7054 -0.4140
16545TIP3   OH271125   3.195   5.552   1.191  0.1815 -0.0284 -0.0250
16545TIP3    H171126   3.269   5.580   1.244  0.5062  0.2969 -0.6382
16545TIP3    H271127   3.232   5.536   1.104 -0.0608 -2.0434  0.1951
16546TIP3   OH271128   3.592   5.825  14.458 -0.3312  0.4958  0.6709
16546TIP3    H171129   3.517   5.838  14.400  0.4442  0.1252 -0.4687
16546TIP3    H271130   3.562   5.854  14.544 -2.0276 -0.3813  0.4190
16547TIP3   OH271131   0.879   3.410   2.598  0.1946 -0.3935 -0.3218
16547TIP3    H171132   0.851   3.362   2.676  0.6875  0.5266  0.4243
16547TIP3    H271133   0.840   3.360   2.525 -0.1068 -1.3694  0.4822
16548TIP3   OH271134   5.250   2.799   5.898 -0.3064  0.4289  0.5205
16548TIP3    H171135   5.316   2.747   5.853  0.2680 -0.5102  2.3251
16548TIP3    H271136   5.167   2.758   5.874 -0.1981  1.0449 -1.0312
16549TIP3   OH271137   1.927   6.624  13.798 -0.6290  0.0499  0.3956
16549TIP3    H171138   1.850   6.681  13.804 -1.8585 -1.4683 -0.1768
16549TIP3    H271139   1.908   6.552  13.858  0.4743 -0.2073  0.4460
16550TIP3   OH271140   5.475   2.498   5.123  0.1482 -0.4584 -0.3515
16550TIP3    H171141   5.494   2.427   5.061  0.8684 -1.8411  1.3695
16550TIP3    H271142   5.543   2.563   5.106  0.1317 -0.6569 -1.2335
16551TIP3   OH271143   4.767   3.635  13.640 -0.3923 -0.0319 -0.1217
16551TIP3    H171144   4.730   3.547  13.633  1.1781 -0.6100 -1.8003
16551TIP3    H271145   4.727   3.671  13.720 -1.1645 -2.1988  0.5444
16552TIP3   OH271146   5.741   0.635   4.139 -0.0689 -0.1638 -0.1858
16552TIP3    H171147   5.721   0.652   4.231 -0.4274  1.6309 -0.5670
16552TIP3    H271148   5.820   0.581   4.141 -1.2396 -1.9643  1.1900
16553TIP3   OH271149   4.458   2.265   0.210  0.2003  0.0793 -0.1472
16553TIP3    H171150   4.552   2.245   0.213  0.3188  0.4815 -0.8065
16553TIP3    H271151   4.433   2.279   0.301  0.3190 -2.0191  0.2392
16554TIP3   OH271152   1.547   5.938   2.531  0.0447 -0.3113 -0.1479
16554TIP3    H171153   1.558   5.938   2.436  0.3456 -0.0220 -0.1177
16554TIP3    H271154   1.626   5.981   2.564 -0.7786  1.0323  0.1410
16555TIP3   OH271155   0.998   2.014  11.672 -0.5551  0.4419 -0.0550
16555TIP3    H171156   0.945   1.968  11.737 -0.8405  0.1195 -0.5156
16555TIP3    H271157   1.086   2.016  11.711 -0.2005 -1.6952 -0.6036
16556TIP3   OH271158   1.286   6.459  10.540 -0.0984 -0.0381 -0.0818
16556TIP3    H171159   1.196   6.427  10.543 -0.2556  0.4226  0.2539
16556TIP3    H271160   1.278   6.547  10.504  0.4050 -0.6298 -1.7196
16557TIP3   OH271161   2.000   6.396  14.881 -0.0118  0.2391  0.2374
16557TIP3    H171162   2.070   6.455  14.911  1.4642 -1.9552  1.4341
16557TIP3    H271163   1.986   6.420  14.790  1.8372  1.2596  0.1614
16558TIP3   OH271164   1.700   2.083  15.774  0.1231  0.4095  0.0200
16558TIP3    H171165   1.736   2.172  15.777  0.6981  0.1750  0.1511
16558TIP3    H271166   1.670   2.067  15.863  0.1799  0.4096  0.0392
16559TIP3   OH271167   2.915   1.560   0.806  0.2198 -0.1770 -0.1425
16559TIP3    H171168   2.827   1.594   0.823 -0.4436 -1.5733 -0.5762
16559TIP3    H271169   2.937   1.591   0.719 -0.1852 -0.4712 -0.3521
16560TIP3   OH271170   0.904   6.026   1.367 -0.3057 -0.2958 -0.4430
16560TIP3    H171171   0.855   6.084   1.309 -1.4640 -1.7009 -0.9311
16560TIP3    H271172   0.995   6.036   1.339 -0.5225  0.9257 -0.7919
16561TIP3   OH271173   6.426   1.295   5.287 -0.3883 -0.2496  0.2595
16561TIP3    H171174   6.506   1.302   5.234  0.2176 -0.4979  1.1052
16561TIP3    H271175   6.447   1.228   5.352 -2.0939 -1.9577 -0.8726
16562TIP3   OH271176   6.289   0.383  12.138 -0.1794  0.1107 -0.4661
16562TIP3    H171177   6.279   0.396  12.043 -0.5242  1.9431 -0.2063
16562TIP3    H271178   6.383   0.388  12.153 -0.0113 -1.3492 -0.8260
16563TIP3   OH271179   1.737   5.100   1.689  0.1850 -0.1364 -0.8327
16563TIP3    H171180   1.690   5.161   1.746 -1.2762 -0.1534 -1.9655
16563TIP3    H271181   1.751   5.022   1.743 -0.2910  0.2102 -0.1950
16564TIP3   OH271182   0.133   2.389   5.215 -0.1309  0.3943  0.0078
16564TIP3    H171183   0.154   2.389   5.309 -3.1206  0.7827  0.8000
16564TIP3    H271184   0.150   2.299   5.187 -0.1590 -0.0111  1.2157
16565TIP3   OH271185   1.283   5.167  14.047  0.7471  0.5418 -0.2208
16565TIP3    H171186   1.349   5.198  13.984 -0.5837  1.8987 -1.0240
16565TIP3    H271187   1.252   5.247  14.089 -1.7286  0.2025 -1.2423
16566TIP3   OH271188   3.915   6.643   0.848  1.0789 -0.5285  0.8438
16566TIP3    H171189   3.850   6.671   0.913 -0.3238 -0.6513 -0.4512
16566TIP3    H271190   3.967   6.722   0.831 -1.0713  0.6676 -0.7219
16567TIP3   OH271191   2.446   0.238  14.060 -0.4124  0.4864 -0.9518
16567TIP3    H171192   2.522   0.261  14.006 -0.7031 -0.3249 -1.7356
16567TIP3    H271193   2.479   0.172  14.120  0.3560  2.5918  1.1225
16568TIP3   OH271194   5.574   2.505  12.405 -0.3268  0.1190 -0.4289
16568TIP3    H171195   5.563   2.412  12.427 -0.1683  0.0570 -0.6060
16568TIP3    H271196   5.536   2.513  12.317 -0.4933  0.2573 -0.3446
16569TIP3   OH271197   1.551   5.020   2.690  0.4048 -0.3906  0.2797
16569TIP3    H171198   1.581   5.101   2.732  1.4500 -0.6537  0.0815
16569TIP3    H271199   1.588   5.025   2.601  0.1855 -0.9279  0.1570
16570TIP3   OH271200   2.408   4.010  11.203 -0.4330 -0.0049 -0.0825
16570TIP3    H171201   2.434   4.081  11.262 -2.6941 -0.0020  1.0103
16570TIP3    H271202   2.408   4.050  11.116  1.4308  0.4157  0.0694
16571TIP3   OH271203   4.783   0.275   0.217 -0.1462 -0.3846  0.4500
16571TIP3    H171204   4.693   0.295   0.191 -0.6913  0.0680  2.5422
16571TIP3    H271205   4.831   0.273   0.134 -1.1311  3.9807 -0.5014
16572TIP3   OH271206   0.125   0.397   1.008 -0.8134 -0.1620 -0.4177
16572TIP3    H171207   0.098   0.432   1.093  0.9266 -0.2109  0.2097
16572TIP3    H271208   0.066   0.324   0.991 -2.5309  1.1421 -0.2827
16573TIP3   OH271209   5.941   5.865   1.023 -0.3749 -0.0323  0.9458
16573TIP3    H171210   5.856   5.821   1.016 -0.7802  0.9795 -1.0605
16573TIP3    H271211   5.982   5.824   1.099 -2.8102 -0.2571  2.2571
16574TIP3   OH271212   2.250   1.146   0.608 -0.5433  0.5092  0.4383
16574TIP3    H171213   2.195   1.195   0.669 -1.2659  1.3646 -0.8537
16574TIP3    H271214   2.338   1.179   0.623 -0.7315  0.7973  0.9293
16575TIP3   OH271215   0.694   1.429  13.309  0.9714 -0.3037 -0.0212
16575TIP3    H171216   0.784   1.459  13.316  0.9531 -0.3843  0.5721
16575TIP3    H271217   0.699   1.333  13.317  0.8533 -0.3216 -0.1561
16576TIP3   OH271218   6.506   3.312  14.457  0.1286  0.5915 -0.6152
16576TIP3    H171219   6.508   3.347  14.368  1.7786  1.9447 -0.0938
16576TIP3    H271220   6.435   3.359  14.500  0.1160  0.8057 -0.8709
16577TIP3   OH271221   3.690   6.712   2.335 -0.0974 -0.3442 -0.0743
16577TIP3    H171222   3.777   6.752   2.340 -0.4512  0.5914 -0.9845
16577TIP3    H271223   3.691   6.663   2.253  0.1521 -1.8070  0.7793
16578TIP3   OH271224   2.600   3.750  16.818  0.5131 -0.6140  0.0368
16578TIP3    H171225   2.672   3.808  16.795  1.3175 -1.7784 -0.4908
16578TIP3    H271226   2.541   3.804  16.870  1.0530  0.7603 -0.7325
16579TIP3   OH271227   3.812   6.023   3.162 -0.4717 -0.2826  0.4277
16579TIP3    H171228   3.803   6.103   3.214  2.8876  1.1848 -0.9490
16579TIP3    H271229   3.901   5.991   3.182 -0.4750 -1.7402 -1.6031
16580TIP3   OH271230   6.697   5.461  10.712  0.5891 -0.5490 -0.8559
16580TIP3    H171231   6.716   5.399  10.642 -1.6953 -1.8504 -0.4111
16580TIP3    H271232   6.656   5.535  10.667 -0.0268 -0.9714 -0.9922
16581TIP3   OH271233   6.259   3.597   3.375  0.0463  0.5371  0.7538
16581TIP3    H171234   6.309   3.609   3.295  1.1392  0.7580  1.4426
16581TIP3    H271235   6.222   3.509   3.368  2.9755 -0.8733  1.4677
16582TIP3   OH271236   0.301   0.692  12.912 -0.1016 -0.2207  0.8348
16582TIP3    H171237   0.263   0.723  12.995  2.0941  0.0398  1.7920
16582TIP3    H271238   0.354   0.765  12.881 -0.5778 -0.4571 -0.6603
16583TIP3   OH271239   6.807   3.872  10.739 -0.1796  0.1039  0.0610
16583TIP3    H171240   6.718   3.895  10.714 -1.1477  0.5026  3.3289
16583TIP3    H271241   6.801   3.781  10.768  0.1418  0.5039  1.4693
16584TIP3   OH271242   0.077   4.165   5.054  0.3933 -0.4888 -0.1456
16584TIP3    H171243   0.143   4.193   5.118  1.4767 -2.6298 -0.2267
16584TIP3    H271244   0.110   4.196   4.970  0.0982  0.4252  0.0687
16585TIP3   OH271245   1.784   6.034   4.855  0.1031 -0.0962 -0.3745
16585TIP3    H171246   1.835   5.952   4.852  0.5499  0.1172  0.7171
16585TIP3    H271247   1.843   6.099   4.817  0.7066  0.1593  0.9281
16586TIP3   OH271248   3.323   1.587  11.234  0.0341  0.2944 -0.1055
16586TIP3    H171249   3.340   1.667  11.185 -1.3995  0.4618 -0.3690
16586TIP3    H271250   3.403   1.573  11.286  0.8323  1.1359 -1.0641
16587TIP3   OH271251   2.477   5.081  15.943 -0.7388 -0.1882 -0.4535
16587TIP3    H171252   2.389   5.043  15.943 -0.1286 -1.6891 -0.3635
16587TIP3    H271253   2.535   5.006  15.931  0.4857  0.9095 -1.8305
16588TIP3   OH271254   3.805   1.156   5.727  0.3095  0.2947 -0.3485
16588TIP3    H171255   3.878   1.113   5.771 -1.5513  1.0537  4.0117
16588TIP3    H271256   3.820   1.250   5.740  1.0862  0.8230 -4.1045
16589TIP3   OH271257   5.974   5.295   5.880 -0.1881  0.1679 -0.0261
16589TIP3    H171258   5.919   5.250   5.816  1.4568 -0.7635 -0.8673
16589TIP3    H271259   5.929   5.377   5.898 -2.5402 -1.1347  0.4129
16590TIP3   OH271260   5.221   2.434   4.476 -0.2295 -0.9193  0.1462
16590TIP3    H171261   5.300   2.393   4.440 -0.3301 -0.8209 -0.1981
16590TIP3    H271262   5.150   2.376   4.448 -0.3433 -0.6620 -0.1058
16591TIP3   OH271263   1.672   1.754  14.139  0.1060 -0.0916  0.0734
16591TIP3    H171264   1.582   1.735  14.164  0.2281  0.8796  1.3429
16591TIP3    H271265   1.665   1.790  14.051 -0.5017 -1.9928 -0.7215
16592TIP3   OH271266   5.824   6.761   4.774  0.1871  0.6573  0.5566
16592TIP3    H171267   5.783   6.836   4.817 -1.2359 -0.5159  1.3409
16592TIP3    H271268   5.918   6.775   4.786 -0.0087  2.7177 -0.0623
16593TIP3   OH271269   0.324   6.805   2.734  0.2934  0.3571  0.8229
16593TIP3    H171270   0.275   6.857   2.670  0.4383  1.6440  1.7191
16593TIP3    H271271   0.405   6.783   2.690 -0.2050  0.0157  0.0643
16594TIP3   OH271272   1.738   5.863   1.926 -0.0625  0.4536 -0.0289
16594TIP3    H171273   1.811   5.891   1.982 -0.0694 -1.2825  0.9551
16594TIP3    H271274   1.779   5.844   1.841  0.2173  1.6842 -0.1811
16595TIP3   OH271275   5.334   6.588   3.938 -0.6553 -0.5220  0.1042
16595TIP3    H171276   5.347   6.493   3.943  0.0942 -0.5985 -1.9898
16595TIP3    H271277   5.418   6.621   3.907 -0.8753  0.8668  0.9263
16596TIP3   OH271278   3.702   3.739  11.991  0.0517 -0.3503  0.1259
16596TIP3    H171279   3.657   3.683  11.928 -0.4168  0.5757 -0.3983
16596TIP3    H271280   3.631   3.782  12.039  0.3977 -1.6175  1.8439
16597TIP3   OH271281   6.462   3.092  15.405 -0.2592  0.3014 -0.0796
16597TIP3    H171282   6.447   3.186  15.392 -1.1263  0.2442  0.4201
16597TIP3    H271283   6.548   3.076  15.368 -0.1235  1.2908 -0.2159
16598TIP3   OH271284   4.714   0.775   3.546 -0.1295 -0.2842  0.6022
16598TIP3    H171285   4.736   0.689   3.583 -0.0929  0.0134  1.2907
16598TIP3    H271286   4.794   0.827   3.557 -1.0931  0.8493  3.2464
16599TIP3   OH271287   4.438   6.127  16.217  0.5565 -0.3648 -0.9502
16599TIP3    H171288   4.367   6.163  16.164 -0.5881 -3.1086 -1.4096
16599TIP3    H271289   4.498   6.087  16.154  0.1100 -2.0778 -0.3339
16600TIP3   OH271290   5.472   5.334  16.100  0.0828 -0.7430  0.4781
16600TIP3    H171291   5.404   5.397  16.121  0.0805  0.3929 -2.4549
16600TIP3    H271292   5.426   5.261  16.059  0.4163 -0.9537  0.4701
16601TIP3   OH271293   4.653   3.264   6.818 -0.3633  0.2759 -0.1857
16601TIP3    H171294   4.610   3.292   6.737 -0.3041 -1.0341 -0.6816
16601TIP3    H271295   4.588   3.210   6.862 -0.4807  1.1728  0.7815
16602TIP3   OH271296   6.702   1.416  12.451 -0.7690 -0.5348 -0.0829
16602TIP3    H171297   6.634   1.448  12.392 -1.4754 -0.2137  0.8742
16602TIP3    H271298   6.776   1.477  12.438 -0.4768 -1.1400 -1.4398
16603TIP3   OH271299   0.759   0.759  16.684  0.1054  0.5043  0.5127
16603TIP3    H171300   0.721   0.672  16.668 -0.4929  0.8595 -0.0440
16603TIP3    H271301   0.803   0.750  16.768  1.3978 -0.7820 -0.2519
16604TIP3   OH271302   6.785   6.141   3.280 -0.1899  0.5416 -0.6569
16604TIP3    H171303   6.870   6.184   3.279  0.1356 -0.0812 -0.2312
16604TIP3    H271304   6.804   6.049   3.299 -0.8409  0.1218 -1.8943
16605TIP3   OH271305   6.669   4.329  16.946 -0.2070  0.4609  0.3911
16605TIP3    H171306   6.668   4.234  16.963 -0.7865  0.4557  0.3537
16605TIP3    H271307   6.747   4.360  16.992 -0.0858 -0.0138  0.5196
16606TIP3   OH271308   2.503   0.681   0.490 -0.3069 -0.2020  0.5868
16606TIP3    H171309   2.454   0.748   0.537 -3.7479 -1.6125 -0.7018
16606TIP3    H271310   2.476   0.690   0.399  3.6046  0.2616 -0.7386
16607TIP3   OH271311   2.351   3.664  13.231  0.3612 -0.2818  0.5876
16607TIP3    H171312   2.348   3.662  13.326  0.1253 -0.4733  0.5783
16607TIP3    H271313   2.412   3.734  13.210  0.2698 -0.1129  0.8782
16608TIP3   OH271314   1.214   3.027  14.146  0.2079 -0.1291  0.2316
16608TIP3    H171315   1.223   3.120  14.167 -1.5438  0.0048  0.5589
16608TIP3    H271316   1.269   2.983  14.210 -1.8793  0.5188  2.6519
16609TIP3   OH271317   1.354   4.257  13.495  0.0546  0.1634  0.2783
16609TIP3    H171318   1.261   4.274  13.483  0.0227 -0.1325  0.1090
16609TIP3    H271319   1.396   4.296  13.419  0.0436  0.0632  0.2210
16610TIP3   OH271320   0.945   4.471  10.347 -0.4197 -0.1152 -0.6401
16610TIP3    H171321   0.958   4.481  10.252 -0.4077  0.3612 -0.5894
16610TIP3    H271322   1.034   4.467  10.382 -0.3277  2.3533 -0.3782
16611TIP3   OH271323   0.967   3.758  16.061  0.0755 -0.4017  0.3201
16611TIP3    H171324   0.901   3.755  15.991 -0.0444 -0.8394  0.4511
16611TIP3    H271325   0.988   3.851  16.069 -0.3561 -0.2816  0.1188
16612TIP3   OH271326   2.030   3.073   2.128  0.0581 -0.3268 -0.5419
16612TIP3    H171327   2.020   3.120   2.046  0.4002  0.4000 -0.1717
16612TIP3    H271328   2.121   3.086   2.153 -0.2688  0.2628  0.4250
16613TIP3   OH271329   2.213   3.227  15.436 -0.1822 -0.4023 -0.3650
16613TIP3    H171330   2.205   3.235  15.531  0.1912  0.8281 -0.4155
16613TIP3    H271331   2.124   3.212  15.405 -0.5758  0.9388  0.0537
16614TIP3   OH271332   6.559   3.984  12.889  0.8898  0.3985 -0.0819
16614TIP3    H171333   6.616   4.060  12.897  2.1466 -0.4997 -0.2765
16614TIP3    H271334   6.612   3.910  12.920 -0.6865 -0.2510  1.2112
16615TIP3   OH271335   0.605   4.504   0.802  0.2381 -0.3095 -0.5973
16615TIP3    H171336   0.533   4.441   0.798 -0.4047  0.3919 -0.3826
16615TIP3    H271337   0.654   4.490   0.721 -0.5319 -0.3529 -1.0632
16616TIP3   OH271338   4.143   4.601  17.165 -0.0647 -0.4083 -0.0192
16616TIP3    H171339   4.097   4.590  17.082 -0.3096  1.0942 -0.1207
16616TIP3    H271340   4.080   4.645  17.221  1.3603  2.2893 -0.3620
16617TIP3   OH271341   0.252   2.732  13.702 -0.7153  0.4040  0.5159
16617TIP3    H171342   0.306   2.758  13.627 -1.2607  0.0124 -0.0157
16617TIP3    H271343   0.227   2.815  13.743  0.2497  0.5922  0.7513
16618TIP3   OH271344   5.336   5.375  13.559  0.8978 -0.4865 -0.2455
16618TIP3    H171345   5.339   5.279  13.559 -0.8367 -0.5720 -0.0101
16618TIP3    H271346   5.424   5.402  13.532  2.2617 -2.0681  2.2628
16619TIP3   OH271347   1.722   3.474  11.217 -0.7801 -0.1018  0.0138
16619TIP3    H171348   1.786   3.528  11.169  1.5961  0.3083  3.2436
16619TIP3    H271349   1.677   3.536  11.274  1.2113 -1.1493  2.9870
16620TIP3   OH271350   3.467   4.736  12.622 -0.0725  0.2868 -0.1037
16620TIP3    H171351   3.373   4.751  12.631 -0.0359  0.5296 -0.1046
16620TIP3    H271352   3.484   4.654  12.667 -0.5022 -0.4439 -1.2274
16621TIP3   OH271353   5.194   5.935   1.356 -0.1689 -0.0810 -0.0389
16621TIP3    H171354   5.152   5.899   1.434  0.5282 -1.7743 -0.4006
16621TIP3    H271355   5.270   5.879   1.341  0.3060  0.8445 -1.3430
16622TIP3   OH271356   2.446   0.262   0.831 -0.4352  0.5553 -0.6886
16622TIP3    H171357   2.477   0.342   0.788  0.1313  1.0627  0.5891
16622TIP3    H271358   2.525   0.224   0.869 -0.9238  0.1853 -0.0211
16623TIP3   OH271359   5.903   2.730   0.361 -0.4064 -0.1924  0.3617
16623TIP3    H171360   5.892   2.687   0.445  2.5801  1.0745  1.5413
16623TIP3    H271361   5.968   2.677   0.315  0.7354  1.1244  0.4126
16624TIP3   OH271362   0.502   0.809   3.601  0.0770 -0.1085  0.5906
16624TIP3    H171363   0.567   0.832   3.534 -0.7722  0.1220 -0.1658
16624TIP3    H271364   0.451   0.890   3.613  0.2609 -0.1249  1.5696
16625TIP3   OH271365   0.152   6.294   5.128 -0.3453 -0.2567  0.1007
16625TIP3    H171366   0.155   6.310   5.223  1.0254  0.8057 -0.0833
16625TIP3    H271367   0.063   6.321   5.102  0.0464  1.8467  0.7289
16626TIP3   OH271368   2.022   1.280  16.397 -0.3504  0.4520  0.1075
16626TIP3    H171369   2.006   1.220  16.469 -1.1925  1.1756  0.5416
16626TIP3    H271370   2.117   1.295  16.400  0.1947 -2.2333 -1.1661
16627TIP3   OH271371   4.736   1.225  16.314  0.2438  0.3212 -0.2033
16627TIP3    H171372   4.646   1.240  16.341  0.7954 -0.0383  2.0356
16627TIP3    H271373   4.750   1.132  16.331  0.9558  0.3065 -0.8323
16628TIP3   OH271374   0.011   0.581   5.334  0.3784  0.0752 -0.3313
16628TIP3    H171375  -0.025   0.617   5.415  0.5258  0.3406 -0.3840
16628TIP3    H271376   0.091   0.535   5.361  1.1372  1.2573 -0.4924
16629TIP3   OH271377   4.573   6.739   4.704 -0.0567 -0.1551  0.2154
16629TIP3    H171378   4.566   6.789   4.623 -2.7835 -1.2514 -0.3284
16629TIP3    H271379   4.508   6.669   4.696  0.5603 -1.1521  2.7630
16630TIP3   OH271380   1.297   3.995  16.004 -0.4976  0.2377  0.3086
16630TIP3    H171381   1.293   3.984  16.099  0.1497 -0.9269  0.2142
16630TIP3    H271382   1.388   3.978  15.982 -1.1138 -1.9035 -0.7869
16631TIP3   OH271383   1.687   6.617  11.329 -0.4654  0.1073  0.2583
16631TIP3    H171384   1.630   6.665  11.270 -0.0479  1.6259  1.0293
16631TIP3    H271385   1.763   6.595  11.276 -1.5354 -1.5531 -0.6579
16632TIP3   OH271386   1.474   0.634  14.068  0.2243 -0.2150  0.2024
16632TIP3    H171387   1.379   0.634  14.083  0.0272  2.9402 -0.4332
16632TIP3    H271388   1.483   0.640  13.973  1.0796 -0.5457  0.2551
16633TIP3   OH271389   5.364   2.336   5.321  0.7956 -0.3354 -0.6105
16633TIP3    H171390   5.416   2.358   5.244  0.1150  0.0847 -0.9573
16633TIP3    H271391   5.296   2.403   5.325  0.5030 -0.6550  0.0535
16634TIP3   OH271392   0.861   6.105  13.798 -0.1452 -0.4850 -0.3282
16634TIP3    H171393   0.796   6.174  13.814 -0.5108 -1.0432  0.7471
16634TIP3    H271394   0.899   6.126  13.713  0.1912  1.3983  0.2302
16635TIP3   OH271395   0.891   5.185  16.003  0.5069 -0.3911 -0.3134
16635TIP3    H171396   0.953   5.125  15.963  1.0475 -0.5909  0.7692
16635TIP3    H271397   0.945   5.255  16.040  0.0868 -0.4621  0.4759
16636TIP3   OH271398   1.952   6.622  16.242 -0.1935  0.5783  0.0973
16636TIP3    H171399   1.890   6.563  16.285  1.2498 -0.0552  1.4091
16636TIP3    H271400   1.993   6.670  16.313 -0.7554  2.6415 -0.9139
16637TIP3   OH271401   1.131   3.865   3.920  0.1429  0.5540 -0.4115
16637TIP3    H171402   1.096   3.908   3.997  0.4062  1.2369 -0.6654
16637TIP3    H271403   1.225   3.885   3.921  1.1933 -3.4119  1.7137
16638TIP3   OH271404   0.459   2.538  10.728  0.3706  0.0977  0.2129
16638TIP3    H171405   0.496   2.618  10.690  1.2337 -0.3616  0.0499
16638TIP3    H271406   0.507   2.527  10.811 -0.7998  0.5546  0.9830
16639TIP3   OH271407   4.281   5.964   4.687  0.6846 -0.3492  0.3276
16639TIP3    H171408   4.303   5.947   4.595  1.3583 -0.4177  0.4996
16639TIP3    H271409   4.356   6.013   4.721  0.7158 -0.8513  1.0067
16640TIP3   OH271410   1.470   6.623  13.377  0.3295  0.0704  0.6778
16640TIP3    H171411   1.455   6.621  13.472 -0.7337 -2.0967  0.5295
16640TIP3    H271412   1.457   6.533  13.349 -0.7084  0.8858 -1.7341
16641TIP3   OH271413   1.407   3.785   4.777  0.4017  0.2203  0.2107
16641TIP3    H171414   1.391   3.809   4.686 -0.5088  0.3104  0.3918
16641TIP3    H271415   1.467   3.710   4.771 -0.0094 -0.0649 -0.4796
16642TIP3   OH271416   6.085   2.960  16.502 -0.3224 -0.4158 -0.0728
16642TIP3    H171417   6.048   2.957  16.590 -0.0173 -1.5730  0.0293
16642TIP3    H271418   6.144   2.885  16.498  0.9262  0.5730 -0.7254
16643TIP3   OH271419   6.620   0.644   3.228  0.4862  0.2905  0.2619
16643TIP3    H171420   6.705   0.615   3.196  0.2813  0.0239 -0.0467
16643TIP3    H271421   6.596   0.718   3.171  0.5191  0.3797  0.3622
16644TIP3   OH271422   6.467   3.374   5.783  0.1877  0.0032 -0.2667
16644TIP3    H171423   6.505   3.291   5.754 -2.5412 -1.6056  0.5031
16644TIP3    H271424   6.470   3.370   5.878  1.4555  1.5636 -0.1907
16645TIP3   OH271425   2.462   5.980   0.017  0.1623 -0.2752 -0.1859
16645TIP3    H171426   2.478   6.022   0.102 -0.7789 -1.5922  0.6906
16645TIP3    H271427   2.391   5.919   0.035 -0.1865 -0.4383 -1.9968
16646TIP3   OH271428   5.237   1.226   3.811  0.2041  0.0362 -0.0731
16646TIP3    H171429   5.155   1.241   3.764  2.5442  1.1725 -4.2734
16646TIP3    H271430   5.276   1.312   3.821  1.8630 -0.6551 -0.1990
16647TIP3   OH271431   3.268   6.646  13.000 -0.0139 -0.1933  0.4739
16647TIP3    H171432   3.290   6.639  12.907 -0.2875 -1.5117  0.4866
16647TIP3    H271433   3.300   6.732  13.026  0.8122 -0.1399 -0.6403
16648TIP3   OH271434   1.770   1.658  15.791 -0.3493  0.0426 -0.6881
16648TIP3    H171435   1.752   1.596  15.719 -0.4883  0.5745 -1.1160
16648TIP3    H271436   1.734   1.741  15.760 -0.2223  0.3231 -0.0829
16649TIP3   OH271437   3.171   2.076   5.645 -0.3616  0.1649 -0.3440
16649TIP3    H171438   3.184   2.143   5.712 -0.4151 -0.4346  0.2682
16649TIP3    H271439   3.257   2.064   5.606 -0.1062 -0.2534  0.3465
16650TIP3   OH271440   0.117   3.291   2.780 -0.3465  0.4347 -0.2635
16650TIP3    H171441   0.034   3.272   2.737  0.8406  0.0623 -2.5540
16650TIP3    H271442   0.156   3.361   2.727  0.3043  1.4314  1.4648
16651TIP3   OH271443   6.051   1.889   6.372  0.1523  0.2245 -0.0554
16651TIP3    H171444   6.051   1.888   6.276  0.3504  0.9825 -0.0723
16651TIP3    H271445   5.959   1.883   6.396  0.1803 -1.7033 -0.2384
16652TIP3   OH271446   3.396   1.608   0.459 -0.1491 -0.6085  0.0240
16652TIP3    H171447   3.346   1.634   0.382 -2.4817 -0.1612  1.6076
16652TIP3    H271448   3.457   1.680   0.474 -0.5890 -0.0971 -0.6376
16653TIP3   OH271449   4.148   0.129   0.989 -0.2825 -0.0255 -0.1703
16653TIP3    H171450   4.068   0.118   0.938 -0.0365 -0.0650 -0.5530
16653TIP3    H271451   4.149   0.222   1.013  0.5016  0.4287 -1.7906
16654TIP3   OH271452   3.415   0.501   0.683 -0.6586  0.2733  0.6338
16654TIP3    H171453   3.488   0.536   0.733 -0.0877  2.1875 -1.4394
16654TIP3    H271454   3.378   0.576   0.637 -1.9925 -1.1662 -0.7745
16655TIP3   OH271455   6.442   2.427   3.901 -0.6351 -0.8908  0.1822
16655TIP3    H171456   6.525   2.474   3.896 -0.2513 -1.6321 -0.6848
16655TIP3    H271457   6.466   2.335   3.892 -1.2134 -1.4480  3.3191
16656TIP3   OH271458   4.984   3.458   0.114  0.1024  0.1517 -0.6737
16656TIP3    H171459   4.966   3.364   0.108 -0.0487  0.1786 -0.6535
16656TIP3    H271460   4.905   3.500   0.079  0.1701  0.2708 -0.6839
16657TIP3   OH271461   1.609   1.683  13.562 -0.2262  0.3185  0.1271
16657TIP3    H171462   1.547   1.622  13.600  1.1435 -1.0026  0.3492
16657TIP3    H271463   1.664   1.710  13.635  2.3291 -2.1243 -0.7076
16658TIP3   OH271464   3.307   2.913  13.354  0.1717 -0.1759  0.0564
16658TIP3    H171465   3.309   2.818  13.357 -0.8868 -0.1953  1.6199
16658TIP3    H271466   3.273   2.935  13.267 -1.2091 -1.2924  0.2794
16659TIP3   OH271467   6.264   5.553  11.598  0.9240 -0.0372 -0.1096
16659TIP3    H171468   6.254   5.462  11.627  0.9158 -0.4955 -1.4682
16659TIP3    H271469   6.339   5.551  11.539 -1.0481  0.1422 -2.7920
16660TIP3   OH271470   5.195   4.866  11.539 -0.6905  0.5918  0.1228
16660TIP3    H171471   5.248   4.824  11.607  0.4041  1.3171 -0.2802
16660TIP3    H271472   5.257   4.910  11.482 -1.4047 -1.5954 -2.5310
16661TIP3   OH271473   6.181   4.216  11.135  0.3172 -0.0741 -0.7164
16661TIP3    H171474   6.258   4.169  11.102  0.0995 -1.2445  0.3926
16661TIP3    H271475   6.135   4.245  11.056  1.9948  0.8760 -1.4170
16662TIP3   OH271476   6.168   5.681  15.230  0.5945 -0.0377  0.3219
16662TIP3    H171477   6.193   5.692  15.138 -0.6947 -1.7029 -0.2855
16662TIP3    H271478   6.115   5.601  15.231  0.9287 -0.3024  2.5991
16663TIP3   OH271479   0.583   4.677   2.883 -0.2786 -0.6543 -0.0813
16663TIP3    H171480   0.518   4.650   2.817 -0.7686  1.7016 -0.6556
16663TIP3    H271481   0.663   4.691   2.833 -0.2754 -0.2028  0.0481
16664TIP3   OH271482   5.993   4.054   2.795 -0.2123  0.0397 -0.1676
16664TIP3    H171483   6.053   4.048   2.869 -1.6631 -0.3461  1.0205
16664TIP3    H271484   5.927   3.987   2.811 -2.6895  2.3634  0.2368
16665TIP3   OH271485   3.114   0.978   3.812 -0.0665 -0.6395  0.0229
16665TIP3    H171486   3.060   1.031   3.753  0.5474 -0.2310 -0.1826
16665TIP3    H271487   3.064   0.976   3.894 -0.9367 -1.2439 -0.5179
16666TIP3   OH271488   0.245   5.354   1.405  0.0445  0.2056  0.4451
16666TIP3    H171489   0.285   5.441   1.399 -0.3795  0.3807  0.1203
16666TIP3    H271490   0.217   5.346   1.496  1.2282 -0.1057  0.7988
16667TIP3   OH271491   5.965   3.284   0.645 -0.1269  0.0557 -0.0535
16667TIP3    H171492   5.885   3.247   0.609 -0.8174 -0.6396  2.0748
16667TIP3    H271493   5.959   3.378   0.626 -0.7944 -0.1802 -1.0565
16668TIP3   OH271494   1.507   4.319  12.535 -0.5603 -0.2707  0.4257
16668TIP3    H171495   1.437   4.279  12.586 -1.0357 -2.0602 -1.4816
16668TIP3    H271496   1.569   4.247  12.518  0.9161  0.8865  0.6786
16669TIP3   OH271497   5.883   5.875  10.940 -0.0682  0.6658 -0.2543
16669TIP3    H171498   5.836   5.829  10.871 -0.6605 -0.8170  1.0947
16669TIP3    H271499   5.815   5.922  10.988 -0.0769 -0.6470  1.0677
16670TIP3   OH271500   3.232   3.431  11.473 -0.0775 -0.5633  0.3039
16670TIP3    H171501   3.186   3.349  11.459  0.7131 -1.0685  0.6222
16670TIP3    H271502   3.214   3.482  11.394  0.0346 -1.3295 -0.2232
16671TIP3   OH271503   5.733   0.157   2.853 -0.8924  0.6039 -0.0966
16671TIP3    H171504   5.658   0.205   2.888 -1.5654 -0.5193  0.0553
16671TIP3    H271505   5.697   0.107   2.779 -0.1860  0.4379 -0.3366
16672TIP3   OH271506   3.114   4.630   3.940  0.0099  0.2564 -0.9558
16672TIP3    H171507   3.024   4.658   3.921 -0.7031 -0.9849  0.3330
16672TIP3    H271508   3.125   4.548   3.891 -0.0328 -0.2392 -0.1747
16673TIP3   OH271509   2.357   2.159  12.810 -0.0802  0.3273 -0.0562
16673TIP3    H171510   2.445   2.196  12.820 -0.6946  1.8431  0.0009
16673TIP3    H271511   2.314   2.178  12.893  0.3965 -2.9900  1.0723
16674TIP3   OH271512   2.656   2.154  12.201  0.6364  0.5992 -1.1354
16674TIP3    H171513   2.699   2.179  12.119  1.0778 -0.0039 -1.0974
16674TIP3    H271514   2.707   2.079  12.233 -0.3037  0.0146 -0.9597
16675TIP3   OH271515   2.708   3.719  11.033  0.1789 -0.5751  0.2630
16675TIP3    H171516   2.699   3.638  10.983 -1.7484 -1.1561  1.4711
16675TIP3    H271517   2.654   3.782  10.985  1.3629 -0.0578 -0.4533
16676TIP3   OH271518   5.296   6.262   4.488 -0.2892 -1.0104  0.4332
16676TIP3    H171519   5.356   6.336   4.484  0.3219 -1.4071  1.6399
16676TIP3    H271520   5.322   6.214   4.567 -4.4269  0.7643  3.2015
16677TIP3   OH271521   2.227   2.897  16.250  0.2447  0.2466  0.0502
16677TIP3    H171522   2.288   2.938  16.189  0.4034  0.6383  0.4708
16677TIP3    H271523   2.270   2.902  16.335 -0.6605  1.1619  0.4837
16678TIP3   OH271524   0.831   4.853  13.816  0.0788 -0.0575 -0.3105
16678TIP3    H171525   0.854   4.805  13.736  0.5786  0.3893 -0.4436
16678TIP3    H271526   0.752   4.903  13.792 -0.9938 -1.4740  0.0990
16679TIP3   OH271527   2.577   2.584  16.256 -0.0535 -0.0403 -0.3713
16679TIP3    H171528   2.595   2.521  16.326 -1.1115  1.2909  1.1593
16679TIP3    H271529   2.663   2.602  16.217  0.5913 -0.6315  0.7403
16680TIP3   OH271530   0.409   2.253   2.119  0.5269 -0.4929 -0.0013
16680TIP3    H171531   0.406   2.224   2.028 -1.4201 -0.1807 -0.0788
16680TIP3    H271532   0.317   2.261   2.145  1.0366  0.0257  1.8047
16681TIP3   OH271533   2.667   0.643   4.915  0.2868  0.1449 -0.6293
16681TIP3    H171534   2.579   0.679   4.901  0.0925  0.1397  0.4813
16681TIP3    H271535   2.708   0.703   4.976 -0.6388 -2.2744  2.6521
16682TIP3   OH271536   6.689   4.050  11.643  0.2576 -0.2127 -0.6386
16682TIP3    H171537   6.781   4.051  11.669 -0.3705  0.8563  1.8120
16682TIP3    H271538   6.672   3.959  11.619  1.3493 -1.0283  1.4247
16683TIP3   OH271539   6.499   0.103  13.692 -0.2331 -0.6286 -0.1563
16683TIP3    H171540   6.516   0.055  13.773  1.5928  0.3454  0.0935
16683TIP3    H271541   6.526   0.044  13.622 -0.4917 -0.9461  0.0128
16684TIP3   OH271542   1.725   6.060   0.420 -0.0173 -0.3544 -0.0149
16684TIP3    H171543   1.648   6.011   0.449 -0.4722 -0.5231 -1.4324
16684TIP3    H271544   1.719   6.144   0.467 -0.2783 -0.8985  0.9553
16685TIP3   OH271545   3.732   5.585  16.041  0.2787 -0.5005 -0.1873
16685TIP3    H171546   3.680   5.526  15.986 -2.2258 -0.2466  1.6964
16685TIP3    H271547   3.704   5.673  16.015 -0.7317 -0.3714  1.2013
16686TIP3   OH271548   2.941   6.597   2.313 -0.3425 -0.1434  0.2643
16686TIP3    H171549   3.006   6.537   2.277 -1.5094 -1.2714 -0.0521
16686TIP3    H271550   2.903   6.640   2.236  0.1386  0.6543  0.4587
16687TIP3   OH271551   4.465   6.538  12.162  0.0749 -0.9882 -0.5595
16687TIP3    H171552   4.388   6.594  12.170 -0.7902 -2.0290 -1.2333
16687TIP3    H271553   4.485   6.511  12.251 -0.4042 -0.7750 -0.3862
16688TIP3   OH271554   2.174   1.925   4.135  0.4767  0.0659  0.2268
16688TIP3    H171555   2.227   1.929   4.055 -0.1770 -0.6923 -0.2630
16688TIP3    H271556   2.100   1.869   4.111 -0.1360  0.4692  1.1298
16689TIP3   OH271557   6.452   1.705  15.718 -0.0683 -0.0380 -0.2687
16689TIP3    H171558   6.473   1.612  15.723 -2.6035 -0.7245 -0.9864
16689TIP3    H271559   6.533   1.749  15.745  1.9482 -2.3545 -2.0024
16690TIP3   OH271560   1.355   4.603   1.415  0.7224  0.1930  0.1180
16690TIP3    H171561   1.445   4.626   1.391 -0.1294  2.9186 -0.7950
16690TIP3    H271562   1.331   4.535   1.352  2.0614 -0.4369  0.2446
16691TIP3   OH271563   4.709   4.947   4.287 -0.5795  0.0240 -0.3073
16691TIP3    H171564   4.679   4.894   4.361 -0.7166  2.1341  1.2493
16691TIP3    H271565   4.786   4.901   4.255 -1.2447 -1.6256  0.2981
16692TIP3   OH271566   5.687   0.935   4.148  0.2740 -0.1978 -0.2262
16692TIP3    H171567   5.638   0.929   4.066 -0.4876 -1.8464  0.3215
16692TIP3    H271568   5.622   0.921   4.216  0.9629  0.8214  0.6724
16693TIP3   OH271569   0.254   3.630   1.195 -0.0024 -0.1992 -0.3221
16693TIP3    H171570   0.336   3.589   1.225  0.1475 -1.0851 -1.8111
16693TIP3    H271571   0.278   3.676   1.114 -0.8376  0.0865 -0.4182
16694TIP3   OH271572   2.495   6.689   2.329 -0.4351 -0.1725 -0.3807
16694TIP3    H171573   2.510   6.671   2.237 -0.8442 -0.0176 -0.4804
16694TIP3    H271574   2.415   6.741   2.331  0.7129  1.7082 -0.1100
16695TIP3   OH271575   2.281   2.807  11.932 -0.6004  0.0576 -0.2677
16695TIP3    H171576   2.300   2.821  11.839  0.0323 -2.5609 -0.5932
16695TIP3    H271577   2.206   2.748  11.933 -1.2741  0.8794  0.9407
16696TIP3   OH271578   5.115   0.845  15.887  0.4220 -0.2227  0.5168
16696TIP3    H171579   5.124   0.774  15.951  0.3040 -0.3460  0.3992
16696TIP3    H271580   5.073   0.803  15.812  1.9087 -0.4539 -0.2357
16697TIP3   OH271581   5.267   2.597  15.417  0.3184 -0.2338 -0.2770
16697TIP3    H171582   5.308   2.534  15.357  1.0407 -0.6902  0.6823
16697TIP3    H271583   5.297   2.683  15.386  1.0011 -0.4914 -0.3459
16698TIP3   OH271584   1.736   6.317   3.937 -0.0060 -0.0967  0.7171
16698TIP3    H171585   1.645   6.287   3.925 -0.0707  0.6965 -1.2309
16698TIP3    H271586   1.787   6.261   3.878  0.6354  0.0789  1.1033
16699TIP3   OH271587   3.652   3.721  16.918 -0.6046  0.0496 -0.7101
16699TIP3    H171588   3.606   3.666  16.982  0.6649 -2.0712 -1.5227
16699TIP3    H271589   3.708   3.778  16.971 -0.1062 -1.1714  0.1139
16700TIP3   OH271590   0.489   1.448   2.556 -0.0752 -0.5070  0.1012
16700TIP3    H171591   0.400   1.425   2.585  0.0541 -0.4248  0.5738
16700TIP3    H271592   0.479   1.533   2.513 -0.0642  0.0130  1.0907
16701TIP3   OH271593   1.057   0.811  16.705 -0.1125  0.0307 -0.1024
16701TIP3    H171594   1.122   0.750  16.670  0.5510  0.2087  0.7919
16701TIP3    H271595   0.982   0.803  16.645  0.3307 -0.9394 -0.5488
16702TIP3   OH271596   3.281   1.104  13.466 -0.2515  0.0415 -0.2547
16702TIP3    H171597   3.233   1.076  13.389 -0.5350  0.3828 -0.2077
16702TIP3    H271598   3.353   1.158  13.432 -0.2856  0.0643 -0.2909
16703TIP3   OH271599   3.366   0.195   5.012  0.0100 -0.3218  0.2731
16703TIP3    H171600   3.294   0.232   5.063 -2.3687  0.2010 -3.0789
16703TIP3    H271601   3.432   0.264   5.009 -1.3434  1.0005 -0.1623
16704TIP3   OH271602   3.759   3.557  13.757  0.5899 -0.6803 -0.3613
16704TIP3    H171603   3.851   3.547  13.736  0.4395 -1.1304 -0.8424
16704TIP3    H271604   3.738   3.648  13.734  0.4997 -1.0779 -1.9637
16705TIP3   OH271605   5.657   3.562  13.808  0.5939  0.2687  0.4426
16705TIP3    H171606   5.621   3.618  13.739 -1.6417  1.2685  2.2762
16705TIP3    H271607   5.579   3.525  13.851  1.9602 -2.1178  1.0190
16706TIP3   OH271608   0.888   3.572  14.318 -0.5501 -0.3935 -0.0773
16706TIP3    H171609   0.931   3.497  14.360  1.0220  0.7748  0.5109
16706TIP3    H271610   0.862   3.628  14.391 -0.7504  0.1375 -0.5499
16707TIP3   OH271611   5.134   1.909   1.551 -0.6831 -0.2499  0.0571
16707TIP3    H171612   5.138   1.850   1.627 -2.1973  1.1631  1.3320
16707TIP3    H271613   5.204   1.880   1.494 -1.1000 -3.0122  0.8019
16708TIP3   OH271614   2.372   1.811   3.935 -0.6271  0.5822  0.3344
16708TIP3    H171615   2.408   1.753   3.868 -0.2142  0.6171  0.5229
16708TIP3    H271616   2.419   1.786   4.015 -0.8880  0.7587  0.5428
16709TIP3   OH271617   2.120   4.687  14.666 -0.0392 -0.1643 -0.0681
16709TIP3    H171618   2.061   4.675  14.740 -0.7249 -2.1309 -0.8695
16709TIP3    H271619   2.077   4.644  14.593  1.9564 -0.8733 -0.9182
16710TIP3   OH271620   2.655   5.328  14.066  0.3047  0.1282  0.3568
16710TIP3    H171621   2.646   5.367  14.153  2.6991  0.5556  0.4634
16710TIP3    H271622   2.603   5.385  14.009  0.2756  0.9648  1.1978
16711TIP3   OH271623   1.215   5.243   1.759 -0.1440 -0.4070  0.4770
16711TIP3    H171624   1.179   5.302   1.826 -0.1629 -1.3290  1.2881
16711TIP3    H271625   1.285   5.294   1.718 -0.6788  0.4713  0.6225
16712TIP3   OH271626   1.394   2.224  16.015  0.2795 -0.0814  0.2619
16712TIP3    H171627   1.342   2.184  16.085 -2.5533 -0.3018 -1.8295
16712TIP3    H271628   1.470   2.261  16.061  0.2984 -3.0472  2.9990
16713TIP3   OH271629   2.573   5.120  10.870 -0.4121  0.1587  0.0287
16713TIP3    H171630   2.643   5.124  10.805 -0.7813 -0.5291 -0.4235
16713TIP3    H271631   2.496   5.157  10.825 -0.6973 -0.4241  0.0268
16714TIP3   OH271632   3.109   3.079  13.471  0.3004 -0.0208  0.2787
16714TIP3    H171633   3.120   3.165  13.431  1.0812  0.3398  1.2223
16714TIP3    H271634   3.181   3.026  13.437  0.9344  0.2711  1.1419
16715TIP3   OH271635   1.115   3.385  16.173 -0.0167  0.8101  0.1053
16715TIP3    H171636   1.143   3.475  16.161  1.5244  0.6512  2.0784
16715TIP3    H271637   1.174   3.334  16.117  0.6678  0.8397  0.7999
16716TIP3   OH271638   0.999   4.550   0.784  0.6194  0.0171  0.0933
16716TIP3    H171639   0.995   4.478   0.721  0.6954  1.0322 -1.1026
16716TIP3    H271640   0.920   4.601   0.768  1.2770  1.0037 -0.0720
16717TIP3   OH271641   1.251   5.985   0.687  0.3472  0.2798  0.1289
16717TIP3    H171642   1.332   5.980   0.736  0.0584 -0.5455  0.5395
16717TIP3    H271643   1.197   5.913   0.721 -0.2937  0.3963 -0.5989
16718TIP3   OH271644   2.076   6.041  11.359  0.7805 -0.3614  0.5764
16718TIP3    H171645   2.112   5.966  11.311 -0.0460 -2.4777  3.0041
16718TIP3    H271646   2.044   6.100  11.291  3.4837 -1.1126 -1.5114
16719TIP3   OH271647   6.565   6.171   4.074  0.2447 -0.0180  0.0074
16719TIP3    H171648   6.579   6.106   4.143  0.9399  0.2031  0.0799
16719TIP3    H271649   6.475   6.155   4.044 -0.4072  0.4753  1.5837
16720TIP3   OH271650   6.215   4.194   0.089 -0.3217 -0.2788 -0.0325
16720TIP3    H171651   6.168   4.111   0.086 -3.4546  1.3602 -0.3058
16720TIP3    H271652   6.174   4.242   0.162  2.5348  0.4757  1.2149
16721TIP3   OH271653   3.475   4.016   4.322  0.1854  0.8885  0.2384
16721TIP3    H171654   3.553   4.063   4.292  0.8387 -1.0113 -1.2457
16721TIP3    H271655   3.508   3.953   4.386 -0.2440  0.5451  0.1235
16722TIP3   OH271656   4.426   0.534   0.391 -0.1384 -0.3111  0.0450
16722TIP3    H171657   4.374   0.552   0.312  0.4321 -3.6581 -1.2691
16722TIP3    H271658   4.503   0.591   0.382 -0.8563  0.5517 -0.9462
16723TIP3   OH271659   6.483   1.597   3.629  0.1256 -0.4198 -0.3591
16723TIP3    H171660   6.564   1.640   3.658 -1.1131  0.9278  1.2845
16723TIP3    H271661   6.479   1.517   3.681 -1.0070  0.9625  1.8903
16724TIP3   OH271662   2.939   3.961  13.805 -0.0723 -0.3140 -0.9173
16724TIP3    H171663   2.939   3.880  13.856 -0.3868 -0.1076 -0.5884
16724TIP3    H271664   2.849   3.972  13.777 -1.0046  1.9367  2.2909
16725TIP3   OH271665   4.457   0.593  12.566  0.1969 -0.5161  0.3060
16725TIP3    H171666   4.385   0.654  12.576  1.5197  1.2226 -0.2408
16725TIP3    H271667   4.437   0.546  12.485  0.6450  1.4200 -0.9970
16726TIP3   OH271668   3.125   5.124  12.355 -0.1220 -0.3281 -0.0441
16726TIP3    H171669   3.049   5.088  12.309  0.9553  0.1981 -2.3815
16726TIP3    H271670   3.141   5.208  12.312  1.1528  0.0614  1.1192
16727TIP3   OH271671   0.911   1.438  10.655  0.2330 -0.3687  0.2125
16727TIP3    H171672   0.870   1.519  10.625  0.2615 -1.0711 -1.8905
16727TIP3    H271673   0.840   1.390  10.698 -0.6128 -0.5446 -1.2971
16728TIP3   OH271674   5.195   4.275  12.779 -0.2838  0.4425  0.4369
16728TIP3    H171675   5.195   4.370  12.762  1.8127  0.5203  0.6489
16728TIP3    H271676   5.188   4.236  12.692 -1.3709  0.7796  0.3641
16729TIP3   OH271677   3.117   6.748   2.465 -0.6331 -0.3964  0.4687
16729TIP3    H171678   3.106   6.837   2.430 -0.5982 -0.1783  1.0047
16729TIP3    H271679   3.072   6.692   2.402 -0.2654 -0.0488 -0.1152
16730TIP3   OH271680   5.430   0.704  17.283  0.0841 -0.6595 -0.4299
16730TIP3    H171681   5.490   0.777  17.300 -1.2156  0.4669 -0.4158
16730TIP3    H271682   5.389   0.727  17.199 -0.2411 -1.4581 -0.4936
16731TIP3   OH271683   5.840   2.791  11.880 -0.4052 -0.0033  0.4850
16731TIP3    H171684   5.753   2.754  11.866 -0.5629 -0.7716  3.0037
16731TIP3    H271685   5.839   2.821  11.971  2.1877 -0.8099  0.8759
16732TIP3   OH271686   0.965   1.183   4.093 -0.1864  0.0341  0.5355
16732TIP3    H171687   1.059   1.197   4.083  0.3540 -1.9194  2.2382
16732TIP3    H271688   0.928   1.271   4.096  1.2772  0.8746 -2.1200
16733TIP3   OH271689   1.741   3.052   1.871 -0.1312  0.2133  0.3458
16733TIP3    H171690   1.699   2.966   1.864  0.4454 -0.1301  0.9260
16733TIP3    H271691   1.671   3.115   1.853 -0.5648 -0.3764 -0.0745
16734TIP3   OH271692   0.949   0.081  11.887  0.7529  0.2930  0.1516
16734TIP3    H171693   0.881   0.037  11.937  1.5830 -0.0033  1.0666
16734TIP3    H271694   0.903   0.127  11.817 -0.5818  1.5467  1.7725
16735TIP3   OH271695   2.352   4.614  11.264 -0.6589  0.1525  0.1188
16735TIP3    H171696   2.394   4.620  11.349 -0.2410  0.0509 -0.0807
16735TIP3    H271697   2.336   4.705  11.239 -2.0779  0.1696  0.9325
16736TIP3   OH271698   0.004   3.667  12.377  0.1599  0.4197  0.1297
16736TIP3    H171699  -0.072   3.689  12.431 -1.6487 -2.2603 -1.0708
16736TIP3    H271700   0.066   3.628  12.438 -0.1874  1.0384  0.8880
16737TIP3   OH271701   2.419   5.303   3.967 -0.0184  0.1894 -0.7234
16737TIP3    H171702   2.337   5.256   3.959  0.2437 -0.0973 -1.8103
16737TIP3    H271703   2.461   5.295   3.882  0.6130  1.3175 -0.5512
16738TIP3   OH271704   0.948   6.729  11.615 -0.1894  0.2650  0.1956
16738TIP3    H171705   0.960   6.646  11.661 -0.4754  1.4792  2.6465
16738TIP3    H271706   0.894   6.708  11.539  0.9101 -1.9886 -0.0233
16739TIP3   OH271707   1.422   5.097   2.403 -0.7433 -0.3268 -0.4075
16739TIP3    H171708   1.338   5.126   2.369 -1.1874  0.0662  0.9597
16739TIP3    H271709   1.401   5.021   2.458 -0.2424 -0.0737  0.1453
16740TIP3   OH271710   1.124   6.016  11.202  0.0168  0.3999  0.5747
16740TIP3    H171711   1.035   6.023  11.167 -0.2608  1.9947  1.5146
16740TIP3    H271712   1.124   5.933  11.250 -1.0288  0.4733  0.7325
16741TIP3   OH271713   1.024   6.173  12.046 -0.2100  0.5651 -0.0324
16741TIP3    H171714   0.998   6.224  12.123 -0.7475 -0.2415  0.3284
16741TIP3    H271715   0.946   6.124  12.022 -0.2618  1.3230 -1.5326
16742TIP3   OH271716   0.975   2.462  10.896 -0.1897 -0.0086  0.0568
16742TIP3    H171717   1.009   2.410  10.823 -0.7473 -1.2823  0.6624
16742TIP3    H271718   1.030   2.540  10.898  1.6491 -1.2516  0.0107
16743TIP3   OH271719   1.191   3.614  12.713  0.0843 -0.1410  0.0417
16743TIP3    H171720   1.118   3.636  12.771  0.9255 -1.6782  1.7628
16743TIP3    H271721   1.160   3.539  12.663 -0.2053  0.4539 -0.7025
16744TIP3   OH271722   1.913   4.719   1.579 -0.1655  0.5398 -0.4203
16744TIP3    H171723   1.883   4.650   1.520 -0.3698  1.5626 -1.5536
16744TIP3    H271724   1.969   4.674   1.642 -0.1590 -0.6331 -1.2346
16745TIP3   OH271725   4.028   1.874   4.599  0.0394  0.1452  0.2009
16745TIP3    H171726   4.112   1.917   4.611  0.8490 -1.4159  0.2479
16745TIP3    H271727   3.983   1.928   4.533  1.7574  0.0618 -1.0985
16746TIP3   OH271728   1.313   5.762  10.509 -0.0597  0.5130 -0.3030
16746TIP3    H171729   1.379   5.695  10.489 -1.8545 -1.2966 -0.4888
16746TIP3    H271730   1.258   5.766  10.431 -1.6039  0.1751  0.7171
16747TIP3   OH271731   1.594   1.832  16.457 -0.2877 -0.1984  0.7097
16747TIP3    H171732   1.600   1.743  16.424 -0.7561  0.7573 -2.1831
16747TIP3    H271733   1.668   1.841  16.517  1.3114 -1.7663 -0.9215
16748TIP3   OH271734   4.366   5.504   3.903 -0.1509 -0.3954 -0.0441
16748TIP3    H171735   4.405   5.583   3.867  2.4411 -1.5355  0.0534
16748TIP3    H271736   4.426   5.477   3.973 -0.9697 -2.4164 -0.0396
16749TIP3   OH271737   0.533   2.748  11.534  0.2445  0.0351 -0.5796
16749TIP3    H171738   0.510   2.664  11.573  1.3919  0.4869  1.2051
16749TIP3    H271739   0.476   2.811  11.577  0.6073  0.3794 -0.5934
16750TIP3   OH271740   1.765   0.035   3.027 -0.1290  0.3117 -0.2314
16750TIP3    H171741   1.726  -0.043   3.066  1.1135  0.1043  0.6482
16750TIP3    H271742   1.768   0.017   2.934 -0.4788 -0.4072 -0.1059
16751TIP3   OH271743   5.899   6.629   0.105  0.7290  0.0984 -0.4393
16751TIP3    H171744   5.962   6.647   0.174  0.2713 -1.1811  0.3440
16751TIP3    H271745   5.952   6.611   0.028  1.2611  0.8131 -0.2480
16752TIP3   OH271746   0.030   6.528  14.620 -0.3548  0.1546 -0.5775
16752TIP3    H171747   0.087   6.605  14.618 -0.7995  0.5909  1.2363
16752TIP3    H271748   0.044   6.486  14.535  2.2941  0.4889 -0.4121
16753TIP3   OH271749   6.036   1.629  11.872 -0.0782 -0.4362  0.3086
16753TIP3    H171750   6.117   1.628  11.821  0.2807 -1.4843  0.8699
16753TIP3    H271751   6.020   1.722  11.889  0.8503 -0.1940 -0.0521
16754TIP3   OH271752   0.310   0.346   2.192 -0.4355  0.6183 -0.4492
16754TIP3    H171753   0.364   0.337   2.113 -0.4887  0.4965 -0.4720
16754TIP3    H271754   0.227   0.304   2.168 -0.9544  1.7945 -0.8149
16755TIP3   OH271755   5.598   3.019  11.647 -0.1694 -0.2250 -0.4851
16755TIP3    H171756   5.670   3.083  11.650  0.3621 -0.8237 -0.1445
16755TIP3    H271757   5.527   3.060  11.695  0.2075  0.0678 -0.1711
16756TIP3   OH271758   0.497   2.707   0.184  0.2001 -0.5269  0.0401
16756TIP3    H171759   0.593   2.701   0.186  0.3064  0.8747 -0.0900
16756TIP3    H271760   0.468   2.623   0.219  1.4838 -0.7644  0.6087
16757TIP3   OH271761   0.783   0.129  11.658 -0.2083  0.0179 -0.0544
16757TIP3    H171762   0.766   0.035  11.655 -0.5457  0.0496  0.6802
16757TIP3    H271763   0.746   0.163  11.577  1.6595 -0.7448 -1.2921
16758TIP3   OH271764   5.493   3.178  16.193 -0.1608  0.3983  0.7168
16758TIP3    H171765   5.402   3.179  16.223  0.0374  3.4106  1.5871
16758TIP3    H271766   5.543   3.214  16.267  1.4186  0.8623 -0.5179
16759TIP3   OH271767   6.638   4.132  14.927  0.0735 -0.2738 -0.1870
16759TIP3    H171768   6.597   4.063  14.875  1.3010 -0.6015 -0.7506
16759TIP3    H271769   6.686   4.185  14.864 -3.0662  2.9005 -0.2571
16760TIP3   OH271770   2.708   1.675   6.290  0.0257  0.1352  0.1618
16760TIP3    H171771   2.773   1.605   6.291  0.5063  0.5619  1.6711
16760TIP3    H271772   2.639   1.643   6.232  0.7643 -1.0899 -0.0773
16761TIP3   OH271773   2.922   5.980  12.367  0.4469  0.4629  0.1905
16761TIP3    H171774   2.926   6.039  12.292  0.4165 -2.3425 -2.2109
16761TIP3    H271775   2.836   5.938  12.359  1.0237 -0.9126  0.9421
16762TIP3   OH271776   6.565   5.673   4.987  0.4999  0.2209  0.4400
16762TIP3    H171777   6.623   5.697   4.914 -0.2831  0.5275 -0.0934
16762TIP3    H271778   6.519   5.753   5.009  0.1959 -0.0469  0.7927
16763TIP3   OH271779   2.527   3.543   2.795 -0.8618 -0.2048  0.1911
16763TIP3    H171780   2.621   3.525   2.792 -0.5993  0.6229  1.9425
16763TIP3    H271781   2.502   3.528   2.887 -2.4944 -0.6374 -0.2832
16764TIP3   OH271782   2.770   4.270   2.553 -0.2594  0.4445  0.0152
16764TIP3    H171783   2.840   4.291   2.492 -0.2206 -1.7595 -0.7851
16764TIP3    H271784   2.809   4.281   2.640  0.8581 -0.0444 -0.4118
16765TIP3   OH271785   5.521   6.172   1.032 -0.2327 -0.3919 -0.1313
16765TIP3    H171786   5.432   6.206   1.030  0.2369  1.0369  1.0889
16765TIP3    H271787   5.543   6.158   0.940 -1.3840  0.1542 -0.5143
16766TIP3   OH271788   3.576   5.635   2.556 -0.4588 -0.2144 -0.3519
16766TIP3    H171789   3.670   5.620   2.543 -0.3528 -0.1383  0.2988
16766TIP3    H271790   3.570   5.727   2.583 -0.6561 -0.3780  0.1883
16767TIP3   OH271791   1.558   0.362  15.860  0.0564  0.6935  0.0108
16767TIP3    H171792   1.561   0.266  15.856 -0.2701  0.6987 -0.4093
16767TIP3    H271793   1.573   0.391  15.770 -4.2176  0.9087 -0.8023
16768TIP3   OH271794   6.105   2.742  13.919 -0.5865 -0.5054  0.4973
16768TIP3    H171795   6.115   2.737  13.824  0.0983 -0.5463  0.5655
16768TIP3    H271796   6.139   2.829  13.942 -1.0838 -0.3524  0.6662
16769TIP3   OH271797   1.711   3.567  13.972 -0.5782 -0.4445 -0.4221
16769TIP3    H171798   1.792   3.557  14.023 -1.1463 -0.0170  0.6018
16769TIP3    H271799   1.669   3.645  14.009 -2.2865 -1.6144  0.2363
16770TIP3   OH271800   4.328   6.207   5.688  0.2235 -0.0104 -0.2986
16770TIP3    H171801   4.421   6.185   5.686  0.3535  0.3356  1.0779
16770TIP3    H271802   4.325   6.298   5.717 -0.4653  0.7752 -2.5707
16771TIP3   OH271803   3.307   1.811   3.112  0.3418  0.2387  0.0464
16771TIP3    H171804   3.387   1.768   3.082 -0.0997 -0.6381  0.1044
16771TIP3    H271805   3.280   1.761   3.188  0.8413  1.7735  1.2855
16772TIP3   OH271806   6.323   2.306  13.330  0.0930 -0.0156  0.1959
16772TIP3    H171807   6.336   2.383  13.387 -1.2155  1.3875 -1.2960
16772TIP3    H271808   6.232   2.280  13.345 -0.4226  0.6670 -1.5277
16773TIP3   OH271809   0.872   5.905   4.204 -0.7854  0.8091 -0.6634
16773TIP3    H171810   0.894   5.813   4.187 -1.6006  0.6669 -0.9679
16773TIP3    H271811   0.809   5.928   4.137 -3.5134  0.4435  1.5768
16774TIP3   OH271812   1.582   4.716   0.416  0.3790  0.0509  0.2091
16774TIP3    H171813   1.660   4.754   0.456  1.9744 -1.0195 -1.6716
16774TIP3    H271814   1.600   4.718   0.322 -1.3299 -1.3379 -0.2073
16775TIP3   OH271815   0.801   0.495   4.039 -0.6765  0.2807  0.0985
16775TIP3    H171816   0.870   0.559   4.056 -0.7568  0.2719  0.4668
16775TIP3    H271817   0.755   0.486   4.122 -0.7079 -0.2123  0.0327
16776TIP3   OH271818   5.279   5.342   4.375 -0.7540  0.0119  0.0767
16776TIP3    H171819   5.198   5.319   4.422 -1.2628  0.0566 -0.7649
16776TIP3    H271820   5.283   5.281   4.302  0.5101 -0.6465  0.6639
16777TIP3   OH271821   2.790   1.443  11.302  0.4066  0.1575  0.0425
16777TIP3    H171822   2.733   1.505  11.256 -1.3309  0.1726  2.0550
16777TIP3    H271823   2.878   1.478  11.290 -0.4160  2.4828  0.2501
16778TIP3   OH271824   4.395   4.508   4.316  0.1455 -0.7310 -0.8836
16778TIP3    H171825   4.479   4.521   4.360  0.0250 -0.6333 -0.6808
16778TIP3    H271826   4.387   4.583   4.258 -0.6100  0.1996  0.3820
16779TIP3   OH271827   1.606   1.091   0.327  0.2991 -0.2809  0.2140
16779TIP3    H171828   1.512   1.073   0.317  0.0401  1.2597 -0.4889
16779TIP3    H271829   1.631   1.043   0.406 -0.9499 -1.1553  0.1143
16780TIP3   OH271830   6.313   2.746   1.073 -0.1048 -0.2888 -0.5408
16780TIP3    H171831   6.250   2.675   1.063 -0.6231  0.4088 -2.6480
16780TIP3    H271832   6.339   2.768   0.984  0.6542  1.6405  0.1121
16781TIP3   OH271833   1.322   5.284  11.515  0.2155 -0.1259 -0.2596
16781TIP3    H171834   1.411   5.259  11.489  0.1390  0.9229 -1.5979
16781TIP3    H271835   1.291   5.340  11.444 -0.5109  1.7840  1.4814
16782TIP3   OH271836   5.200   1.848   4.958  0.4031 -0.3856  0.0247
16782TIP3    H171837   5.181   1.917   4.895  1.8258 -0.3270 -0.3781
16782TIP3    H271838   5.245   1.780   4.907 -1.8112 -2.0929  0.1944
16783TIP3   OH271839   5.808   2.480   4.000 -0.8691  0.3602 -0.1063
16783TIP3    H171840   5.762   2.563   4.006 -0.3085  0.7483 -0.9875
16783TIP3    H271841   5.893   2.502   3.962 -0.5444 -0.5523  0.0563
16784TIP3   OH271842   4.374   0.052  13.079  0.4327  0.2351 -0.0422
16784TIP3    H171843   4.432   0.098  13.018 -0.6152  0.3336 -1.0074
16784TIP3    H271844   4.295   0.035  13.028  0.3154 -1.5671  0.6720
16785TIP3   OH271845   6.140   4.408   5.100 -0.3513 -0.9568 -0.2164
16785TIP3    H171846   6.140   4.316   5.074 -1.8316 -0.7225 -1.1262
16785TIP3    H271847   6.055   4.422   5.141 -0.4419  0.1814 -0.7512
16786TIP3   OH271848   2.631   6.364   4.586  0.2253 -0.0594 -0.4132
16786TIP3    H171849   2.630   6.297   4.654 -0.4995  1.0748  0.7683
16786TIP3    H271850   2.670   6.322   4.510 -0.2138 -1.7991  0.2801
16787TIP3   OH271851   1.827   2.227  16.655  0.0791 -0.0909  0.1186
16787TIP3    H171852   1.914   2.217  16.616 -0.5447  0.6924 -1.6161
16787TIP3    H271853   1.795   2.137  16.665  0.6386 -0.3471 -0.3183
16788TIP3   OH271854   6.476   0.017   3.628  0.1919 -0.1702 -0.5921
16788TIP3    H171855   6.532  -0.009   3.701 -0.4050 -1.7144 -0.6546
16788TIP3    H271856   6.477  -0.058   3.568 -0.9629  0.2542 -1.1820
16789TIP3   OH271857   0.057   0.837   2.602  0.1347  0.6028 -0.0489
16789TIP3    H171858  -0.006   0.880   2.544  0.5550 -1.3062 -2.0346
16789TIP3    H271859   0.132   0.817   2.546  0.4754 -1.5036  1.0818
16790TIP3   OH271860   0.928   1.793  12.703  0.1542  0.0012  0.3113
16790TIP3    H171861   0.968   1.750  12.627  0.4353 -0.5072  0.7379
16790TIP3    H271862   0.934   1.886  12.683  0.7537 -0.1028 -0.0340
16791TIP3   OH271863   4.371   4.625  16.974 -0.4044  0.1435  0.6938
16791TIP3    H171864   4.314   4.657  16.905  0.8937 -0.1249 -0.5613
16791TIP3    H271865   4.312   4.600  17.045 -1.9318 -1.0444 -0.9041
16792TIP3   OH271866   2.118   0.301  12.503 -0.6565 -0.2581 -0.3819
16792TIP3    H171867   2.109   0.351  12.584 -0.1598  0.6189 -0.8476
16792TIP3    H271868   2.028   0.285  12.474 -0.8234  0.8443 -0.5048
16793TIP3   OH271869   1.555   2.522   5.860  0.0763 -0.7820  0.9712
16793TIP3    H171870   1.559   2.608   5.900 -1.3888 -0.3423  0.2216
16793TIP3    H271871   1.624   2.524   5.793 -0.9093  0.3658 -0.0476
16794TIP3   OH271872   1.951   0.462   0.577 -0.1434  0.1904  0.3525
16794TIP3    H171873   2.001   0.465   0.659 -0.8852  0.1544  0.8155
16794TIP3    H271874   1.968   0.547   0.536 -0.9754  0.8358  1.2905
16795TIP3   OH271875   5.008   1.697  14.979 -0.3230  0.1823  0.0738
16795TIP3    H171876   4.989   1.651  15.061 -0.1264  1.8351  1.0933
16795TIP3    H271877   5.078   1.646  14.938 -0.7942 -0.9634  0.6667
16796TIP3   OH271878   0.335   5.037  10.977  0.1632 -0.2318 -0.3737
16796TIP3    H171879   0.253   5.075  10.945  0.3304  0.4142 -0.0452
16796TIP3    H271880   0.312   4.947  11.000 -0.3947 -0.1280 -0.5148
16797TIP3   OH271881   1.166   6.265   5.343  0.3174 -0.2206  0.1894
16797TIP3    H171882   1.093   6.325   5.329 -1.7478 -1.8724  2.7483
16797TIP3    H271883   1.153   6.194   5.280 -0.2571 -0.4316  0.5364
16798TIP3   OH271884   0.564   3.810  16.604 -0.2953 -0.3177 -0.4179
16798TIP3    H171885   0.594   3.834  16.692  0.4691 -1.3048 -0.3820
16798TIP3    H271886   0.472   3.786  16.615 -0.2584 -0.2454  0.0731
16799TIP3   OH271887   3.028   0.439  13.394  0.2674  0.1982 -0.3285
16799TIP3    H171888   3.088   0.514  13.391 -0.7049  0.9816 -0.3384
16799TIP3    H271889   3.079   0.367  13.356  1.2175  0.8438 -0.3082
16800TIP3   OH271890   2.393   6.678  15.943  0.3364  0.1353 -0.2247
16800TIP3    H171891   2.486   6.700  15.953 -0.1021  2.0761 -0.0267
16800TIP3    H271892   2.374   6.698  15.851 -0.2952  1.4798  0.1908
16801TIP3   OH271893   4.143   4.807   5.721  0.2018 -0.4182 -0.1546
16801TIP3    H171894   4.158   4.716   5.745  0.3206 -0.3047  0.2179
16801TIP3    H271895   4.111   4.847   5.802  1.4781  0.1853  0.0673
16802TIP3   OH271896   6.777   1.462  16.139 -0.2226  0.1947 -0.1220
16802TIP3    H171897   6.790   1.370  16.161 -0.8698  0.1542  0.1009
16802TIP3    H271898   6.833   1.509  16.202  0.9315 -0.0721 -0.9132
16803TIP3   OH271899   1.080   0.621   3.082  0.2223  0.1996 -0.7457
16803TIP3    H171900   1.076   0.561   3.007 -2.7644 -1.0570  0.2620
16803TIP3    H271901   1.088   0.563   3.158 -0.4496  1.2239  0.1262
16804TIP3   OH271902   1.340   1.211   6.608  0.0854  0.9481  0.6922
16804TIP3    H171903   1.416   1.214   6.666  0.5804  2.3292  0.0310
16804TIP3    H271904   1.377   1.197   6.521 -0.7376 -2.5698  0.7578
16805TIP3   OH271905   1.725   0.516   4.341 -0.4042 -0.0496 -0.1066
16805TIP3    H171906   1.809   0.556   4.361 -0.3644 -0.4854  0.6460
16805TIP3    H271907   1.663   0.558   4.401 -0.2590 -1.4852  1.1323
16806TIP3   OH271908   5.926   4.180  15.984 -0.7270  0.3679  0.1604
16806TIP3    H171909   5.961   4.152  16.068  0.2759  0.8177 -0.0970
16806TIP3    H271910   6.003   4.203  15.932 -1.3915  1.8992 -0.2249
16807TIP3   OH271911   4.804   3.913   4.136 -0.1685  0.1237 -0.4682
16807TIP3    H171912   4.738   3.958   4.189  0.7326  1.4929 -0.4490
16807TIP3    H271913   4.874   3.978   4.125  2.3442 -2.0387  1.5761
16808TIP3   OH271914   1.007   0.285   3.553  0.2902 -0.0710  0.0976
16808TIP3    H171915   0.967   0.257   3.635  0.3064  0.0733  0.1536
16808TIP3    H271916   1.090   0.238   3.551  0.3570  0.0395  0.2352
16809TIP3   OH271917   1.614   3.727   0.905 -0.2968 -1.3915  0.0065
16809TIP3    H171918   1.594   3.785   0.831 -0.8935 -3.2900 -1.4046
16809TIP3    H271919   1.650   3.648   0.865  0.4840 -2.0399  1.8564
16810TIP3   OH271920   2.937   5.492   4.295 -0.0183  0.2752  0.1893
16810TIP3    H171921   2.925   5.405   4.256 -0.1101 -0.1100  1.0710
16810TIP3    H271922   3.010   5.483   4.355 -0.9767  0.4081  1.4296
16811TIP3   OH271923   6.380   4.992   0.750 -0.2159 -0.0679 -0.1098
16811TIP3    H171924   6.459   5.037   0.723  1.0528 -1.4219  1.1365
16811TIP3    H271925   6.368   4.923   0.685 -0.0135 -0.2504  0.0468
16812TIP3   OH271926   3.591   1.738   5.772  0.0477 -0.5710 -0.1088
16812TIP3    H171927   3.646   1.816   5.782  0.5096 -1.1056  2.2188
16812TIP3    H271928   3.572   1.711   5.862  0.7411 -3.7320 -0.7856
16813TIP3   OH271929   6.256   3.133   0.266 -0.0863  0.2469  0.5596
16813TIP3    H171930   6.281   3.083   0.343  0.5982  2.4100  1.8405
16813TIP3    H271931   6.313   3.210   0.268  0.7995 -0.1539 -2.7961
16814TIP3   OH271932   5.504   6.488   6.029  0.6352  0.2317  0.0825
16814TIP3    H171933   5.558   6.409   6.032  1.4121  0.6222 -1.8298
16814TIP3    H271934   5.530   6.531   5.947 -2.6325  0.3818 -1.0279
16815TIP3   OH271935   4.419   1.963   1.988  0.0890 -0.5284 -0.4577
16815TIP3    H171936   4.471   1.906   2.045  1.7297  0.6136 -0.7420
16815TIP3    H271937   4.441   1.934   1.899  2.5144  1.6781 -0.7158
16816TIP3   OH271938   5.797   1.147  12.240  0.0376 -0.1477 -0.1728
16816TIP3    H171939   5.856   1.074  12.262  0.3594 -0.2038 -1.1697
16816TIP3    H271940   5.856   1.223  12.233 -0.0104 -0.1890 -1.0993
16817TIP3   OH271941   1.050   1.295  11.668 -0.2218  0.2276  0.2086
16817TIP3    H171942   1.036   1.280  11.761  0.1503  2.3118  0.6298
16817TIP3    H271943   1.017   1.383  11.652  0.1619  0.0996 -1.5443
16818TIP3   OH271944   4.575   4.300  13.767  0.3916  0.4612 -0.3301
16818TIP3    H171945   4.621   4.269  13.845  1.1059 -0.9060 -1.2415
16818TIP3    H271946   4.496   4.246  13.763 -0.5681  1.7561  0.3886
16819TIP3   OH271947   0.471   2.306  14.188  0.4264  0.2600  0.0711
16819TIP3    H171948   0.540   2.261  14.138 -1.0091 -1.0939 -0.7655
16819TIP3    H271949   0.494   2.288  14.280  0.8291 -0.7596 -0.2092
16820TIP3   OH271950   4.631   5.201   4.260  0.0612 -0.1012  0.0528
16820TIP3    H171951   4.663   5.111   4.260 -0.4323 -0.2817 -1.0334
16820TIP3    H271952   4.675   5.241   4.336  0.4718 -1.1745  0.4070
16821TIP3   OH271953   0.572   4.136  14.086  0.2545  0.0269 -0.1047
16821TIP3    H171954   0.539   4.148  13.997 -0.3088  0.6888  0.1799
16821TIP3    H271955   0.541   4.050  14.113 -1.3040  0.6459  0.1685
16822TIP3   OH271956   3.351   5.574   5.498  0.4625  0.2200 -0.1606
16822TIP3    H171957   3.299   5.495   5.509  0.1756  0.3742 -0.3929
16822TIP3    H271958   3.291   5.637   5.459  0.6502  0.5978  0.1543
16823TIP3   OH271959   6.084   2.519  17.086 -0.8104  0.2752  0.1203
16823TIP3    H171960   6.050   2.496  17.172 -2.0058 -2.2167 -0.9242
16823TIP3    H271961   6.014   2.571  17.046 -0.4206  1.0926  0.4811
16824TIP3   OH271962   4.531   0.862  16.806 -0.8373 -0.3442  0.0025
16824TIP3    H171963   4.507   0.921  16.877  0.7495 -0.4554  0.6730
16824TIP3    H271964   4.513   0.912  16.726 -0.5111  0.6545  0.5390
16825TIP3   OH271965   6.400   6.136   2.002  0.0261 -0.7181  0.0996
16825TIP3    H171966   6.354   6.220   2.008 -0.5017 -0.9202 -0.7954
16825TIP3    H271967   6.344   6.075   2.048  1.0791 -0.3554  1.9555
16826TIP3   OH271968   4.007   3.712  13.370 -0.5385  0.0510  0.0014
16826TIP3    H171969   3.919   3.682  13.347 -0.0050 -1.2647 -0.4124
16826TIP3    H271970   4.065   3.644  13.337  0.4907 -0.3346  2.3707
16827TIP3   OH271971   6.006   3.801  16.174  0.6658  0.2278  0.2616
16827TIP3    H171972   5.918   3.836  16.158  0.7358  0.0334 -0.5849
16827TIP3    H271973   5.993   3.736  16.243 -0.1968 -1.1457 -1.1079
16828TIP3   OH271974   5.175   0.311  15.301 -0.0123  0.4391 -0.1225
16828TIP3    H171975   5.177   0.391  15.249 -0.0336  1.7148  1.7276
16828TIP3    H271976   5.266   0.280  15.301  0.2955  1.3014  0.3241
16829TIP3   OH271977   6.225   3.194  14.244 -0.7488  0.3265  0.7590
16829TIP3    H171978   6.256   3.186  14.334 -0.2477  1.4885  0.7060
16829TIP3    H271979   6.131   3.176  14.249 -0.6680  0.0940  1.4648
16830TIP3   OH271980   2.384   0.554   3.380  0.4101 -0.4579  0.0248
16830TIP3    H171981   2.378   0.609   3.302  3.1201  1.2741  0.9117
16830TIP3    H271982   2.306   0.575   3.431 -0.6900 -0.5983 -1.5236
16831TIP3   OH271983   2.890   4.233   5.314  0.2664  0.0243  0.7230
16831TIP3    H171984   2.812   4.273   5.275  0.3306 -1.3943 -0.9727
16831TIP3    H271985   2.960   4.296   5.298 -0.3226  0.9145  1.4905
16832TIP3   OH271986   4.006   2.931  11.064 -0.1843  0.1479 -0.6656
16832TIP3    H171987   4.052   2.985  11.000 -0.3604 -1.1552 -1.9558
16832TIP3    H271988   3.932   2.984  11.093  0.6766  1.2828 -0.5049
16833TIP3   OH271989   5.288   6.365   6.132  0.0046 -0.9652 -0.1494
16833TIP3    H171990   5.362   6.420   6.109 -1.1103  0.4153 -0.5472
16833TIP3    H271991   5.286   6.367   6.228 -0.3413  0.1686 -0.1620
16834TIP3   OH271992   0.592   2.296  11.136  0.2020  0.7381 -0.8219
16834TIP3    H171993   0.528   2.249  11.190  1.3346  0.9728  0.7869
16834TIP3    H271994   0.600   2.243  11.057 -2.2034  0.8877 -1.2294
16835TIP3   OH271995   5.875   4.590   2.523 -0.1621 -0.2202  0.2964
16835TIP3    H171996   5.889   4.680   2.556  4.7712 -0.7104  0.4002
16835TIP3    H271997   5.825   4.601   2.442  0.4266  2.6758  0.2190
16836TIP3   OH271998   5.982   6.088  11.790 -0.1474  0.2660 -0.4227
16836TIP3    H171999   5.989   6.144  11.713 -1.5068  1.2957  0.1524
16836TIP3    H272000   5.894   6.104  11.824  1.1027  1.5910  2.6055
16837TIP3   OH272001   1.799   4.543   6.188 -0.2208 -0.2724 -0.1420
16837TIP3    H172002   1.797   4.454   6.221  1.1671  0.2249  1.4208
16837TIP3    H272003   1.707   4.567   6.177 -0.6071 -1.9462 -0.8165
16838TIP3   OH272004   3.650   2.750   1.501 -0.1403  0.0905  0.1667
16838TIP3    H172005   3.676   2.776   1.590 -0.2153  1.9065 -0.3073
16838TIP3    H272006   3.650   2.654   1.503 -0.0606  0.0960  2.0982
16839TIP3   OH272007   5.422   3.373  11.850  0.1921  0.2389 -0.1290
16839TIP3    H172008   5.425   3.278  11.858 -0.0656  0.2132 -0.3157
16839TIP3    H272009   5.418   3.405  11.940  0.9727  0.1047 -0.0377
16840TIP3   OH272010   6.224   3.227   2.880 -0.2047 -0.1613  0.1654
16840TIP3    H172011   6.134   3.257   2.866  0.0480  1.3251  1.4777
16840TIP3    H272012   6.226   3.201   2.972  1.1879  1.7504  0.7239
16841TIP3   OH272013   6.406   5.547   1.910  0.3904  0.4950  0.2870
16841TIP3    H172014   6.356   5.468   1.891  1.0057  0.2425 -0.2881
16841TIP3    H272015   6.496   5.517   1.924  1.1222  1.2764 -2.1668
16842TIP3   OH272016   6.665   0.707  14.594  0.7967 -0.2643 -0.0473
16842TIP3    H172017   6.620   0.790  14.610 -0.2832 -0.6975 -0.7368
16842TIP3    H272018   6.714   0.722  14.513  0.7225 -0.2395 -0.0889
16843TIP3   OH272019   1.150   5.614  12.204  0.2794 -0.1627 -0.0778
16843TIP3    H172020   1.084   5.643  12.267 -0.3300  0.3615 -0.9276
16843TIP3    H272021   1.223   5.583  12.258 -0.7649 -1.0400  0.8851
16844TIP3   OH272022   3.496   1.419   4.071  0.5925  0.0986  0.1704
16844TIP3    H172023   3.478   1.337   4.118 -0.0875 -0.0189 -0.2798
16844TIP3    H272024   3.482   1.397   3.979  3.0328  0.0267 -0.2381
16845TIP3   OH272025   2.994   1.194  15.471 -0.6151 -0.1281  0.3748
16845TIP3    H172026   3.044   1.112  15.475 -2.4568 -1.3012  0.7524
16845TIP3    H272027   2.999   1.221  15.380 -0.4189 -0.9608  0.1276
16846TIP3   OH272028   4.824   5.063  14.345  0.7435 -0.4290  0.4164
16846TIP3    H172029   4.865   5.100  14.424 -0.6598 -0.7557  1.3368
16846TIP3    H272030   4.879   4.988  14.323  1.8090  0.3313  0.3907
16847TIP3   OH272031   2.453   0.271   6.034  0.1814 -0.2219  0.2899
16847TIP3    H172032   2.468   0.264   6.129 -0.0271 -1.4168  0.2506
16847TIP3    H272033   2.446   0.365   6.018 -0.0344 -0.0085  1.5092
16848TIP3   OH272034   6.202   4.685   5.077  0.1497  0.4231 -0.2476
16848TIP3    H172035   6.190   4.736   4.997  1.3620 -0.1921 -0.8415
16848TIP3    H272036   6.182   4.595   5.051 -2.7956  0.5958  0.9859
16849TIP3   OH272037   6.299   3.394   2.657  0.0474  0.1482 -0.1106
16849TIP3    H172038   6.313   3.345   2.738 -0.9104 -0.4101 -0.2662
16849TIP3    H272039   6.310   3.330   2.587  0.4019  0.5219 -0.3998
16850TIP3   OH272040   3.292   4.400  12.732  0.1044  0.3584  0.2283
16850TIP3    H172041   3.381   4.410  12.765  0.3900  0.5398 -0.5985
16850TIP3    H272042   3.296   4.426  12.640 -0.5104 -0.9103 -0.1897
16851TIP3   OH272043   4.345   6.108  15.386  0.3645 -0.9458 -0.2310
16851TIP3    H172044   4.262   6.065  15.364  0.4844 -1.1014 -0.3884
16851TIP3    H272045   4.387   6.048  15.447 -0.1755 -0.2940  0.8097
16852TIP3   OH272046   1.157   1.665   3.189 -0.2288 -0.4698 -0.1948
16852TIP3    H172047   1.141   1.740   3.132 -0.1471  0.4182  0.9133
16852TIP3    H272048   1.252   1.651   3.184 -0.3471 -1.0298 -1.0305
16853TIP3   OH272049   3.447   4.732  12.129  0.2155 -0.2646  0.6857
16853TIP3    H172050   3.443   4.638  12.147 -0.9191 -0.1469  1.0723
16853TIP3    H272051   3.478   4.771  12.211  1.5371 -0.3587  0.2645
16854TIP3   OH272052   1.048   6.129   1.147  0.5706  0.0271 -0.2735
16854TIP3    H172053   1.044   6.171   1.061  1.8855  1.1723  0.1855
16854TIP3    H272054   1.025   6.198   1.209 -0.9710 -0.9489  0.2889
16855TIP3   OH272055   3.739   1.693  12.322  0.2048 -1.0137  0.3994
16855TIP3    H172056   3.831   1.684  12.349 -0.1109 -1.3780  1.4264
16855TIP3    H272057   3.712   1.604  12.301  0.7971 -0.6169 -2.5359
16856TIP3   OH272058   6.146   3.564  11.680 -0.9050 -0.6337  0.0985
16856TIP3    H172059   6.204   3.534  11.610 -1.2325  0.0205 -0.4548
16856TIP3    H272060   6.146   3.659  11.673 -1.9167 -0.6143  0.1994
16857TIP3   OH272061   5.225   5.246  15.066 -0.0500  0.1199  0.5837
16857TIP3    H172062   5.185   5.290  15.141 -1.6260  0.7280 -0.5564
16857TIP3    H272063   5.278   5.314  15.025 -0.1350  0.1314  0.4911
16858TIP3   OH272064   4.735   2.192   0.186  0.3047 -0.1223  0.1914
16858TIP3    H172065   4.827   2.215   0.180  0.3729 -0.4945 -0.3254
16858TIP3    H272066   4.720   2.135   0.110 -0.7701  1.3620 -0.7801
16859TIP3   OH272067   5.838   1.152   4.169  0.9396 -0.2430 -0.5169
16859TIP3    H172068   5.864   1.150   4.261  0.3896 -0.4002 -0.3572
16859TIP3    H272069   5.768   1.086   4.163  1.2024 -0.4756 -1.1166
16860TIP3   OH272070   4.746   5.062  16.179  0.0936 -0.2482 -0.1962
16860TIP3    H172071   4.803   4.986  16.194 -0.3546 -0.4905  0.3009
16860TIP3    H272072   4.707   5.080  16.265 -0.8576 -0.3056 -0.6055
16861TIP3   OH272073   5.060   5.423   2.725 -0.4827  0.8012  0.4117
16861TIP3    H172074   5.108   5.440   2.644  0.3067 -0.2367  0.6404
16861TIP3    H272075   4.993   5.360   2.700  0.1479  0.0094  0.6676
16862TIP3   OH272076   1.175   1.804  16.015  0.0264  0.0866  0.0006
16862TIP3    H172077   1.219   1.753  15.947 -1.1665 -2.4730  1.0124
16862TIP3    H272078   1.102   1.847  15.969  1.5456  1.7061 -1.0290
16863TIP3   OH272079   2.048   1.474   6.322 -0.9546  0.2711 -0.8560
16863TIP3    H172080   1.991   1.449   6.249  0.6303 -1.7423 -1.5142
16863TIP3    H272081   2.128   1.505   6.279 -0.6959  0.8876  0.0530
16864TIP3   OH272082   4.062   6.243   1.521 -0.2773  0.3918  0.4754
16864TIP3    H172083   3.968   6.233   1.513 -0.0779 -0.0399 -1.9399
16864TIP3    H272084   4.099   6.166   1.478  1.1592  1.6076 -0.5986
16865TIP3   OH272085   5.635   5.245  13.444  0.4274 -0.4140 -0.4545
16865TIP3    H172086   5.713   5.294  13.470 -0.5132  1.1061 -0.3542
16865TIP3    H272087   5.623   5.266  13.351 -0.5100  0.3528 -0.1839
16866TIP3   OH272088   3.528   4.507   1.985  0.2434 -0.2300 -0.2176
16866TIP3    H172089   3.452   4.538   1.936 -1.0721  2.2111  2.9801
16866TIP3    H272090   3.592   4.578   1.976  1.2413 -1.2016 -0.9575
16867TIP3   OH272091   6.757   2.332   6.091 -0.1683  0.0113  0.5209
16867TIP3    H172092   6.691   2.312   6.158 -0.6749 -0.8992 -0.2087
16867TIP3    H272093   6.722   2.291   6.012  1.1764 -0.2909  0.0667
16868TIP3   OH272094   6.372   6.546  15.788 -0.8362 -0.2750 -0.2429
16868TIP3    H172095   6.347   6.503  15.870  1.3715  1.8580  1.7398
16868TIP3    H272096   6.354   6.639  15.803  0.8360  0.3388 -1.6348
16869TIP3   OH272097   1.054   5.586  11.171  0.1717  0.6845 -0.0631
16869TIP3    H172098   1.096   5.662  11.210  1.2332 -0.4712  1.1163
16869TIP3    H272099   0.968   5.582  11.213  0.3657  0.8467  0.3498
16870TIP3   OH272100   5.381   4.285  10.918  0.4766  0.4314 -0.3854
16870TIP3    H172101   5.361   4.257  10.829  0.8833  1.0644 -0.6862
16870TIP3    H272102   5.381   4.204  10.970 -0.5761  0.1511 -0.7925
16871TIP3   OH272103   5.270   2.269  12.062  0.2799  0.0224 -0.3565
16871TIP3    H172104   5.278   2.344  12.121  0.6194  0.6518 -1.1839
16871TIP3    H272105   5.328   2.202  12.099  0.0493  0.1997  0.3309
16872TIP3   OH272106   3.238   6.766   3.717 -0.1775  0.6538  0.6337
16872TIP3    H172107   3.316   6.798   3.763  0.6354  0.2146 -0.4060
16872TIP3    H272108   3.187   6.846   3.700  1.1409  1.2583 -0.6636
16873TIP3   OH272109   4.501   3.634   4.221  0.3887  0.3653 -0.1776
16873TIP3    H172110   4.533   3.581   4.293 -0.2633  0.1492 -0.0415
16873TIP3    H272111   4.557   3.611   4.147  1.2872  0.8469  0.3374
16874TIP3   OH272112   4.242   4.229   0.336 -0.0581  0.0523  0.2811
16874TIP3    H172113   4.263   4.144   0.375  1.1895  0.9912  1.7341
16874TIP3    H272114   4.305   4.290   0.374 -0.1601  1.4370 -1.6228
16875TIP3   OH272115   6.094   2.691   0.645  0.1966 -0.1755  0.0404
16875TIP3    H172116   6.086   2.617   0.705 -0.2876 -1.0617 -1.0906
16875TIP3    H272117   6.050   2.763   0.691  0.3185 -0.6864  0.9811
16876TIP3   OH272118   3.435   0.760   2.377  0.5773 -0.3015  0.5009
16876TIP3    H172119   3.501   0.816   2.418  0.6311 -0.1590  0.2177
16876TIP3    H272120   3.352   0.803   2.396  0.8004  2.3446 -3.3824
16877TIP3   OH272121   3.588   1.747   6.600 -0.8315  0.3250 -0.0131
16877TIP3    H172122   3.509   1.725   6.649 -1.9469  0.4774 -1.6573
16877TIP3    H272123   3.603   1.840   6.617 -1.8802  0.6650 -0.8121
16878TIP3   OH272124   1.997   6.245  13.885 -0.7440  0.5428 -0.0465
16878TIP3    H172125   2.002   6.314  13.951 -1.5706 -0.8865  1.6100
16878TIP3    H272126   2.087   6.231  13.857 -0.0138 -0.2625  2.4449
16879TIP3   OH272127   3.568   3.185   2.908  0.8766  0.1234 -0.1787
16879TIP3    H172128   3.624   3.137   2.846  1.2112  1.0987 -0.6585
16879TIP3    H272129   3.610   3.171   2.993  1.8426  0.7998 -0.5258
16880TIP3   OH272130   5.656   4.204   0.513 -0.3451 -0.3988 -0.1628
16880TIP3    H172131   5.584   4.142   0.507  0.6970 -1.5552 -1.4032
16880TIP3    H272132   5.729   4.154   0.550 -0.7184  1.3187  3.2159
16881TIP3   OH272133   1.261   4.294   2.502 -0.1134 -0.4096 -0.1325
16881TIP3    H172134   1.249   4.324   2.412 -1.8389 -1.0260 -0.1335
16881TIP3    H272135   1.331   4.229   2.496 -0.7486 -1.0193 -1.1659
16882TIP3   OH272136   4.431   3.649  15.432  0.1064 -0.7343  0.0728
16882TIP3    H172137   4.371   3.577  15.414  1.4995 -1.8604 -0.2349
16882TIP3    H272138   4.376   3.717  15.472 -1.5651 -1.2909 -1.1568
16883TIP3   OH272139   0.299   3.699   0.927 -0.3788  0.2141  0.6861
16883TIP3    H172140   0.296   3.761   0.854  0.6999 -0.6589 -0.1274
16883TIP3    H272141   0.380   3.651   0.915  0.1513  0.4509  2.8208
16884TIP3   OH272142   4.913   2.566  17.191  0.5774  0.4511  0.5185
16884TIP3    H172143   4.960   2.629  17.245  0.6485 -0.2876  1.3353
16884TIP3    H272144   4.978   2.501  17.166  0.2292 -0.0062  0.7782
16885TIP3   OH272145   6.755   3.004   4.181 -0.2027  0.1388  0.0981
16885TIP3    H172146   6.840   2.978   4.147 -0.8387 -2.9959  0.6444
16885TIP3    H272147   6.774   3.073   4.244  1.3731  3.1707 -3.2884
16886TIP3   OH272148   6.281   2.016   6.305  0.3700 -0.0336  0.2342
16886TIP3    H172149   6.197   1.996   6.346  1.9356 -1.2472  3.1895
16886TIP3    H272150   6.345   1.962   6.354  2.9401  1.2836 -1.4405
16887TIP3   OH272151   3.797   4.044  14.418 -0.0060 -0.2630 -0.1346
16887TIP3    H172152   3.702   4.046  14.416 -0.1056 -1.3376  1.3326
16887TIP3    H272153   3.821   3.960  14.378  0.2803 -0.2223 -0.0553
16888TIP3   OH272154   4.125   5.187   4.046 -0.0074  0.2027 -0.2881
16888TIP3    H172155   4.032   5.169   4.035 -0.1954  0.8370  0.2200
16888TIP3    H272156   4.130   5.242   4.124  0.7391  0.6358 -0.6282
16889TIP3   OH272157   6.212   1.188  11.649 -0.3399  0.5665 -0.4840
16889TIP3    H172158   6.304   1.211  11.667 -0.2011 -0.4095  0.0977
16889TIP3    H272159   6.162   1.258  11.692  0.0913  0.1142  0.8080
16890TIP3   OH272160   0.038   5.740   2.927 -0.3813 -0.1441  0.4395
16890TIP3    H172161   0.078   5.752   3.014  0.0261  0.1929  0.2075
16890TIP3    H272162   0.113   5.729   2.868 -0.6145  0.7183 -0.0336
16891TIP3   OH272163   2.435   6.741  12.701  0.4157 -0.0618  0.4802
16891TIP3    H172164   2.354   6.759  12.654  0.8097  2.0809  0.5414
16891TIP3    H272165   2.419   6.774  12.789  1.1456 -0.2001  0.6708
16892TIP3   OH272166   5.783   4.180   2.955 -0.6522  0.2317  0.2595
16892TIP3    H172167   5.773   4.172   2.860  0.3843 -1.2899  0.2495
16892TIP3    H272168   5.843   4.254   2.967 -0.9570  0.5689 -0.2461
16893TIP3   OH272169   4.273   1.675   2.159  0.3005 -0.3544 -0.4553
16893TIP3    H172170   4.337   1.704   2.223 -0.7060  3.9513 -1.0618
16893TIP3    H272171   4.194   1.656   2.210  0.1389  0.9595 -0.1858
16894TIP3   OH272172   5.931   3.587   0.663  0.3506 -0.1051  0.2662
16894TIP3    H172173   5.871   3.586   0.588  0.6204 -2.4542  0.0169
16894TIP3    H272174   5.874   3.600   0.739 -0.2861 -0.6588 -0.1009
16895TIP3   OH272175   0.878   4.162  15.823 -0.0667 -0.3134  0.4963
16895TIP3    H172176   0.859   4.142  15.915  1.3234 -3.1413  0.2690
16895TIP3    H272177   0.951   4.103  15.801 -2.0265 -1.6373 -3.1229
16896TIP3   OH272178   1.846   2.076  13.631  0.7172 -0.1087  0.1882
16896TIP3    H172179   1.855   2.116  13.717 -0.7899 -2.3436  1.4981
16896TIP3    H272180   1.768   2.021  13.638 -0.7952  1.2784 -3.3352
16897TIP3   OH272181   4.294   2.926  13.046 -0.1073  0.1054  0.4019
16897TIP3    H172182   4.233   2.935  13.119  0.5884  0.0894  1.0018
16897TIP3    H272183   4.312   2.832  13.041 -1.7372 -0.1622 -1.1396
16898TIP3   OH272184   4.501   2.580  16.862 -0.2595  0.6592  0.4039
16898TIP3    H172185   4.426   2.594  16.805 -0.0305 -0.1555 -0.1178
16898TIP3    H272186   4.540   2.667  16.872  1.0217  0.5753 -2.5852
16899TIP3   OH272187   3.212   1.383  14.239  0.4439  0.4148  0.0284
16899TIP3    H172188   3.286   1.324  14.228  1.8075  2.2407 -1.2106
16899TIP3    H272189   3.142   1.345  14.185  0.7381 -0.8549  0.5026
16900TIP3   OH272190   5.924   0.133  13.517 -0.3749  0.0713  0.0932
16900TIP3    H172191   5.835   0.103  13.497 -0.0170 -0.2468 -1.1650
16900TIP3    H272192   5.970   0.127  13.433  0.6563  0.8730  0.5787
16901TIP3   OH272193   3.534   5.780   1.956  0.0454  0.0912 -0.0446
16901TIP3    H172194   3.447   5.753   1.927  0.8951 -1.2329 -1.4858
16901TIP3    H272195   3.551   5.727   2.034  0.1003 -0.6521 -0.5541
16902TIP3   OH272196   5.060   3.461   4.689  0.3654  0.2563  0.5888
16902TIP3    H172197   5.154   3.450   4.677  0.2677 -0.5037  0.4902
16902TIP3    H272198   5.039   3.405   4.764 -0.1156 -0.0917  0.1966
16903TIP3   OH272199   4.057   4.985  15.795 -0.2131 -0.4224 -0.2152
16903TIP3    H172200   4.140   4.942  15.815 -0.4242 -1.2797 -1.1092
16903TIP3    H272201   3.997   4.952  15.862  0.1967  0.3464  0.5477
16904TIP3   OH272202   4.720   4.111   5.426  0.3013 -0.0760  0.4691
16904TIP3    H172203   4.661   4.050   5.382  0.9577 -0.6954  0.4413
16904TIP3    H272204   4.721   4.188   5.369 -0.0769 -0.2561  0.2107
16905TIP3   OH272205   5.234   3.047   2.269 -0.4257  0.0084  0.0418
16905TIP3    H172206   5.292   2.971   2.265 -1.2937 -0.6142 -2.0755
16905TIP3    H272207   5.293   3.122   2.279  0.4240 -0.8998  2.7422
16906TIP3   OH272208   2.505   5.022   4.898  0.4744  0.1549  0.3876
16906TIP3    H172209   2.438   5.030   4.830  0.2421  1.6365  0.7399
16906TIP3    H272210   2.537   4.933   4.890  0.7003  0.3791 -1.8971
16907TIP3   OH272211   4.274   4.553  12.473 -0.2211 -0.2276  0.2849
16907TIP3    H172212   4.260   4.558  12.378  0.2442 -0.5348  0.2013
16907TIP3    H272213   4.251   4.640  12.505 -0.2275 -0.0774 -0.1261
16908TIP3   OH272214   4.470   3.932  15.175 -0.0483 -0.1192 -0.0914
16908TIP3    H172215   4.410   3.901  15.108 -0.6647 -1.7133  1.1243
16908TIP3    H272216   4.555   3.896  15.150 -0.5619 -2.0684  0.7450
16909TIP3   OH272217   0.553   5.189   1.976 -0.0114 -0.1260 -0.0701
16909TIP3    H172218   0.559   5.121   2.044  2.3751  0.1600  0.0924
16909TIP3    H272219   0.479   5.162   1.921 -0.4752 -1.6674  1.2462
16910TIP3   OH272220   0.595   3.947   1.413  0.9710  0.2631 -0.2693
16910TIP3    H172221   0.572   3.997   1.335  2.7472  0.6220 -0.6005
16910TIP3    H272222   0.657   3.881   1.383 -0.4413 -1.4255  0.3801
16911TIP3   OH272223   2.574   1.856   4.130  0.2877 -0.1682  0.0649
16911TIP3    H172224   2.536   1.920   4.189  1.1305  3.5926 -3.0497
16911TIP3    H272225   2.660   1.837   4.166 -0.3670 -0.4550  1.5697
16912TIP3   OH272226   4.413   3.892   3.654  0.1892  0.2637  0.1581
16912TIP3    H172227   4.407   3.912   3.747  0.7845  0.1900  0.2168
16912TIP3    H272228   4.329   3.919   3.618  0.5021  1.7046  0.4581
16913TIP3   OH272229   2.224   0.088   5.854  0.6223 -0.1508 -0.0534
16913TIP3    H172230   2.152   0.037   5.817 -0.0478  0.1359  0.8292
16913TIP3    H272231   2.187   0.131   5.931  1.3389  1.1841 -0.4204
16914TIP3   OH272232   5.774   3.952   4.923  0.0422 -0.0403  0.1741
16914TIP3    H172233   5.766   3.980   4.832 -1.5775  0.0801  0.3105
16914TIP3    H272234   5.837   3.881   4.922 -0.1582 -0.2117 -1.0946
16915TIP3   OH272235   6.199   0.931   0.296  0.0752 -0.1194 -0.2183
16915TIP3    H172236   6.166   0.881   0.221 -1.9066  1.4837 -0.5005
16915TIP3    H272237   6.148   0.899   0.371 -2.3082  2.3599 -0.6488
16916TIP3   OH272238   6.304   4.069   2.030 -0.2193 -0.6325 -0.2437
16916TIP3    H172239   6.271   4.008   2.096 -1.0112 -0.5206 -0.5308
16916TIP3    H272240   6.284   4.156   2.066 -0.0197 -0.5576 -0.3110
16917TIP3   OH272241   6.478   6.376  13.180 -0.3282  0.2249 -0.3847
16917TIP3    H172242   6.556   6.432  13.173 -0.6216  0.4669 -2.2667
16917TIP3    H272243   6.406   6.433  13.153 -1.3215  0.2295  2.0598
16918TIP3   OH272244   1.798   5.857  15.419  0.0880  0.8165 -0.4597
16918TIP3    H172245   1.742   5.811  15.357  0.1459  0.1471 -0.0337
16918TIP3    H272246   1.875   5.882  15.369  0.4334 -0.3071 -0.5156
16919TIP3   OH272247   3.681   3.778  10.641  0.3054  0.3370  0.3301
16919TIP3    H172248   3.697   3.684  10.632 -0.0611  0.3726 -0.9056
16919TIP3    H272249   3.585   3.786  10.642  0.3354  0.7117  0.2750
16920TIP3   OH272250   4.624   2.616  15.630 -0.6203 -0.6264  0.3962
16920TIP3    H172251   4.631   2.699  15.583  2.3229 -0.9461  0.0556
16920TIP3    H272252   4.590   2.554  15.564  0.3735 -0.3657 -0.3928
16921TIP3   OH272253   0.476   5.325  12.648  0.7599  0.1673 -0.2287
16921TIP3    H172254   0.483   5.397  12.710 -3.3708  1.6783 -1.2001
16921TIP3    H272255   0.482   5.366  12.562 -3.6574  0.0313 -0.8717
16922TIP3   OH272256   4.294   6.057  14.896  0.3026  0.4106 -0.5007
16922TIP3    H172257   4.222   6.084  14.953 -1.5528 -1.9186 -1.5739
16922TIP3    H272258   4.372   6.070  14.950 -0.8596  2.8675  0.7689
16923TIP3   OH272259   2.670   6.604  16.032  0.2795  0.1293  0.3796
16923TIP3    H172260   2.613   6.527  16.035  0.7817 -0.3330 -0.9676
16923TIP3    H272261   2.757   6.570  16.055  0.9114 -0.1905 -2.1309
16924TIP3   OH272262   0.102   1.682  14.437 -0.7988  0.1940 -0.0090
16924TIP3    H172263   0.128   1.594  14.410  0.2490  0.6139 -0.4491
16924TIP3    H272264   0.074   1.672  14.528 -0.5311 -0.5631 -0.0013
16925TIP3   OH272265   2.750   4.824  14.865  0.2849  0.6937  0.1925
16925TIP3    H172266   2.741   4.742  14.815 -3.6154 -0.2393  2.0350
16925TIP3    H272267   2.842   4.826  14.891  0.6600 -2.8898 -0.3344
16926TIP3   OH272268   3.295   3.663   4.218 -0.4363  0.1886 -0.2205
16926TIP3    H172269   3.295   3.681   4.312 -2.6627 -0.7226  0.0127
16926TIP3    H272270   3.258   3.741   4.178  1.2092  0.8839 -0.4602
16927TIP3   OH272271   2.900   2.330  16.239  0.5914 -0.0017  0.3900
16927TIP3    H172272   2.879   2.236  16.243  0.9974 -0.1022  0.2056
16927TIP3    H272273   2.857   2.367  16.316 -0.1764 -0.2196  0.0822
16928TIP3   OH272274   4.046   3.724  14.007 -0.2272 -0.3095 -0.5362
16928TIP3    H172275   3.975   3.722  14.070  0.1804  1.0522  0.0000
16928TIP3    H272276   4.004   3.745  13.924 -0.2890  2.6861  0.1442
16929TIP3   OH272277   4.767   1.492   2.626  0.0302 -0.2338  0.1983
16929TIP3    H172278   4.795   1.503   2.534  0.2963  0.1514  0.3224
16929TIP3    H272279   4.804   1.407   2.652 -0.0737 -0.3600 -0.0586
16930TIP3   OH272280   0.411   4.395  12.039 -0.3331 -0.0826 -0.5765
16930TIP3    H172281   0.333   4.365  12.085  0.9084 -1.5131  0.6866
16930TIP3    H272282   0.423   4.485  12.070 -1.1988 -0.0157 -0.4064
16931TIP3   OH272283   0.889   3.903   4.725  0.0994  0.2754 -0.3037
16931TIP3    H172284   0.970   3.860   4.753 -0.5320 -0.7618  0.0056
16931TIP3    H272285   0.824   3.873   4.789 -0.2907  2.0325  0.1622
16932TIP3   OH272286   6.235   5.861  13.767 -0.3029 -0.0368  0.2778
16932TIP3    H172287   6.316   5.853  13.817 -0.2524  0.8208  0.3480
16932TIP3    H272288   6.262   5.893  13.682 -0.6027  0.6378  0.4305
16933TIP3   OH272289   2.928   3.089   2.599 -0.5453 -0.3985 -1.0326
16933TIP3    H172290   3.024   3.090   2.599 -0.3961 -0.3614  2.9012
16933TIP3    H272291   2.904   3.179   2.574  0.5937  0.4145  0.5889
16934TIP3   OH272292   5.141   5.533   4.987  0.1126 -0.6539  0.9452
16934TIP3    H172293   5.190   5.467   4.937 -0.6040  0.7187 -1.7827
16934TIP3    H272294   5.169   5.616   4.949 -1.6204  0.3770  1.8438
16935TIP3   OH272295   4.269   2.497  11.959 -0.3792  0.1885 -0.5596
16935TIP3    H172296   4.307   2.410  11.972  1.7125  1.1589  0.4852
16935TIP3    H272297   4.339   2.547  11.917 -2.0185  1.0413 -2.4026
16936TIP3   OH272298   5.628   6.688   5.149 -0.8547  0.1827  0.0656
16936TIP3    H172299   5.702   6.674   5.208 -1.3093 -2.6380  0.0990
16936TIP3    H272300   5.563   6.734   5.202  0.4986  1.9650  0.2771
16937TIP3   OH272301   1.731   1.286   2.931  0.3819  0.3262 -0.0655
16937TIP3    H172302   1.723   1.263   2.838  0.3301 -1.3743  0.3374
16937TIP3    H272303   1.668   1.230   2.976  0.9543  0.5724  1.0803
16938TIP3   OH272304   2.973   0.755   3.242 -0.5772  0.3505 -0.1033
16938TIP3    H172305   2.985   0.847   3.264 -2.9755  0.6978  0.0779
16938TIP3    H272306   2.878   0.742   3.248 -0.2574 -2.2644  0.3898
16939TIP3   OH272307   0.364   3.026   4.661  0.2022  0.6589 -0.5589
16939TIP3    H172308   0.437   2.988   4.612 -0.3435 -1.0114 -0.1589
16939TIP3    H272309   0.291   3.024   4.600  0.3709  1.9789 -0.8340
16940TIP3   OH272310   0.139   3.765  16.514 -0.4027  0.4982  0.0666
16940TIP3    H172311   0.075   3.694  16.505 -1.2530  1.2354  0.1523
16940TIP3    H272312   0.215   3.723  16.554 -1.0502 -0.2838  0.5190
16941TIP3   OH272313   6.654   1.824   3.888 -0.0933  0.2860 -0.4566
16941TIP3    H172314   6.664   1.908   3.845 -1.1993  1.1884  0.9428
16941TIP3    H272315   6.708   1.830   3.967 -0.5012 -0.1431 -0.1350
16942TIP3   OH272316   1.244   0.830  14.162 -0.4110 -0.1440 -0.0576
16942TIP3    H172317   1.242   0.853  14.255  0.7873 -0.3011  0.0190
16942TIP3    H272318   1.206   0.742  14.158  0.4322 -0.5367  0.4160
16943TIP3   OH272319   4.212   5.779   5.090 -0.2669  0.4164 -0.1825
16943TIP3    H172320   4.249   5.749   5.173 -1.0790 -0.9320 -0.2878
16943TIP3    H272321   4.133   5.728   5.078 -1.2668  2.0295 -0.8127
16944TIP3   OH272322   6.561   4.727  15.566  0.1479 -0.2013 -0.3242
16944TIP3    H172323   6.645   4.729  15.613  0.7176 -0.9160 -1.2663
16944TIP3    H272324   6.515   4.651  15.601  0.2774 -0.3259 -0.4213
16945TIP3   OH272325   2.443   5.223  17.129 -0.1081 -0.1657  0.6594
16945TIP3    H172326   2.445   5.166  17.206 -1.1671 -1.3772 -0.1568
16945TIP3    H272327   2.517   5.194  17.076 -1.4480 -1.8567 -0.4194
16946TIP3   OH272328   1.737   2.520   0.289  0.5998 -0.4674  0.0279
16946TIP3    H172329   1.761   2.493   0.200 -0.1785  2.1406 -1.0554
16946TIP3    H272330   1.642   2.531   0.286  0.8087  1.9984  0.4177
16947TIP3   OH272331   1.769   2.255   1.432  0.1727  0.4163 -0.8884
16947TIP3    H172332   1.721   2.254   1.515  0.6515  1.9329 -0.5607
16947TIP3    H272333   1.861   2.254   1.457  0.4055 -2.6207 -1.5212
16948TIP3   OH272334   1.210   1.175  14.142  0.5499  0.0675  0.4253
16948TIP3    H172335   1.216   1.081  14.154  0.2223  0.0695  0.6073
16948TIP3    H272336   1.301   1.204  14.130  0.5096 -0.8221 -4.0045
16949TIP3   OH272337   0.887   6.358  15.668 -0.1825 -0.0997  0.1665
16949TIP3    H172338   0.815   6.373  15.729  0.7090  1.7928  0.8380
16949TIP3    H272339   0.949   6.304  15.717 -0.9074 -1.3808 -0.2705
16950TIP3   OH272340   3.382   4.750  15.298  0.3391 -0.0953  0.3890
16950TIP3    H172341   3.453   4.689  15.280  0.8055  0.6906 -0.5329
16950TIP3    H272342   3.415   4.835  15.268 -0.7415  0.4010  0.5482
16951TIP3   OH272343   5.122   3.648   6.486 -0.0208 -0.1196 -0.5329
16951TIP3    H172344   5.148   3.569   6.532 -0.0233 -1.4571 -2.6816
16951TIP3    H272345   5.028   3.639   6.474 -0.0948  0.4437 -0.3922
16952TIP3   OH272346   5.670   3.971  13.228  0.2250  0.1708  0.1719
16952TIP3    H172347   5.724   4.050  13.226  2.0324 -1.0099 -0.6629
16952TIP3    H272348   5.715   3.910  13.170 -1.5511 -1.2154  0.1642
16953TIP3   OH272349   3.569   4.545  15.264  0.9191 -0.4795  0.1470
16953TIP3    H172350   3.530   4.493  15.193  1.6393  0.0106 -0.6197
16953TIP3    H272351   3.586   4.481  15.333 -0.0151 -0.9254 -0.0207
16954TIP3   OH272352   5.206   6.671  10.576 -0.2199  0.3501  0.1172
16954TIP3    H172353   5.189   6.759  10.543  0.3617  0.3626 -0.1706
16954TIP3    H272354   5.286   6.680  10.628  1.2577 -0.4263 -1.8692
16955TIP3   OH272355   5.988   5.945   2.192  0.1783  0.5835  0.0840
16955TIP3    H172356   5.927   5.972   2.261 -0.1387 -0.0507  0.0534
16955TIP3    H272357   5.935   5.945   2.112  0.8154  2.4917 -0.4100
16956TIP3   OH272358   1.206   6.733   3.604  0.6654 -0.2508 -0.1126
16956TIP3    H172359   1.113   6.737   3.623  0.7361  0.0525  0.1668
16956TIP3    H272360   1.214   6.663   3.538  0.2497 -0.2991 -0.1118
16957TIP3   OH272361   6.495   0.045   5.399 -0.5114  0.0317  0.3966
16957TIP3    H172362   6.465   0.036   5.309  0.5285 -1.8378  0.1734
16957TIP3    H272363   6.492  -0.045   5.434 -0.0475  0.5785  1.9375
16958TIP3   OH272364   6.779   2.251  14.827 -0.4435  0.0770  0.3588
16958TIP3    H172365   6.842   2.320  14.807  0.3181 -1.0472 -1.3323
16958TIP3    H272366   6.743   2.225  14.742  0.0090 -2.2277  0.7962
16959TIP3   OH272367   3.960   2.479  11.638  0.0044  0.2955 -0.1369
16959TIP3    H172368   3.949   2.494  11.732  1.5318  1.5326 -0.1176
16959TIP3    H272369   3.890   2.530  11.597 -1.8554 -1.7323  0.3374
16960TIP3   OH272370   0.647   6.327  16.143 -0.3815 -0.9021  0.4647
16960TIP3    H172371   0.605   6.360  16.222 -0.2662  0.1733  0.0981
16960TIP3    H272372   0.724   6.280  16.175  1.6623  2.4150  0.9638
16961TIP3   OH272373   2.784   1.093   0.346 -0.5429  0.1665 -0.2609
16961TIP3    H172374   2.770   1.103   0.252  1.1754  0.0943 -0.5720
16961TIP3    H272375   2.810   1.002   0.357 -0.9476  0.1157  0.3248
16962TIP3   OH272376   5.214   1.643   5.851 -0.0344  0.7104 -0.1238
16962TIP3    H172377   5.159   1.597   5.786 -2.1092 -0.3085  2.1667
16962TIP3    H272378   5.287   1.584   5.866 -0.5954  0.0076 -0.0972
16963TIP3   OH272379   5.721   0.436   0.585 -0.0377  0.0548  0.0342
16963TIP3    H172380   5.713   0.513   0.527  0.2156  0.9326  1.1302
16963TIP3    H272381   5.653   0.450   0.652  0.0410 -0.6649  0.2689
16964TIP3   OH272382   1.452   0.197  14.228  0.5956  1.2867 -0.0167
16964TIP3    H172383   1.436   0.117  14.278  1.4855  0.5295 -0.9030
16964TIP3    H272384   1.429   0.267  14.288 -2.0765  0.3713  0.1559
16965TIP3   OH272385   6.618   6.746   1.839 -0.5783 -0.4137 -0.2025
16965TIP3    H172386   6.562   6.711   1.909 -0.0474 -0.3421  0.2656
16965TIP3    H272387   6.557   6.784   1.776 -1.0584 -0.2795  0.3329
16966TIP3   OH272388   5.487   6.808  11.446 -0.3260  0.0407 -0.0595
16966TIP3    H172389   5.439   6.768  11.374 -0.9878 -1.4610  1.1635
16966TIP3    H272390   5.450   6.896  11.454 -0.1621  0.2801 -1.5837
16967TIP3   OH272391   5.285   6.208   2.738 -0.1907  0.3076 -0.0627
16967TIP3    H172392   5.344   6.281   2.756  2.1891 -1.3748 -0.5945
16967TIP3    H272393   5.292   6.195   2.643 -0.0061 -1.0430  0.1213
16968TIP3   OH272394   0.851   0.721  11.331 -0.0624  0.0643  0.0560
16968TIP3    H172395   0.858   0.817  11.334  1.1167 -0.0286  1.7361
16968TIP3    H272396   0.771   0.702  11.380 -0.2618  0.1777 -0.2219
16969TIP3   OH272397   4.781   3.228   0.303 -0.0239 -0.0679  0.3511
16969TIP3    H172398   4.848   3.178   0.257 -0.0505 -0.0454  0.2883
16969TIP3    H272399   4.700   3.208   0.257 -0.0474 -0.0309  0.3761
16970TIP3   OH272400   1.153   5.791   4.314 -0.3794  0.3190 -0.2523
16970TIP3    H172401   1.238   5.749   4.303 -0.3588  0.6869 -1.6341
16970TIP3    H272402   1.115   5.793   4.226 -1.8186  0.1740  0.3340
16971TIP3   OH272403   1.919   0.659  11.806  0.3992 -0.3935  0.0687
16971TIP3    H172404   1.966   0.645  11.724  1.0936  2.3782 -0.1197
16971TIP3    H272405   1.827   0.666  11.780  0.6172  0.4706 -0.5031
16972TIP3   OH272406   5.603   3.591   0.282  0.3654  0.5804 -0.0680
16972TIP3    H172407   5.605   3.548   0.197  1.4233  2.3376 -0.9818
16972TIP3    H272408   5.542   3.664   0.271  2.9573  2.8664 -0.4655
16973TIP3   OH272409   1.304   1.510   4.182  0.2786 -0.3576  0.1320
16973TIP3    H172410   1.285   1.419   4.160  2.2108 -1.0481  1.1235
16973TIP3    H272411   1.385   1.507   4.232 -0.0416  1.8480  0.9178
16974TIP3   OH272412   3.451   6.725  13.444 -0.2192 -0.9019  0.4572
16974TIP3    H172413   3.454   6.818  13.469 -0.1025 -0.1427 -2.1035
16974TIP3    H272414   3.360   6.700  13.458 -0.5913  0.0380 -0.1450
16975TIP3   OH272415   0.911   0.182   2.172  0.2210  0.4652 -0.1771
16975TIP3    H172416   0.927   0.105   2.119  1.2213 -0.8754  1.9249
16975TIP3    H272417   0.979   0.244   2.146  0.2525  0.1071 -0.9518
16976TIP3   OH272418   6.333   4.651   4.592  0.1548  0.1448 -0.4411
16976TIP3    H172419   6.255   4.697   4.561  2.4789  1.1434 -5.9595
16976TIP3    H272420   6.355   4.590   4.522  3.6213 -1.0917  1.4552
16977TIP3   OH272421   4.784   1.802   6.025  0.0855  0.1677  0.0940
16977TIP3    H172422   4.832   1.778   6.104  1.2919  2.2955  0.0735
16977TIP3    H272423   4.692   1.794   6.050  0.4015 -1.6698  0.8690
16978TIP3   OH272424   0.896   2.727  11.230  0.0887  0.2786  0.0373
16978TIP3    H172425   0.862   2.730  11.320  1.4315  0.5193  0.5484
16978TIP3    H272426   0.894   2.634  11.207  2.2442 -0.1474  1.3271
16979TIP3   OH272427   5.485   4.948   3.799  0.2958 -0.4036  0.7150
16979TIP3    H172428   5.435   4.975   3.722 -0.4071 -0.6520  1.0831
16979TIP3    H272429   5.507   4.857   3.783 -0.4165 -0.6460  1.1059
16980TIP3   OH272430   3.880   1.857  16.149  0.1590  0.1999  0.0978
16980TIP3    H172431   3.864   1.762  16.149  1.2824 -0.0171  1.0845
16980TIP3    H272432   3.916   1.875  16.235  1.9512  1.1774 -0.8070
16981TIP3   OH272433   5.984   6.656  11.959 -0.1432 -0.1888 -0.2417
16981TIP3    H172434   6.036   6.735  11.973  0.4649 -0.7340  0.6982
16981TIP3    H272435   5.898   6.689  11.933 -0.2617  0.8406  1.2937
16982TIP3   OH272436   1.394   4.427   4.255 -0.2961 -0.5191 -0.1233
16982TIP3    H172437   1.329   4.418   4.324 -0.3996 -1.3268 -0.3222
16982TIP3    H272438   1.347   4.405   4.174 -0.8031  2.5782 -0.7918
16983TIP3   OH272439   3.299   4.909   2.147  0.1614 -0.1762  0.4358
16983TIP3    H172440   3.318   4.917   2.053  0.7640 -0.9704  0.4808
16983TIP3    H272441   3.384   4.911   2.189 -0.1473  0.9633  1.0493
16984TIP3   OH272442   2.020   1.856   1.776 -0.2695 -0.3946  0.5859
16984TIP3    H172443   2.039   1.899   1.693 -0.2791 -0.7446  0.4033
16984TIP3    H272444   1.969   1.779   1.753 -1.2452  0.1039  1.0104
16985TIP3   OH272445   1.747   5.428   0.146 -0.1155 -0.0334  0.0090
16985TIP3    H172446   1.710   5.503   0.099  0.1375  0.4563  0.5723
16985TIP3    H272447   1.836   5.420   0.112  1.1435  2.2084  2.4453
16986TIP3   OH272448   5.651   4.959   4.788  0.3158  0.0438  0.5729
16986TIP3    H172449   5.617   4.885   4.738  1.8088 -0.7668  0.6788
16986TIP3    H272450   5.591   4.968   4.862 -0.8293  0.0320 -0.3195
16987TIP3   OH272451   6.300   2.376   5.618 -0.6568 -0.1326 -0.3309
16987TIP3    H172452   6.380   2.378   5.671  0.6951  2.2890 -2.2693
16987TIP3    H272453   6.257   2.459   5.637 -0.0862  0.8510 -2.9570
16988TIP3   OH272454   1.846   4.782   1.190 -0.3971  0.1821 -0.4063
16988TIP3    H172455   1.852   4.785   1.094  0.1209  2.5173 -0.3718
16988TIP3    H272456   1.929   4.817   1.220 -0.8100  0.0973  0.8847
16989TIP3   OH272457   5.555   1.374   0.370  0.2758  0.6257  0.5002
16989TIP3    H172458   5.511   1.296   0.336  2.0832  0.4935 -1.7657
16989TIP3    H272459   5.596   1.345   0.452 -0.1064 -0.4469  0.3277
16990TIP3   OH272460   5.497   0.578   3.453 -0.1743  0.2213  0.5670
16990TIP3    H172461   5.592   0.574   3.443 -0.2174 -0.5816  0.4233
16990TIP3    H272462   5.466   0.491   3.427 -0.7554 -0.2658  2.6669
16991TIP3   OH272463   6.594   4.332  12.753  0.3773 -0.3879  0.5987
16991TIP3    H172464   6.559   4.329  12.664 -0.9856  0.5095  1.0714
16991TIP3    H272465   6.670   4.390  12.746  0.3812 -0.4510 -0.0048
16992TIP3   OH272466   5.512   0.851   5.213 -0.0906 -0.8925 -1.1624
16992TIP3    H172467   5.474   0.891   5.292  1.3693 -0.1502 -0.8139
16992TIP3    H272468   5.505   0.757   5.229  0.5612 -0.7592  0.0578
16993TIP3   OH272469   6.551   3.761  16.659 -0.4153  0.2539 -0.4127
16993TIP3    H172470   6.477   3.750  16.599  0.3928 -0.5696 -1.2981
16993TIP3    H272471   6.521   3.726  16.742 -1.2244  0.5028 -0.5923
16994TIP3   OH272472   2.217   3.691   5.892 -0.2473 -0.4084  0.6669
16994TIP3    H172473   2.163   3.745   5.835 -0.3856  0.0735  1.2409
16994TIP3    H272474   2.193   3.601   5.870  0.3799 -0.2682 -0.6849
16995TIP3   OH272475   5.269   3.927   4.566  0.1028 -0.1165 -0.1127
16995TIP3    H172476   5.346   3.908   4.620  0.9110  1.5234 -0.6073
16995TIP3    H272477   5.200   3.871   4.602  1.2662 -0.9214  0.9690
16996TIP3   OH272478   1.239   1.833  12.081 -0.1841  0.3314 -0.6237
16996TIP3    H172479   1.163   1.890  12.081 -0.4864 -0.0653 -0.6869
16996TIP3    H272480   1.210   1.755  12.032 -0.8828 -1.3468  2.2173
16997TIP3   OH272481   3.578   1.835   1.812  0.0197  0.3793  0.0742
16997TIP3    H172482   3.622   1.841   1.727 -1.5439 -1.5668 -0.9380
16997TIP3    H272483   3.580   1.742   1.834  1.4969  0.9638  2.8515
16998TIP3   OH272484   4.232   0.355  11.365 -0.0633 -0.0837  0.1333
16998TIP3    H172485   4.194   0.289  11.307  0.3825 -1.4297  1.3157
16998TIP3    H272486   4.274   0.417  11.305  0.7179 -1.6340 -1.0125
16999TIP3   OH272487   0.457   1.851   1.068  0.2716 -0.1093 -0.7066
16999TIP3    H172488   0.377   1.902   1.054  0.0176 -0.0744  0.8044
16999TIP3    H272489   0.466   1.845   1.163  0.3279 -2.7977 -0.8082
17000TIP3   OH272490   1.784   4.436  10.493 -0.4359  1.0259 -0.3984
17000TIP3    H172491   1.718   4.424  10.562  0.0189  0.9865  0.0383
17000TIP3    H272492   1.855   4.483  10.537  0.5074 -0.3064 -0.4364
17001TIP3   OH272493   2.185   2.540  13.908 -0.0439  0.4465 -0.0529
17001TIP3    H172494   2.214   2.622  13.869  1.8732 -0.1398  0.0181
17001TIP3    H272495   2.230   2.472  13.857 -2.1798 -0.6262 -0.6116
17002TIP3   OH272496   5.397   5.569  14.121 -0.5319 -0.0818  0.3151
17002TIP3    H172497   5.431   5.655  14.146 -0.1531 -0.0945 -0.1276
17002TIP3    H272498   5.448   5.545  14.043 -0.5122 -0.7844  0.5324
17003TIP3   OH272499   3.064   1.581  12.173 -0.4491 -0.6201 -0.2350
17003TIP3    H172500   2.991   1.593  12.111  0.9442 -0.3258 -1.8958
17003TIP3    H272501   3.088   1.489  12.164 -1.1984 -0.9648  1.0334
17004TIP3   OH272502   5.431   2.711   5.703 -0.2288 -0.4469 -0.0201
17004TIP3    H172503   5.520   2.715   5.670  0.0317 -2.1591  0.4031
17004TIP3    H272504   5.380   2.673   5.631 -0.2473 -1.2564  0.4146
17005TIP3   OH272505   3.894   1.606   3.316  0.1110  0.5322 -0.4187
17005TIP3    H172506   3.967   1.667   3.303  0.3123  0.3703 -0.0512
17005TIP3    H272507   3.935   1.526   3.348  0.0059 -0.2957 -2.2548
17006TIP3   OH272508   4.492   4.357  13.360  0.5810 -0.2238 -0.2561
17006TIP3    H172509   4.494   4.296  13.286 -1.3903 -0.3346 -0.2779
17006TIP3    H272510   4.550   4.318  13.425  1.0039 -1.0172 -1.0856
17007TIP3   OH272511   0.724   0.833   5.675 -0.7149  0.1917  0.3499
17007TIP3    H172512   0.732   0.814   5.582 -0.4421 -1.3732  0.6560
17007TIP3    H272513   0.636   0.802   5.698 -0.2162 -0.8719  0.8990
17008TIP3   OH272514   5.377   1.868   2.201 -0.0039  0.5103  0.1893
17008TIP3    H172515   5.409   1.870   2.292  0.3307  0.8014  0.0709
17008TIP3    H272516   5.456   1.854   2.149 -0.4416 -1.8174  0.0452
17009TIP3   OH272517   4.656   3.613  14.312  0.0225  0.3002 -0.3590
17009TIP3    H172518   4.732   3.558  14.292 -0.7179 -0.3201 -1.5313
17009TIP3    H272519   4.602   3.558  14.369 -0.0328  0.3578 -0.3570
17010TIP3   OH272520   6.154   1.739  12.796 -0.2574 -0.3247 -0.2323
17010TIP3    H172521   6.076   1.683  12.793 -0.5496  0.0488  0.3064
17010TIP3    H272522   6.211   1.704  12.727 -0.2568 -1.5529  0.3686
17011TIP3   OH272523   5.660   1.763   3.736  0.3336 -0.3800  0.0150
17011TIP3    H172524   5.658   1.840   3.679  0.1344 -1.7474 -1.9108
17011TIP3    H272525   5.656   1.688   3.676 -0.1822 -1.9011  1.8498
17012TIP3   OH272526   4.616   3.626  11.498 -0.5182 -0.5550 -0.0456
17012TIP3    H172527   4.661   3.576  11.566 -0.1779 -1.7805 -1.1359
17012TIP3    H272528   4.674   3.621  11.422 -1.5150 -0.3615 -0.8397
17013TIP3   OH272529   4.019   3.070  14.606  0.2141 -0.1125  0.3977
17013TIP3    H172530   3.984   3.063  14.517  0.9131 -2.5265  0.2245
17013TIP3    H272531   4.111   3.093  14.594  0.4183 -0.8695  0.4436
17014TIP3   OH272532   4.743   2.506  11.486 -0.0968 -0.9447 -0.6098
17014TIP3    H172533   4.818   2.460  11.449  0.0137 -2.4053  1.2608
17014TIP3    H272534   4.692   2.438  11.530 -1.4122  0.3316 -0.0615
17015TIP3   OH272535   0.942   5.202  16.637  0.4882 -0.1654 -0.3567
17015TIP3    H172536   1.004   5.270  16.611  0.0389 -0.1427 -1.4377
17015TIP3    H272537   0.976   5.123  16.595 -0.2803 -0.1224 -1.0724
17016TIP3   OH272538   0.601   2.161   0.333  0.0484 -0.2431 -0.2491
17016TIP3    H172539   0.545   2.239   0.327 -0.1243 -0.4293 -1.4332
17016TIP3    H272540   0.630   2.159   0.424 -1.4543  0.1422  0.2743
17017TIP3   OH272541   1.509   0.684  10.794  0.0447  0.1638 -0.3169
17017TIP3    H172542   1.548   0.668  10.880 -0.1279  0.2364 -0.2240
17017TIP3    H272543   1.536   0.774  10.772  0.8497 -0.1674 -0.7498
17018TIP3   OH272544   2.617   0.523  15.334 -0.4367 -0.0553  0.6091
17018TIP3    H172545   2.646   0.596  15.279 -1.0432 -0.8504 -0.8150
17018TIP3    H272546   2.690   0.508  15.394 -0.3087  1.7185  0.9479
17019TIP3   OH272547   0.555   6.702   5.947 -0.6242 -0.2270 -0.2064
17019TIP3    H172548   0.613   6.722   6.020 -0.2035 -0.2555 -0.5242
17019TIP3    H272549   0.608   6.647   5.889 -0.7094  0.3596 -0.8617
17020TIP3   OH272550   6.569   2.251  12.546  0.4544 -0.1685  0.0466
17020TIP3    H172551   6.634   2.278  12.482  1.0402  1.2553  1.1762
17020TIP3    H272552   6.598   2.292  12.628 -2.3726  1.4030  0.3961
17021TIP3   OH272553   2.751   3.921   3.150  0.6038  0.1476 -0.4783
17021TIP3    H172554   2.762   3.836   3.108 -1.2818 -0.4602  0.1372
17021TIP3    H272555   2.806   3.918   3.228 -0.0739 -0.8351 -0.0292
17022TIP3   OH272556   2.941   2.549   1.452  0.6563  0.2474 -0.0610
17022TIP3    H172557   2.974   2.491   1.384  0.4365  0.2628 -0.1826
17022TIP3    H272558   3.012   2.553   1.517  0.0982 -1.3560  0.7050
17023TIP3   OH272559   0.214   3.148   2.321  0.3187  0.1261  0.1639
17023TIP3    H172560   0.174   3.168   2.237  0.5606  0.0996  0.0435
17023TIP3    H272561   0.140   3.129   2.379  0.2387 -2.1307 -0.6036
17024TIP3   OH272562   5.607   2.164  13.024 -0.1663 -0.2096  0.1600
17024TIP3    H172563   5.658   2.120  13.092 -0.3636 -1.0831 -0.2436
17024TIP3    H272564   5.562   2.093  12.978 -1.4465  0.5076  0.2572
17025TIP3   OH272565   1.558   0.189   5.378 -0.0531  0.4410 -0.2096
17025TIP3    H172566   1.626   0.128   5.347 -0.3378  0.9921 -2.0145
17025TIP3    H272567   1.596   0.276   5.366  0.0841  0.7013  1.7181
17026TIP3   OH272568   2.495   3.719   0.228 -0.0895 -0.1162 -0.2736
17026TIP3    H172569   2.516   3.626   0.220  0.7483  0.0398  0.1052
17026TIP3    H272570   2.575   3.760   0.259 -1.1947  0.3311  2.1988
17027TIP3   OH272571   6.147   1.203   6.861 -0.3046  0.0504  0.7036
17027TIP3    H172572   6.144   1.110   6.838  1.4225 -0.0980  0.8948
17027TIP3    H272573   6.060   1.222   6.895 -0.9059 -1.3241  0.0320
17028TIP3   OH272574   0.172   2.381   1.899  0.2512  0.3959  0.3728
17028TIP3    H172575   0.256   2.348   1.931  0.8972  0.6905 -0.9434
17028TIP3    H272576   0.119   2.303   1.884  0.4274  0.1863  0.8290
17029TIP3   OH272577   0.191   0.918   2.148  0.1853  0.4581 -0.3596
17029TIP3    H172578   0.167   0.844   2.091 -2.4079 -1.7211  3.1453
17029TIP3    H272579   0.132   0.988   2.122  0.0306  0.0146 -1.2514
17030TIP3   OH272580   5.489   1.268   3.939 -0.8354 -0.4167 -0.2511
17030TIP3    H172581   5.559   1.290   3.878 -0.1102 -1.4648  0.1673
17030TIP3    H272582   5.425   1.219   3.887 -1.0872  0.2375 -0.5568
17031TIP3   OH272583   6.753   1.017  14.113 -0.6022 -0.4453  0.1387
17031TIP3    H172584   6.790   0.981  14.032 -0.1073  0.8731 -0.2408
17031TIP3    H272585   6.703   1.093  14.085 -0.0437  0.2958  1.1203
17032TIP3   OH272586   6.682   5.304  16.069  0.0422 -0.1134  0.2022
17032TIP3    H172587   6.664   5.346  16.153  1.4114  0.0432  0.4300
17032TIP3    H272588   6.729   5.224  16.092 -1.4816 -1.1903 -0.3049
17033TIP3   OH272589   3.146   2.166  12.933 -0.8147 -0.0200 -0.1368
17033TIP3    H172590   3.188   2.201  12.855  1.6427 -0.2079  1.0011
17033TIP3    H272591   3.162   2.072  12.929  0.9801  0.1444  1.3821
17034TIP3   OH272592   1.755   5.238   0.341 -0.1528  0.3191  0.3852
17034TIP3    H172593   1.753   5.293   0.263  1.4854 -0.1481 -0.0355
17034TIP3    H272594   1.726   5.152   0.311 -1.2169  0.5635  0.6956
17035TIP3   OH272595   2.209   2.443  14.975 -0.1878  0.1254 -0.2100
17035TIP3    H172596   2.205   2.467  14.883  1.4976 -0.4522 -0.4696
17035TIP3    H272597   2.303   2.443  14.996 -0.5438  0.4074  1.5470
17036TIP3   OH272598   2.727   3.564   5.713 -0.1962 -0.1400 -0.6405
17036TIP3    H172599   2.682   3.483   5.734 -2.7554  1.0634 -1.0543
17036TIP3    H272600   2.683   3.631   5.765  0.8184  1.2118 -1.4278
17037TIP3   OH272601   3.272   4.590  14.398 -0.2331  0.5117 -0.0480
17037TIP3    H172602   3.192   4.538  14.400  0.2270 -0.2013  0.7465
17037TIP3    H272603   3.284   4.620  14.488 -0.5636  2.1514 -0.5119
17038TIP3   OH272604   4.904   2.280  15.654 -0.5110  0.3230 -0.7846
17038TIP3    H172605   4.908   2.222  15.730 -0.1539  0.5600 -0.6168
17038TIP3    H272606   4.912   2.369  15.691  2.9616  0.3708 -1.2604
17039TIP3   OH272607   1.039   4.966  14.855 -0.9419 -0.1495  0.0200
17039TIP3    H172608   0.949   4.989  14.834 -0.7703  1.3631  0.8207
17039TIP3    H272609   1.092   5.022  14.798 -0.4444 -2.2452 -1.7271
17040TIP3   OH272610   1.067   4.990   4.958 -0.0430 -0.2384 -0.3510
17040TIP3    H172611   0.975   4.971   4.976  0.0567 -0.6073 -0.2229
17040TIP3    H272612   1.113   4.907   4.974  0.2878 -0.1061 -0.5882
17041TIP3   OH272613   2.375   1.628   5.053 -0.8411  0.1491  0.4498
17041TIP3    H172614   2.341   1.638   4.964 -1.8182  0.4821  0.8394
17041TIP3    H272615   2.360   1.713   5.094  0.3570  0.2622  0.7007
17042TIP3   OH272616   0.923   0.376   0.457 -0.2690 -0.0667 -0.1076
17042TIP3    H172617   0.985   0.336   0.396  1.1084 -0.0537  1.2031
17042TIP3    H272618   0.934   0.470   0.444 -1.0244 -0.0648 -0.8125
17043TIP3   OH272619   3.083   2.548   6.713  0.3948  0.4998  0.1510
17043TIP3    H172620   3.136   2.520   6.639 -1.0393 -2.8531  0.2076
17043TIP3    H272621   2.995   2.514   6.694  0.0951 -1.0143  3.5705
17044TIP3   OH272622   6.149   1.692   3.797  0.1809  0.1481 -0.4185
17044TIP3    H172623   6.064   1.724   3.828  1.2345 -0.4541  3.7647
17044TIP3    H272624   6.140   1.596   3.801  0.4760  0.0459 -1.9156
17045TIP3   OH272625   1.914   0.064  15.725  0.0714  0.3373 -0.1509
17045TIP3    H172626   1.930  -0.014  15.673  0.6083  0.5468 -0.3080
17045TIP3    H272627   1.823   0.057  15.753 -0.0850  0.0014 -0.7439
17046TIP3   OH272628   3.144   1.768   4.200  0.0732 -0.0185  0.0418
17046TIP3    H172629   3.086   1.714   4.147 -0.2793  0.3399  0.0597
17046TIP3    H272630   3.231   1.731   4.185  0.3361  1.3485 -2.4924
17047TIP3   OH272631   1.360   0.725   1.602  0.4476 -0.1341  0.1765
17047TIP3    H172632   1.441   0.687   1.634  0.3752 -1.2832 -0.9373
17047TIP3    H272633   1.383   0.764   1.518  0.0699  0.4460  0.3409
17048TIP3   OH272634   6.363   3.612  11.495  0.3533  0.2546  0.9646
17048TIP3    H172635   6.330   3.540  11.441  2.8777 -1.6445  1.7774
17048TIP3    H272636   6.405   3.672  11.433 -0.3715  0.2524  0.4533
17049TIP3   OH272637   3.650   6.336  15.019  0.0862 -0.5360 -0.2637
17049TIP3    H172638   3.646   6.241  15.027 -0.2084 -0.6214 -1.3398
17049TIP3    H272639   3.573   6.367  15.066  0.4794 -0.7914  0.5628
17050TIP3   OH272640   4.562   5.152  10.188  0.0870  0.1654  0.2675
17050TIP3    H172641   4.468   5.147  10.168  0.6697 -0.4472 -2.7665
17050TIP3    H272642   4.571   5.104  10.271 -2.4897  1.9662  1.7550
17051TIP3   OH272643   6.549   4.762  16.607  0.5968  0.5372 -0.5430
17051TIP3    H172644   6.531   4.783  16.699 -0.1608 -1.0022 -0.2961
17051TIP3    H272645   6.584   4.673  16.610  3.9338  1.6915 -1.4750
17052TIP3   OH272646   0.675   1.267   2.977 -0.2547 -0.4550 -0.1113
17052TIP3    H172647   0.655   1.352   2.937  1.1090 -0.3088 -0.5206
17052TIP3    H272648   0.660   1.203   2.907  1.5089 -0.2594 -0.7034
17053TIP3   OH272649   1.716   1.213  13.890 -0.2137  0.0477 -0.3481
17053TIP3    H172650   1.749   1.302  13.905  0.6358 -0.5104  1.4252
17053TIP3    H272651   1.648   1.223  13.823 -0.9341  2.2062  0.6184
17054TIP3   OH272652   5.201   6.150   4.199  0.4284 -0.2293  0.4058
17054TIP3    H172653   5.241   6.096   4.267 -2.5924 -0.7912  1.8903
17054TIP3    H272654   5.159   6.088   4.140 -1.1510  0.3709  0.8505
17055TIP3   OH272655   3.771   4.832   2.726  0.2815 -0.6762  0.5457
17055TIP3    H172656   3.865   4.843   2.738  0.4446 -1.1439 -0.2178
17055TIP3    H272657   3.761   4.812   2.633 -0.5797 -0.5654  0.6073
17056TIP3   OH272658   2.885   4.802  14.285  0.0750 -0.0717 -1.8601
17056TIP3    H172659   2.922   4.759  14.209  0.0709 -1.4719 -1.0966
17056TIP3    H272660   2.829   4.736  14.326  0.4586  0.4746 -0.3724
17057TIP3   OH272661   1.234   5.114  14.729  0.2049 -0.4276  0.1983
17057TIP3    H172662   1.320   5.083  14.701  0.3797 -1.0428  1.3656
17057TIP3    H272663   1.252   5.188  14.786  0.1155 -1.7477  2.0429
17058TIP3   OH272664   2.120   0.253  16.803 -0.2237  0.4642  0.2282
17058TIP3    H172665   2.069   0.328  16.772 -0.3229  0.0926 -0.5158
17058TIP3    H272666   2.160   0.284  16.884  1.9340  2.2864 -1.4080
17059TIP3   OH272667   6.083   3.999   0.781  0.5869  0.2282 -0.5063
17059TIP3    H172668   5.993   4.006   0.750 -0.7726 -0.5613  2.8459
17059TIP3    H272669   6.081   4.035   0.870  3.0370 -1.9108  0.5458
17060TIP3   OH272670   2.398   2.094  14.322 -0.4650 -0.0735 -0.2668
17060TIP3    H172671   2.403   2.042  14.242 -0.0153 -0.7068  0.1649
17060TIP3    H272672   2.348   2.172  14.297 -3.1668 -1.7200 -0.3705
17061TIP3   OH272673   4.344   5.285  13.468 -0.1448  0.3558  0.0716
17061TIP3    H172674   4.284   5.221  13.430 -0.4936  0.8555 -0.2313
17061TIP3    H272675   4.308   5.302  13.556  0.4495 -0.5171  0.4977
17062TIP3   OH272676   6.303   4.228   2.812 -0.1658 -0.5640  0.2576
17062TIP3    H172677   6.362   4.293   2.852  0.1289 -0.0861 -0.8951
17062TIP3    H272678   6.333   4.222   2.721 -2.6592  0.6201 -0.7275
17063TIP3   OH272679   5.772   4.095   5.206 -0.0628 -0.4785 -0.0117
17063TIP3    H172680   5.682   4.102   5.175 -0.0230 -0.3761 -0.1058
17063TIP3    H272681   5.774   4.146   5.287 -0.0726 -0.4207 -0.0477
17064TIP3   OH272682   1.914   3.109   0.692  0.2920  0.3135 -0.2633
17064TIP3    H172683   1.883   3.023   0.721  0.4202  0.7519  1.2485
17064TIP3    H272684   1.906   3.164   0.769  1.4816  1.3357 -0.8419
17065TIP3   OH272685   1.208   3.910  16.295  0.3458  0.8071  0.4166
17065TIP3    H172686   1.213   3.815  16.296  3.4352  0.8882  0.9670
17065TIP3    H272687   1.126   3.930  16.341 -0.7516 -1.5378 -0.3722
17066TIP3   OH272688   1.828   4.511  16.993  0.2924 -0.3323 -0.7876
17066TIP3    H172689   1.921   4.509  16.971  0.3778 -0.8848 -0.3917
17066TIP3    H272690   1.784   4.528  16.910  0.8889  3.5718 -0.5197
17067TIP3   OH272691   4.919   4.834   5.540 -0.0177 -0.0960  0.2252
17067TIP3    H172692   4.904   4.831   5.635  0.7054  1.8289  0.4461
17067TIP3    H272693   4.832   4.820   5.502 -0.8190  1.6934  1.2591
17068TIP3   OH272694   5.772   4.647   4.747  0.2160 -0.1684 -0.6511
17068TIP3    H172695   5.687   4.652   4.792  1.2860 -3.7489  2.2591
17068TIP3    H272696   5.749   4.627   4.656 -2.1126 -1.0094  0.0383
17069TIP3   OH272697   2.007   1.738  14.745 -0.3428 -0.2906 -0.8012
17069TIP3    H172698   2.069   1.752  14.674  0.1082  0.8631 -0.2117
17069TIP3    H272699   2.035   1.798  14.814 -1.5712 -0.4061 -0.1644
17070TIP3   OH272700   1.456   4.474   4.987 -0.1126 -0.3877  0.6138
17070TIP3    H172701   1.404   4.460   4.908 -0.8351 -1.5511  1.2807
17070TIP3    H272702   1.544   4.495   4.954 -0.8374  1.0658 -0.5082
17071TIP3   OH272703   2.255   0.945   2.622 -0.1617 -0.3367  0.1171
17071TIP3    H172704   2.236   0.899   2.704 -0.8535 -0.4211 -0.0848
17071TIP3    H272705   2.301   1.025   2.649  2.7562 -1.9745  0.3636
17072TIP3   OH272706   2.553   3.356  14.600  0.4648 -0.2442 -0.3422
17072TIP3    H172707   2.571   3.288  14.535  3.2604 -0.4051  0.4620
17072TIP3    H272708   2.547   3.437  14.549  1.2935 -0.5447 -0.9306
17073TIP3   OH272709   6.535   0.261   2.183 -0.1955  0.3552  0.0593
17073TIP3    H172710   6.610   0.290   2.236 -1.1369 -1.2726  2.4524
17073TIP3    H272711   6.574   0.208   2.114  0.8904 -3.7518  3.4253
17074TIP3   OH272712   4.026   2.146  14.689 -0.1282 -0.4017  0.4366
17074TIP3    H172713   4.033   2.091  14.767  1.1821 -1.9868 -0.7355
17074TIP3    H272714   4.112   2.186  14.679 -0.4558  0.2416  0.1138
17075TIP3   OH272715   2.136   6.349   4.730 -0.0745  0.1528 -0.1929
17075TIP3    H172716   2.115   6.294   4.805  0.6182  0.1758  0.0239
17075TIP3    H272717   2.229   6.333   4.713  0.4583  2.1008  0.6123
17076TIP3   OH272718   3.467   2.650   5.465  0.4251  0.2315 -0.3591
17076TIP3    H172719   3.527   2.581   5.493  1.3489  0.5146 -1.5546
17076TIP3    H272720   3.381   2.621   5.495  1.1722 -0.0187  1.6989
17077TIP3   OH272721   0.379   4.346   1.100  0.1149  0.3585  0.0648
17077TIP3    H172722   0.472   4.362   1.088  0.3199 -1.6285 -1.4504
17077TIP3    H272723   0.374   4.281   1.171 -0.1556  0.7312  0.3947
17078TIP3   OH272724   0.142   2.930  12.222 -0.4414 -0.0447 -0.5333
17078TIP3    H172725   0.109   2.887  12.301 -0.8559 -1.3680 -1.3745
17078TIP3    H272726   0.190   3.006  12.253  1.1963 -1.6587  1.1507
17079TIP3   OH272727   4.875   6.085  13.437 -0.3386  0.1979 -0.3282
17079TIP3    H172728   4.941   6.129  13.384 -0.1086 -0.0452 -0.2423
17079TIP3    H272729   4.795   6.134  13.420 -0.2017  0.3079 -0.6644
17080TIP3   OH272730   0.894   2.004   3.977  0.1648  0.1921 -0.3185
17080TIP3    H172731   0.832   1.989   3.906 -0.5309 -0.1545  0.3455
17080TIP3    H272732   0.942   1.921   3.985 -0.6641 -0.2317  0.4649
17081TIP3   OH272733   4.603   2.909  10.652 -0.4680 -0.0981 -0.2790
17081TIP3    H172734   4.654   2.937  10.728  1.5458  0.4725 -1.7683
17081TIP3    H272735   4.664   2.860  10.597 -0.9104  2.1193 -3.0015
17082TIP3   OH272736   0.331   1.065  17.184 -0.9306 -0.5441 -0.1891
17082TIP3    H172737   0.301   1.148  17.219  4.1399  0.4398  2.8605
17082TIP3    H272738   0.348   1.083  17.091 -1.0537  1.4667  0.1351
17083TIP3   OH272739   1.770   1.785  11.361 -0.1011  0.2010 -0.6001
17083TIP3    H172740   1.804   1.801  11.449  1.7017  1.1264 -1.3997
17083TIP3    H272741   1.721   1.865  11.340 -1.8224 -0.6410  0.1017
17084TIP3   OH272742   2.508   1.415   3.000  0.3946  0.5299 -0.2603
17084TIP3    H172743   2.593   1.391   2.963  0.2710 -0.3064 -0.0041
17084TIP3    H272744   2.527   1.437   3.091  0.2516 -0.2358 -0.0401
17085TIP3   OH272745   3.626   0.669   1.847  0.2226 -0.5859 -0.2033
17085TIP3    H172746   3.622   0.574   1.862  3.7205 -0.7334  0.6873
17085TIP3    H272747   3.553   0.704   1.898  0.4687 -2.6022  1.6887
17086TIP3   OH272748   2.397   5.504   3.525 -0.0824  0.2825 -0.2597
17086TIP3    H172749   2.490   5.493   3.508 -0.5253 -3.0828 -1.1507
17086TIP3    H272750   2.365   5.554   3.449  0.5869 -0.9111 -1.3715
17087TIP3   OH272751   1.228   1.119   5.519  0.3958  0.0448  0.0691
17087TIP3    H172752   1.191   1.044   5.564 -0.1201  0.0904 -0.2622
17087TIP3    H272753   1.219   1.098   5.426  0.8896  0.2126 -0.0224
17088TIP3   OH272754   6.225   4.923  13.220  0.2231 -0.8443 -0.2534
17088TIP3    H172755   6.204   4.955  13.307 -0.6176 -0.6852 -0.5017
17088TIP3    H272756   6.198   4.994  13.161  1.8252 -0.4780 -0.5850
17089TIP3   OH272757   1.689   0.109   0.749  0.2215  0.1741  0.4501
17089TIP3    H172758   1.726   0.191   0.782  0.7406  1.1180 -2.1680
17089TIP3    H272759   1.600   0.133   0.721  0.3442 -0.1736 -0.2528
17090TIP3   OH272760   6.644   2.045  13.548 -0.3716 -0.5320  0.4536
17090TIP3    H172761   6.731   2.086  13.550 -0.4616 -0.3663  2.8233
17090TIP3    H272762   6.584   2.115  13.574 -1.1296 -0.8826 -0.3277
17091TIP3   OH272763   3.710   1.891   2.077  0.0837 -0.0445  0.4080
17091TIP3    H172764   3.640   1.889   2.011  0.2577  1.4674  0.1385
17091TIP3    H272765   3.745   1.802   2.077 -1.0767 -0.5365 -0.2758
17092TIP3   OH272766   5.542   4.693   0.762  0.1837 -0.8934 -0.5914
17092TIP3    H172767   5.633   4.706   0.788  0.1919 -0.5589 -0.7896
17092TIP3    H272768   5.491   4.727   0.837  0.2021  0.5073 -1.1893
17093TIP3   OH272769   5.107   1.523   5.524 -0.3388  0.7762 -0.2947
17093TIP3    H172770   5.077   1.509   5.434 -0.6933 -0.4677 -0.0034
17093TIP3    H272771   5.059   1.458   5.575  1.1129  0.3205  0.5422
17094TIP3   OH272772   6.081   5.312   3.040  0.3664  0.3609 -0.1311
17094TIP3    H172773   6.066   5.327   2.946  1.2835 -1.5311 -0.6186
17094TIP3    H272774   6.175   5.299   3.047  0.2025 -0.3032  0.9321
17095TIP3   OH272775   6.756   5.325  12.920  0.1718  0.5554  0.1225
17095TIP3    H172776   6.832   5.320  12.862  1.5683  1.8943  1.7104
17095TIP3    H272777   6.777   5.264  12.991 -0.5112  0.5109  0.2867
17096TIP3   OH272778   6.185   4.870  11.306 -0.1551  0.5273 -0.1205
17096TIP3    H172779   6.260   4.815  11.283  1.0555  1.7108  0.8246
17096TIP3    H272780   6.116   4.808  11.330 -0.6149 -0.7189 -3.9217
17097TIP3   OH272781   6.314   5.687   6.672 -0.2276 -0.4062  0.1735
17097TIP3    H172782   6.401   5.647   6.670  0.4575  0.9790  0.7266
17097TIP3    H272783   6.260   5.624   6.721  0.8968 -0.5208  1.3372
17098TIP3   OH272784   6.802   2.376  15.806  0.1190  0.3643 -0.4848
17098TIP3    H172785   6.819   2.467  15.780  0.4768  0.6657  0.7388
17098TIP3    H272786   6.810   2.326  15.725 -0.1320  1.4271 -1.1915
17099TIP3   OH272787   4.975   6.287   4.293  0.8350 -0.0995 -0.1768
17099TIP3    H172788   4.906   6.239   4.248  1.6424 -1.2174 -0.2845
17099TIP3    H272789   5.054   6.268   4.242  0.9480  2.7147 -1.2156
17100TIP3   OH272790   4.348   6.008  11.683  1.3053  0.1699 -0.1912
17100TIP3    H172791   4.263   5.978  11.652  0.4383  1.4702  0.8167
17100TIP3    H272792   4.403   6.010  11.604  0.8098 -1.8670 -0.6539
17101TIP3   OH272793   1.575   1.729   0.932  0.9592  0.0269 -0.0547
17101TIP3    H172794   1.595   1.730   0.838  0.6404 -0.5701 -0.1334
17101TIP3    H272795   1.577   1.636   0.956  1.1356  0.1798  0.5540
17102TIP3   OH272796   0.992   0.718   5.437  0.0360  0.0960  0.5109
17102TIP3    H172797   1.059   0.712   5.368  0.3606 -0.7247  0.8756
17102TIP3    H272798   0.918   0.669   5.402 -1.1836  2.6283 -0.7286
17103TIP3   OH272799   0.013   6.097  10.854  0.3429  0.9085 -0.2586
17103TIP3    H172800   0.042   6.153  10.782  0.8431  0.1751 -0.6404
17103TIP3    H272801   0.091   6.083  10.907  0.0476  1.1884  0.2508
17104TIP3   OH272802   6.490   5.632  13.690 -0.0199  0.3158  0.0727
17104TIP3    H172803   6.523   5.707  13.738 -1.0886  0.3922  0.7196
17104TIP3    H272804   6.494   5.658  13.598 -1.1028  1.4816  0.3352
17105TIP3   OH272805   2.462   6.304  16.452  0.1523  0.2964  0.1701
17105TIP3    H172806   2.457   6.348  16.367 -0.2842  1.5933  0.8214
17105TIP3    H272807   2.528   6.236  16.441  0.0322  0.3841 -1.2284
17106TIP3   OH272808   0.329   6.037   4.573 -0.0973 -0.4829 -0.0608
17106TIP3    H172809   0.357   5.961   4.521 -2.2127 -1.0528 -0.5127
17106TIP3    H272810   0.365   6.112   4.527 -0.0421 -1.1011 -1.0685
17107TIP3   OH272811   0.769   4.774  15.001 -0.3211 -0.9451 -0.3828
17107TIP3    H172812   0.789   4.723  14.923  0.1500 -1.1483 -0.1344
17107TIP3    H272813   0.790   4.716  15.074  1.3904 -0.0053 -0.0740
17108TIP3   OH272814   3.494   3.320   1.070  0.1339  0.0801  0.2741
17108TIP3    H172815   3.452   3.320   0.984 -0.0729 -1.0624  0.3501
17108TIP3    H272816   3.541   3.236   1.074  0.5379  0.3259  1.0866
17109TIP3   OH272817   6.334   5.569   3.988 -0.7586  0.2958  0.0947
17109TIP3    H172818   6.384   5.648   4.002 -2.6849  1.5546  0.3095
17109TIP3    H272819   6.256   5.580   4.043 -1.8390 -1.0057 -1.0831
17110TIP3   OH272820   6.534   3.156  10.539  0.1034 -0.1389 -0.2613
17110TIP3    H172821   6.568   3.208  10.466 -0.1842  1.4470  0.6823
17110TIP3    H272822   6.441   3.179  10.543  0.1877  0.0587  0.8163
17111TIP3   OH272823   4.365   4.356   0.702 -0.2337  0.0145  0.5349
17111TIP3    H172824   4.354   4.429   0.642 -3.6215 -0.1642  0.7480
17111TIP3    H272825   4.404   4.286   0.649 -1.3241  0.4990 -0.9564
17112TIP3   OH272826   4.382   0.414   4.640 -0.1531  0.2453 -0.0860
17112TIP3    H172827   4.465   0.372   4.663  0.8752  0.4163 -3.0935
17112TIP3    H272828   4.364   0.472   4.714  2.6396  0.5695  0.4690
17113TIP3   OH272829   0.669   5.460   3.223  0.1505 -0.1930  0.0537
17113TIP3    H172830   0.638   5.448   3.313  0.0100  1.0208  0.1854
17113TIP3    H272831   0.671   5.555   3.211 -2.5852 -0.3038 -2.1833
17114TIP3   OH272832   4.928   5.521   1.323 -0.0686  0.4041 -0.0334
17114TIP3    H172833   5.017   5.486   1.319  0.1779  0.9466  0.6169
17114TIP3    H272834   4.932   5.603   1.275 -0.0737  0.7119  0.4808
17115TIP3   OH272835   3.401   1.238  15.764  0.4516 -0.1294 -0.0969
17115TIP3    H172836   3.478   1.270  15.717  0.1835  0.4420 -0.1465
17115TIP3    H272837   3.336   1.307  15.754 -0.0956 -0.6449 -0.1137
17116TIP3   OH272838   2.044   2.544   1.443 -0.5736  0.6575  0.2695
17116TIP3    H172839   2.115   2.498   1.399 -1.3252  0.1491 -0.4301
17116TIP3    H272840   1.985   2.475   1.474 -0.2587  1.0170  1.7623
17117TIP3   OH272841   1.434   5.421   5.723  0.5563 -0.7804 -0.2750
17117TIP3    H172842   1.410   5.459   5.638 -1.2895 -0.9237  0.1328
17117TIP3    H272843   1.434   5.495   5.783  1.9903 -0.6583 -0.3973
17118TIP3   OH272844   1.910   1.615  14.103  0.4831  0.3757 -0.2416
17118TIP3    H172845   1.840   1.673  14.130  0.5592  0.2357  0.2721
17118TIP3    H272846   1.980   1.674  14.074  0.9509  0.5925  1.2326
17119TIP3   OH272847   1.996   5.991   3.978 -0.2076 -0.4717  0.3868
17119TIP3    H172848   1.939   5.956   4.046 -1.3122 -0.8305 -0.6819
17119TIP3    H272849   2.050   5.916   3.951 -2.1227 -1.2843 -1.4461
17120TIP3   OH272850   3.430   1.327  11.002  0.7635  0.1705  0.1363
17120TIP3    H172851   3.348   1.368  11.031  2.0584  3.2681 -0.2841
17120TIP3    H272852   3.429   1.337  10.907  3.1433  3.6190  0.3192
17121TIP3   OH272853   0.199   6.438  16.917 -0.0656  0.7062  0.7735
17121TIP3    H172854   0.215   6.517  16.969 -1.3006  1.0579  0.6308
17121TIP3    H272855   0.161   6.376  16.979  0.7547  0.2492  0.8470
17122TIP3   OH272856   5.703   4.849   1.915  0.2917  0.9248 -0.6912
17122TIP3    H172857   5.666   4.893   1.992  1.3520 -0.2432  0.5188
17122TIP3    H272858   5.794   4.878   1.913  0.0116  1.8137 -2.1958
17123TIP3   OH272859   0.560   0.049  14.253  0.0438  0.0982 -0.3228
17123TIP3    H172860   0.485   0.109  14.253 -0.2014 -0.1394  1.7939
17123TIP3    H272861   0.521  -0.038  14.257  0.4327 -0.0536  0.1995
17124TIP3   OH272862   0.208   6.203  11.041  0.6234  0.5828 -0.0495
17124TIP3    H172863   0.292   6.240  11.013  0.6142  0.6809  0.0510
17124TIP3    H272864   0.196   6.238  11.130  1.3731 -0.8990  0.6803
17125TIP3   OH272865   1.560   1.438   0.924 -0.2982 -0.3115 -0.3706
17125TIP3    H172866   1.477   1.420   0.968 -0.0173 -0.9111 -0.0741
17125TIP3    H272867   1.627   1.423   0.992  0.0573  0.0707 -0.6329
17126TIP3   OH272868   4.442   1.015  16.599 -0.5716  0.1347 -0.4781
17126TIP3    H172869   4.453   1.102  16.637 -0.3638 -0.4008  0.7451
17126TIP3    H272870   4.427   1.031  16.506  1.8412  1.3754 -0.7387
17127TIP3   OH272871   4.962   3.675  12.677 -0.4728  0.0129  0.4745
17127TIP3    H172872   4.929   3.616  12.745 -1.3301 -0.4507 -0.3289
17127TIP3    H272873   4.971   3.760  12.722 -0.3904 -0.4391  1.3302
17128TIP3   OH272874   0.252   3.237   5.394 -0.0502  0.1055  0.0266
17128TIP3    H172875   0.309   3.313   5.388 -0.1071  0.1022 -0.6563
17128TIP3    H272876   0.311   3.163   5.404  0.1609 -0.0228 -1.7434
17129TIP3   OH272877   5.501   6.098  13.089  0.8771 -0.5886  0.0399
17129TIP3    H172878   5.509   6.018  13.038  0.9055 -0.9920  0.6642
17129TIP3    H272879   5.591   6.129  13.098  0.7963 -0.0623 -0.8506
17130TIP3   OH272880   3.674   3.103   0.376 -0.2778 -0.4246 -0.3698
17130TIP3    H172881   3.658   3.066   0.463  1.4567 -1.1474 -0.3144
17130TIP3    H272882   3.701   3.193   0.393  2.0599 -1.1408  0.0655
17131TIP3   OH272883   5.927   0.112   3.066 -0.2122 -0.2878 -0.0447
17131TIP3    H172884   5.883   0.126   2.982  0.9941 -1.2350 -0.8744
17131TIP3    H272885   5.865   0.062   3.119 -1.6520  1.7154  0.2820
17132TIP3   OH272886   3.783   4.128   2.721 -0.4291 -0.0568 -0.1186
17132TIP3    H172887   3.767   4.197   2.786  1.3590  0.7005 -0.4169
17132TIP3    H272888   3.737   4.051   2.755 -1.9468  1.0862  0.5497
17133TIP3   OH272889   3.271   4.732   5.387  0.3171  0.1383 -0.0092
17133TIP3    H172890   3.305   4.818   5.412 -2.1479  1.4011 -0.7412
17133TIP3    H272891   3.257   4.687   5.471  0.8820  0.7441  0.4224
17134TIP3   OH272892   2.411   6.791   1.212 -0.6508  0.0931 -0.0954
17134TIP3    H172893   2.419   6.705   1.252  0.4528 -0.0949 -0.6969
17134TIP3    H272894   2.327   6.789   1.166  0.1366 -1.2935 -1.5616
17135TIP3   OH272895   0.168   1.701   5.670  0.1211 -0.2659 -0.1702
17135TIP3    H172896   0.169   1.658   5.756  0.9798  2.1957  1.1431
17135TIP3    H272897   0.250   1.750   5.667 -0.2977  0.4008 -2.0402
17136TIP3   OH272898   1.128   0.487   4.239  0.0344 -0.1495  0.0849
17136TIP3    H172899   1.169   0.536   4.168 -2.2206  1.7420 -0.0279
17136TIP3    H272900   1.062   0.433   4.195  2.9567 -4.2248  0.0916
17137TIP3   OH272901   6.299   3.904   3.771 -0.4628 -0.1280  0.3846
17137TIP3    H172902   6.324   3.818   3.805 -1.3188 -0.1467  0.9930
17137TIP3    H272903   6.377   3.936   3.727  0.6289 -0.2356  2.1258
17138TIP3   OH272904   4.759   5.354  15.754 -0.1114  0.0237 -0.2016
17138TIP3    H172905   4.687   5.293  15.768 -0.9611  1.1427  0.4925
17138TIP3    H272906   4.795   5.370  15.841 -0.4738  1.1636 -0.2405
17139TIP3   OH272907   3.453   5.461   1.444  0.4164  0.2344  0.6001
17139TIP3    H172908   3.489   5.506   1.520  0.5219 -0.7318  1.1235
17139TIP3    H272909   3.508   5.384   1.432  0.1291  0.1369 -0.1876
17140TIP3   OH272910   2.340   3.915  10.653  0.1492  0.2723  1.0489
17140TIP3    H172911   2.349   3.825  10.623 -0.5236  0.8696 -1.0909
17140TIP3    H272912   2.429   3.947  10.663  0.4505  0.3320 -1.3826
17141TIP3   OH272913   1.291   6.456  12.365  0.3944 -0.3156 -0.3206
17141TIP3    H172914   1.296   6.445  12.270 -0.8638 -1.0028 -0.3376
17141TIP3    H272915   1.329   6.542  12.381  1.0608 -0.3896 -1.3873
17142TIP3   OH272916   4.105   2.036   2.893  0.2298  0.4914 -0.0274
17142TIP3    H172917   4.166   2.020   2.965 -0.1956  0.4983  0.3410
17142TIP3    H272918   4.020   2.051   2.936 -0.2705 -0.6164 -0.5687
17143TIP3   OH272919   6.503   5.675  15.127 -0.2799 -0.2488 -0.0387
17143TIP3    H172920   6.545   5.746  15.177 -1.0844  0.5679 -0.5122
17143TIP3    H272921   6.463   5.619  15.194 -0.5612  0.3371  0.2880
17144TIP3   OH272922   3.018   5.056   2.171 -0.2204 -0.2107 -0.2190
17144TIP3    H172923   3.100   5.017   2.203 -0.2339  0.1446  0.2547
17144TIP3    H272924   2.960   5.056   2.247 -0.3637  0.3527 -0.3266
17145TIP3   OH272925   1.645   6.528   4.655  0.1219 -0.3231 -0.9383
17145TIP3    H172926   1.732   6.567   4.657 -0.2392  0.5609 -1.7143
17145TIP3    H272927   1.596   6.581   4.592 -0.7692 -1.2455 -1.0544
17146TIP3   OH272928   0.654   2.047   5.579 -0.2116 -0.0805 -0.0531
17146TIP3    H172929   0.701   2.076   5.501  0.3784  0.8283  0.6094
17146TIP3    H272930   0.562   2.060   5.558 -0.1167 -0.7433 -0.9339
17147TIP3   OH272931   6.120   0.929  11.693  0.0616 -0.0557  0.1155
17147TIP3    H172932   6.103   0.906  11.602  0.2090  0.0157  0.0691
17147TIP3    H272933   6.161   1.015  11.689 -0.0131 -0.0140  0.2549
17148TIP3   OH272934   0.125   0.310  14.272  0.3060  0.1952 -0.0355
17148TIP3    H172935   0.144   0.316  14.179  2.0120 -1.3689  0.1390
17148TIP3    H272936   0.057   0.376  14.288  0.9292  1.4223 -2.1076
17149TIP3   OH272937   6.814   6.309  11.540 -0.8903  0.2865 -0.2372
17149TIP3    H172938   6.794   6.366  11.613 -0.7911  0.3854 -0.2877
17149TIP3    H272939   6.778   6.224  11.565 -1.7252  0.5521 -0.4929
17150TIP3   OH272940   5.866   2.721  16.374  0.5182 -0.8062 -0.1315
17150TIP3    H172941   5.893   2.810  16.354 -1.5972 -0.3265 -1.1851
17150TIP3    H272942   5.780   2.713  16.334  1.2145 -3.7928 -1.2827
17151TIP3   OH272943   1.366   3.123   0.154 -0.1508 -0.0333 -0.1105
17151TIP3    H172944   1.338   3.082   0.073  0.2884  0.6799 -0.6396
17151TIP3    H272945   1.411   3.053   0.202  0.4947 -0.2092 -0.9433
17152TIP3   OH272946   1.824   5.303  14.168  0.0455 -0.0985  0.4187
17152TIP3    H172947   1.793   5.346  14.088 -1.3333 -0.0664  0.9303
17152TIP3    H272948   1.883   5.366  14.209 -0.8158  0.7323  0.4193
17153TIP3   OH272949   4.572   2.473   4.342  0.1187  0.1603 -0.3056
17153TIP3    H172950   4.646   2.505   4.393  1.5371 -1.7505 -1.0479
17153TIP3    H272951   4.502   2.536   4.359  0.6583 -0.0632  3.5103
17154TIP3   OH272952   6.611   1.566   3.108 -0.4442  0.1793 -0.0052
17154TIP3    H172953   6.545   1.549   3.041 -0.8176  0.8779  0.1709
17154TIP3    H272954   6.579   1.644   3.154  0.3810  0.3825  0.2443
17155TIP3   OH272955   1.135   4.699   2.473  1.0113  0.1690  0.6092
17155TIP3    H172956   1.109   4.789   2.493  1.7992  0.3390  0.9160
17155TIP3    H272957   1.090   4.679   2.391 -0.4315  0.2782  1.3526
17156TIP3   OH272958   4.655   4.621  12.304 -0.1948 -0.5142  0.4580
17156TIP3    H172959   4.673   4.614  12.398  4.3684 -2.0382 -0.2841
17156TIP3    H272960   4.600   4.545  12.284 -2.3888  0.5682  1.9600
17157TIP3   OH272961   3.141   0.009  13.848 -0.1325 -0.1525 -0.0709
17157TIP3    H172962   3.065  -0.047  13.833 -0.5085  0.3572 -0.1058
17157TIP3    H272963   3.203  -0.046  13.896 -0.5905 -0.5189  0.1062
17158TIP3   OH272964   4.554   6.391   0.063  0.3144 -0.5944 -1.0226
17158TIP3    H172965   4.616   6.398  -0.010  0.1913 -1.2925 -1.2048
17158TIP3    H272966   4.522   6.480   0.076  0.5687 -0.4098 -1.6222
17159TIP3   OH272967   0.352   4.111   3.669 -0.9908 -0.0605  0.6927
17159TIP3    H172968   0.395   4.130   3.752 -0.0314 -2.3274  0.7814
17159TIP3    H272969   0.258   4.109   3.691 -0.8233  0.2920  1.4997
17160TIP3   OH272970   2.200   4.098  15.888  0.2342  0.1864 -0.2695
17160TIP3    H172971   2.254   4.075  15.812  0.5218  1.9349 -0.6540
17160TIP3    H272972   2.184   4.015  15.932 -0.7427 -1.0281 -2.7349
17161TIP3   OH272973   5.033   0.675  13.320  0.1865  1.1767 -0.1885
17161TIP3    H172974   4.975   0.715  13.384  1.1980  1.5919  0.5037
17161TIP3    H272975   5.120   0.681  13.360  0.5376 -0.6331 -0.5913
17162TIP3   OH272976   0.101   0.008   3.411  0.6190  0.1582 -0.0093
17162TIP3    H172977   0.107   0.088   3.357 -0.3344  2.1965  2.6924
17162TIP3    H272978   0.013  -0.026   3.394 -0.1148  1.4485  1.0153
17163TIP3   OH272979   4.723   5.473   5.113  0.1004  0.0988 -1.1107
17163TIP3    H172980   4.757   5.553   5.073  1.2391 -0.6853 -1.7977
17163TIP3    H272981   4.802   5.420   5.129 -0.7038 -1.2842 -1.5879
17164TIP3   OH272982   1.914   5.432  11.595 -0.2253  0.4763  0.1345
17164TIP3    H172983   1.841   5.371  11.610 -1.6391  2.0777  0.1071
17164TIP3    H272984   1.948   5.407  11.509 -0.5003 -0.5390  0.3052
17165TIP3   OH272985   4.577   5.156  15.861 -0.3899 -0.3606  0.5674
17165TIP3    H172986   4.519   5.124  15.792 -1.1019  1.5145  0.2386
17165TIP3    H272987   4.519   5.204  15.921  0.5347 -0.1403  1.3215
17166TIP3   OH272988   5.112   5.509  16.343 -0.1889 -0.2230  0.0468
17166TIP3    H172989   5.130   5.602  16.361 -0.9826  0.1197 -0.8744
17166TIP3    H272990   5.149   5.494  16.256  1.4150 -1.2295  0.8524
17167TIP3   OH272991   6.126   0.488  14.522  0.2722  0.1001 -0.6520
17167TIP3    H172992   6.051   0.513  14.468  0.7526  1.7771 -0.6046
17167TIP3    H272993   6.087   0.449  14.601 -0.5182  0.1428 -1.0140
17168TIP3   OH272994   1.409   2.595  13.653 -0.2056 -0.0576  0.6605
17168TIP3    H172995   1.397   2.684  13.687  1.6066  0.3954  0.2085
17168TIP3    H272996   1.335   2.581  13.594 -1.3787  0.5320  1.9465
17169TIP3   OH272997   5.621   5.626   0.087  0.4306  0.4314 -0.2387
17169TIP3    H172998   5.706   5.661   0.116  0.9140  0.4628 -1.6037
17169TIP3    H272999   5.622   5.637  -0.008 -1.1201  0.4261 -0.2802
17170TIP3   OH273000   4.455   1.891   5.105  0.0525  0.1503  0.3433
17170TIP3    H173001   4.496   1.847   5.180 -2.1979 -0.7354  1.1410
17170TIP3    H273002   4.466   1.830   5.032  1.2421  0.5018  0.2155
17171TIP3   OH273003   3.158   3.122  14.928 -0.0976 -0.2090  0.0241
17171TIP3    H173004   3.160   3.039  14.976 -1.4602 -0.2926 -0.0325
17171TIP3    H273005   3.136   3.097  14.839  0.0364  0.1721 -0.1150
17172TIP3   OH273006   6.705   5.800  10.193 -0.6407 -0.6505  0.4329
17172TIP3    H173007   6.624   5.848  10.180 -0.8796 -0.7064  1.6100
17172TIP3    H273008   6.771   5.852  10.146 -1.2284 -0.2348  0.0504
17173TIP3   OH273009   3.656   4.891   3.682 -0.3105  0.4659 -0.3645
17173TIP3    H173010   3.742   4.923   3.653  0.2016 -1.1223 -0.7118
17173TIP3    H273011   3.602   4.892   3.603 -1.1717  2.9931  0.1578
17174TIP3   OH273012   4.865   4.539  11.373 -0.1797  0.1376  0.3708
17174TIP3    H173013   4.823   4.480  11.435 -0.0829 -2.8418 -2.1300
17174TIP3    H273014   4.929   4.588  11.425 -1.2732 -0.9154  2.8584
17175TIP3   OH273015   3.676   6.353   0.447  0.8242  0.1086 -0.1705
17175TIP3    H173016   3.687   6.322   0.537  1.5347  0.3853 -0.1545
17175TIP3    H273017   3.601   6.304   0.413 -1.7291  2.4389  1.6546
17176TIP3   OH273018   3.007   1.103   1.487  1.0376  0.0305  0.5622
17176TIP3    H173019   2.945   1.163   1.528  0.3483 -0.0434 -0.3326
17176TIP3    H273020   2.952   1.043   1.436  1.9009  1.2056 -1.9135
17177TIP3   OH273021   6.346   5.632  14.349  0.3681  0.6331 -0.2244
17177TIP3    H173022   6.299   5.715  14.343 -0.1800  0.4525  1.1913
17177TIP3    H273023   6.436   5.653  14.325 -0.0032  1.3933 -0.9842
17178TIP3   OH273024   6.021   2.546  15.294 -0.0432  0.3973  0.3332
17178TIP3    H173025   6.043   2.639  15.292  0.9933  0.1568 -0.9930
17178TIP3    H273026   6.030   2.518  15.203  2.6437 -1.6678  1.1268
17179TIP3   OH273027   1.040   4.294   1.287 -0.3263  0.0190 -0.2528
17179TIP3    H173028   1.037   4.374   1.339  0.9485  0.3335 -0.6056
17179TIP3    H273029   0.995   4.228   1.340  0.2655  0.5121  0.8946
17180TIP3   OH273030   3.013   5.944   0.196  0.4080  0.1336 -0.0001
17180TIP3    H173031   3.004   5.857   0.159  3.0261 -0.2651  0.0889
17180TIP3    H273032   2.992   5.934   0.289  2.0407 -0.7600  0.3032
17181TIP3   OH273033   1.827   6.246   4.672 -0.0466 -0.9062  0.6549
17181TIP3    H173034   1.811   6.329   4.717  0.9907 -0.8509  0.9586
17181TIP3    H273035   1.771   6.248   4.595  0.1645  0.1927  0.5211
17182TIP3   OH273036   1.543   5.920  17.113 -0.2801 -0.2725  0.1145
17182TIP3    H173037   1.591   5.848  17.072 -0.4466  0.6885 -1.9138
17182TIP3    H273038   1.462   5.881  17.145  0.8481 -1.4912  1.6386
17183TIP3   OH273039   6.671   0.219   4.545 -0.1523  0.2139  0.6954
17183TIP3    H173040   6.686   0.288   4.480  0.2276 -1.0130 -0.5722
17183TIP3    H273041   6.753   0.212   4.593  0.3453 -0.3680 -0.2060
17184TIP3   OH273042   1.238   0.072   0.943  0.1087 -0.3829 -0.3532
17184TIP3    H173043   1.152   0.057   0.902 -0.0340 -0.2544 -0.1054
17184TIP3    H273044   1.257  -0.010   0.988 -0.9011  0.2972  1.4162
17185TIP3   OH273045   0.596   5.734   3.200  0.2365 -0.3742 -0.0768
17185TIP3    H173046   0.519   5.789   3.216 -0.4472 -1.4387  0.4461
17185TIP3    H273047   0.602   5.728   3.104  1.7007  2.4194 -0.2693
17186TIP3   OH273048   6.014   3.759  10.708  0.0741 -0.0821 -0.0066
17186TIP3    H173049   5.922   3.743  10.689 -0.1552 -0.8266  1.5716
17186TIP3    H273050   6.029   3.849  10.680 -0.9373 -0.1782 -0.9278
17187TIP3   OH273051   0.032   3.463   4.726  0.6666 -0.1126  0.4301
17187TIP3    H173052  -0.012   3.391   4.773 -0.8353  0.5225  0.0544
17187TIP3    H273053   0.097   3.495   4.788  1.2510 -1.6662  0.6765
17188TIP3   OH273054   0.931   3.014   5.389 -0.0098 -0.0702  0.0473
17188TIP3    H173055   0.977   2.930   5.390 -1.1134 -0.7109 -0.3581
17188TIP3    H273056   0.927   3.040   5.481  0.9842 -0.0870  0.1026
17189TIP3   OH273057   0.369   5.975  13.027  0.3978 -0.1472  0.0896
17189TIP3    H173058   0.302   5.944  12.966 -0.0730  0.0004  0.5251
17189TIP3    H273059   0.326   6.044  13.078  0.5998 -0.6718  0.9963
17190TIP3   OH273060   0.497   0.538  16.345  0.0803 -0.3132 -0.0316
17190TIP3    H173061   0.442   0.612  16.319 -1.2445 -0.6925  1.5591
17190TIP3    H273062   0.567   0.537  16.280 -1.2898  0.7285 -1.6132
17191TIP3   OH273063   4.360   3.413   5.314 -0.2368  0.0788 -0.8180
17191TIP3    H173064   4.374   3.462   5.395 -2.6335 -0.1339 -0.2102
17191TIP3    H273065   4.436   3.354   5.309 -0.8479 -1.1684  2.2611
17192TIP3   OH273066   5.936   2.878  14.489  0.5585  0.0256 -0.1941
17192TIP3    H173067   5.979   2.794  14.503  0.2981  0.0795  1.0835
17192TIP3    H273068   5.938   2.891  14.394  1.7869 -0.7807 -0.2962
17193TIP3   OH273069   5.283   0.212  12.141  0.8756 -0.2363 -0.5750
17193TIP3    H173070   5.217   0.161  12.188  0.5796  0.0965 -0.6196
17193TIP3    H273071   5.248   0.301  12.140  1.2992 -0.0669 -0.6559
17194TIP3   OH273072   6.595   5.268  13.630  0.3741 -0.2901 -0.1696
17194TIP3    H173073   6.504   5.240  13.628  0.7169 -1.5459  0.8855
17194TIP3    H273074   6.644   5.196  13.589  1.2041 -1.0814  2.0578
17195TIP3   OH273075   1.018   3.532   1.711  0.5523 -0.6450 -0.4146
17195TIP3    H173076   1.044   3.440   1.706  2.2057 -0.3024  0.9447
17195TIP3    H273077   0.995   3.545   1.803 -2.0348 -0.2520 -1.0527
17196TIP3   OH273078   1.658   0.060   5.023  0.5822 -0.1101  0.0675
17196TIP3    H173079   1.701  -0.014   5.066 -1.2908 -0.9543  0.6248
17196TIP3    H273080   1.649   0.033   4.932 -0.0851 -0.5993  0.2662
17197TIP3   OH273081   0.282   3.188   2.971  0.2849 -0.0334  0.1003
17197TIP3    H173082   0.217   3.216   2.907 -0.8394  0.4155  1.3774
17197TIP3    H273083   0.366   3.207   2.930 -0.3875 -0.0498 -1.3528
17198TIP3   OH273084   2.236   5.770  13.945 -0.1527  0.0769  0.0807
17198TIP3    H173085   2.286   5.762  13.864  2.3488  0.6704  1.4658
17198TIP3    H273086   2.222   5.864  13.955 -3.7957 -0.1371 -1.4446
17199TIP3   OH273087   3.429   4.979   0.597 -0.5084  0.1675  0.2047
17199TIP3    H173088   3.344   4.959   0.635 -0.3506  0.0372  0.4923
17199TIP3    H273089   3.474   5.030   0.664 -0.7951  1.2651 -0.3975
17200TIP3   OH273090   3.839   6.070   2.864 -0.1036  0.0613 -0.1384
17200TIP3    H173091   3.862   6.020   2.942 -0.2760 -0.3425 -0.3447
17200TIP3    H273092   3.921   6.112   2.837  0.8671 -2.6340 -1.8161
17201TIP3   OH273093   3.937   1.708   0.329 -0.1119 -0.4557  0.2683
17201TIP3    H173094   3.942   1.792   0.375  0.7371  0.2585 -1.0455
17201TIP3    H273095   3.848   1.677   0.344 -0.7931  1.2241 -0.1192
17202TIP3   OH273096   6.475   6.824  11.717 -0.3256  0.1710 -0.5322
17202TIP3    H173097   6.514   6.871  11.642 -0.2079  0.8352 -0.0618
17202TIP3    H273098   6.449   6.740  11.681  0.5877  0.1220 -1.1123
17203TIP3   OH273099   4.584   6.685  15.665 -0.1180 -0.0233 -0.3142
17203TIP3    H173100   4.567   6.696  15.759  2.4557  1.3046  0.1048
17203TIP3    H273101   4.674   6.716  15.654  0.5512 -2.4799 -2.8219
17204TIP3   OH273102   0.455   5.171   3.261  0.4501 -0.3215 -0.1081
17204TIP3    H173103   0.457   5.209   3.349 -2.2770  0.6550 -0.3690
17204TIP3    H273104   0.547   5.168   3.234  1.1641  1.6255  1.8127
17205TIP3   OH273105   4.681   1.834   5.559  0.4608 -0.0181 -0.4328
17205TIP3    H173106   4.763   1.793   5.584  0.7092  0.0512 -1.1178
17205TIP3    H273107   4.696   1.866   5.471  0.0517  0.9556 -0.1627
17206TIP3   OH273108   5.819   3.842   5.311  0.1135  0.0931  0.5197
17206TIP3    H173109   5.798   3.920   5.260  2.5839  0.6061  0.1269
17206TIP3    H273110   5.850   3.876   5.395  1.1334 -0.4431  0.3773
17207TIP3   OH273111   1.098   4.230   1.805 -0.9565  0.3347 -0.2379
17207TIP3    H173112   1.085   4.319   1.775 -1.9728 -0.3350 -1.9280
17207TIP3    H273113   1.155   4.238   1.882 -1.5014  2.4477 -0.0056
17208TIP3   OH273114   0.939   1.694   3.821 -0.1693  0.8341  0.4106
17208TIP3    H173115   1.011   1.713   3.761  1.5574  0.3069  2.1949
17208TIP3    H273116   0.923   1.601   3.809  0.1352  0.7415  0.6945
17209TIP3   OH273117   3.967   1.321   0.285  0.3202 -0.1909 -0.2578
17209TIP3    H173118   3.947   1.284   0.370  0.7621 -0.1810 -0.1484
17209TIP3    H273119   4.045   1.375   0.299  0.5200 -0.3529 -0.7079
17210TIP3   OH273120   1.639   2.867   5.656 -0.4763  0.0015 -0.2916
17210TIP3    H173121   1.633   2.870   5.560 -1.6817  0.2010 -0.2360
17210TIP3    H273122   1.576   2.932   5.685  0.0505  0.0997  0.6451
17211TIP3   OH273123   4.180   0.964   2.982 -0.5102 -0.1191  0.1939
17211TIP3    H173124   4.182   0.927   2.894  0.9208  0.5641 -0.0881
17211TIP3    H273125   4.239   0.908   3.032  1.0213  1.2475 -0.0342
17212TIP3   OH273126   2.467   6.518  16.263 -0.3312 -0.4528  0.1262
17212TIP3    H173127   2.409   6.576  16.312  0.3662 -0.1710  0.6455
17212TIP3    H273128   2.553   6.561  16.267 -0.8538  1.6066 -4.5814
17213TIP3   OH273129   5.551   5.885   3.868 -0.0610  0.0536 -0.4796
17213TIP3    H173130   5.542   5.961   3.811 -0.4006 -0.3287 -0.9385
17213TIP3    H273131   5.466   5.878   3.912  0.5693  1.0644  1.0052
17214TIP3   OH273132   2.507   6.200  12.687  0.7634  0.0813  0.0080
17214TIP3    H173133   2.469   6.270  12.634  1.1244  0.2040 -0.0921
17214TIP3    H273134   2.490   6.121  12.636 -2.6199 -0.4377  1.6169
17215TIP3   OH273135   3.782   3.944   2.945 -0.1151 -0.0635 -0.3208
17215TIP3    H173136   3.759   3.853   2.925 -2.0128 -0.1307  1.7354
17215TIP3    H273137   3.870   3.939   2.982  1.1167 -0.5809 -3.0629
17216TIP3   OH273138   6.068   2.276  13.616 -0.2126 -0.1505  0.0544
17216TIP3    H173139   6.051   2.370  13.627 -0.3047 -0.1873  0.2231
17216TIP3    H273140   6.136   2.257  13.680 -0.4510 -0.2763  0.2700
17217TIP3   OH273141   3.616   6.306   4.664 -0.4092  0.1400 -0.4738
17217TIP3    H173142   3.706   6.272   4.663 -0.2762  0.4746 -1.6914
17217TIP3    H273143   3.561   6.229   4.671 -0.0583 -0.2116 -1.4245
17218TIP3   OH273144   6.299   6.497  16.691  0.2487 -0.5205  0.0209
17218TIP3    H173145   6.259   6.466  16.610  0.2234  0.0099 -0.1733
17218TIP3    H273146   6.388   6.522  16.666  0.4280 -0.9009  0.2771
17219TIP3   OH273147   5.565   1.664  14.885  0.3638  0.2008 -0.1696
17219TIP3    H173148   5.515   1.745  14.896 -1.2844 -0.9418  1.1739
17219TIP3    H273149   5.544   1.635  14.796  2.6718  2.2631 -1.5275
17220TIP3   OH273150   3.057   6.373  16.190 -0.3398  0.2709  0.4102
17220TIP3    H173151   3.068   6.420  16.107 -0.2534  0.9114  0.7735
17220TIP3    H273152   3.140   6.326  16.203 -0.3765  0.1244  0.1065
17221TIP3   OH273153   2.018   3.474   3.916 -0.2886  0.4119  0.2033
17221TIP3    H173154   2.083   3.521   3.967  0.5327  0.6078 -0.9864
17221TIP3    H273155   2.061   3.456   3.832 -0.5468 -2.4813  0.5989
17222TIP3   OH273156   0.446   2.555  14.061  0.5780  0.0664 -0.2873
17222TIP3    H173157   0.495   2.549  13.979  0.7233 -0.8912 -0.1456
17222TIP3    H273158   0.454   2.467  14.100  0.3892  0.4639  0.6766
17223TIP3   OH273159   0.440   5.003   2.901 -0.1185 -0.0881 -0.6392
17223TIP3    H173160   0.459   4.930   2.961  0.2262 -1.0086 -1.8334
17223TIP3    H273161   0.371   5.053   2.945 -2.9827 -3.1184 -1.3468
17224TIP3   OH273162   2.593   4.794   3.689  0.0047 -0.4430  0.2079
17224TIP3    H173163   2.535   4.740   3.636 -0.4613  0.1343  0.1298
17224TIP3    H273164   2.595   4.751   3.775 -0.9583 -0.1808  0.3750
17225TIP3   OH273165   4.492   1.842   3.404 -0.1276  0.1084 -0.3318
17225TIP3    H173166   4.404   1.880   3.403  0.7421  2.2900 -0.3850
17225TIP3    H273167   4.543   1.900   3.347  1.7636  0.0170  1.1621
17226TIP3   OH273168   2.389   0.880   4.648  0.4044  0.4479 -0.5117
17226TIP3    H173169   2.323   0.938   4.686  1.5403  0.4996  1.5270
17226TIP3    H273170   2.448   0.939   4.600 -0.0980  0.5973 -0.9528
17227TIP3   OH273171   4.590   1.430  17.199  0.0939 -0.1426 -0.1739
17227TIP3    H173172   4.586   1.501  17.263  0.9472  0.3113 -0.6039
17227TIP3    H273173   4.676   1.439  17.159 -0.0776 -0.9762 -0.7523
17228TIP3   OH273174   0.728   2.548  12.442  0.8155  0.5495 -0.4397
17228TIP3    H173175   0.786   2.619  12.414  0.5305  1.0646  0.2321
17228TIP3    H273176   0.660   2.592  12.493 -0.2351 -0.0382 -1.3048
17229TIP3   OH273177   1.109   4.045   1.116  0.6524 -0.3829 -0.2789
17229TIP3    H173178   1.135   4.041   1.208 -0.7039  0.9673  0.2158
17229TIP3    H273179   1.122   3.956   1.083 -0.5357 -1.3698  1.7165
17230TIP3   OH273180   0.558   6.009   0.640  0.5865  0.4363 -0.2295
17230TIP3    H173181   0.586   6.095   0.610  1.0328  0.1962 -0.5253
17230TIP3    H273182   0.578   5.950   0.566 -2.8085  0.5589 -1.4167
17231TIP3   OH273183   0.251   1.470   6.476 -0.7052  0.2806  0.8082
17231TIP3    H173184   0.338   1.502   6.452 -1.1827  1.7477  0.9638
17231TIP3    H273185   0.268   1.406   6.545  0.4798 -2.0443 -1.4682
17232TIP3   OH273186   4.780   1.282   2.061 -0.1646  0.3415 -0.1396
17232TIP3    H173187   4.786   1.207   2.002 -0.1087 -0.3113  0.6811
17232TIP3    H273188   4.828   1.255   2.140  0.6536  1.5789 -0.1709
17233TIP3   OH273189   2.046   2.088   2.191 -0.1603  0.3111 -0.0046
17233TIP3    H173190   1.978   2.092   2.124 -1.9723 -1.9076  1.5223
17233TIP3    H273191   2.021   2.154   2.255 -1.2450 -0.8043  0.7799
17234TIP3   OH273192   3.943   5.674   5.038 -0.7854  0.0926 -0.0371
17234TIP3    H173193   3.883   5.669   4.963  0.6188  3.1547 -1.5686
17234TIP3    H273194   3.909   5.747   5.090 -0.3202 -0.3971  0.9734
17235TIP3   OH273195   3.574   3.810  14.175  0.2682  0.1725 -0.1474
17235TIP3    H173196   3.495   3.861  14.157 -0.3981 -0.8004 -0.0453
17235TIP3    H273197   3.582   3.751  14.101  1.1097  0.4903 -0.3284
17236TIP3   OH273198   4.954   5.625  15.681  0.3236  0.4523 -0.1725
17236TIP3    H173199   5.048   5.613  15.666 -0.2024 -2.7145 -1.9001
17236TIP3    H273200   4.914   5.608  15.595 -1.9649 -0.7608  1.0347
17237TIP3   OH273201   3.003   1.917  13.304  0.1809 -0.1460  0.0437
17237TIP3    H173202   2.919   1.962  13.311  0.6657  0.5374  3.1469
17237TIP3    H273203   2.987   1.830  13.342  0.6279 -0.3971 -0.3247
17238TIP3   OH273204   2.889   5.301   1.211  0.4865 -0.0273  0.0873
17238TIP3    H173205   2.943   5.357   1.267  0.7241  0.8764 -0.9971
17238TIP3    H273206   2.842   5.244   1.272  0.8179  0.8374  1.1941
17239TIP3   OH273207   2.236   2.327  12.348  0.1984 -0.1833 -0.5527
17239TIP3    H173208   2.303   2.353  12.411 -1.6370  1.9176  0.6518
17239TIP3    H273209   2.154   2.333  12.395 -1.1028 -0.2757 -2.6650
17240TIP3   OH273210   0.113   5.645   0.964 -0.7767 -0.1409 -0.3972
17240TIP3    H173211   0.027   5.608   0.944 -1.0823  0.5707 -0.4114
17240TIP3    H273212   0.140   5.687   0.883 -2.0268  2.7796  0.5771
17241TIP3   OH273213   3.713   3.601  15.694 -0.0165 -0.2217 -0.4702
17241TIP3    H173214   3.665   3.681  15.671  0.0967  0.2141  0.7128
17241TIP3    H273215   3.804   3.629  15.700  0.7382 -1.3579 -4.2022
17242TIP3   OH273216   5.351   3.758   0.259 -0.0570 -0.1588  0.0223
17242TIP3    H173217   5.294   3.835   0.256  0.2823  0.1949  1.4999
17242TIP3    H273218   5.295   3.685   0.234 -0.7619  0.3834 -0.0130
17243TIP3   OH273219   2.527   2.322   0.108 -0.2773 -0.1935 -0.3968
17243TIP3    H173220   2.609   2.308   0.156 -0.2586  1.3223  0.0772
17243TIP3    H273221   2.475   2.378   0.166 -1.3245 -0.4693 -1.0449
17244TIP3   OH273222   5.132   5.336  15.935 -0.8249  0.2171  0.4173
17244TIP3    H173223   5.046   5.306  15.961 -0.2914 -1.8675 -0.0479
17244TIP3    H273224   5.181   5.345  16.017 -0.7325 -1.1354  0.5290
17245TIP3   OH273225   0.875   3.358   4.162 -0.2160  0.2873  0.1033
17245TIP3    H173226   0.952   3.415   4.167 -0.8691  1.1077  2.5829
17245TIP3    H273227   0.801   3.419   4.157 -0.7593 -0.4918 -2.3821
17246TIP3   OH273228   3.465   6.488  15.765  0.4520 -0.4613 -0.3463
17246TIP3    H173229   3.412   6.432  15.822 -0.8164  1.3737  0.3791
17246TIP3    H273230   3.412   6.500  15.686  0.1364  0.6698  0.0167
17247TIP3   OH273231   1.737   0.866   1.485  0.2429 -0.3896 -0.5668
17247TIP3    H173232   1.758   0.782   1.526 -1.6899 -1.5179 -1.7257
17247TIP3    H273233   1.674   0.907   1.544  0.8567  0.0821 -0.2207
17248TIP3   OH273234   3.925   2.764  12.102 -0.4841 -0.3257  0.1489
17248TIP3    H173235   3.968   2.841  12.140 -0.4456 -0.6788  0.8423
17248TIP3    H273236   3.835   2.770  12.132 -0.3759 -0.7802  0.5722
17249TIP3   OH273237   3.842   2.811   5.529 -0.0225 -0.2445 -0.3176
17249TIP3    H173238   3.821   2.904   5.533  0.4309 -0.0577 -1.6588
17249TIP3    H273239   3.869   2.788   5.618  1.9201  1.4397 -0.3962
17250TIP3   OH273240   4.635   1.716   1.980  0.5869  0.7121  0.3603
17250TIP3    H173241   4.559   1.674   1.940  0.2577  0.6866  1.0033
17250TIP3    H273242   4.691   1.740   1.906  0.7078 -0.7050 -0.0430
17251TIP3   OH273243   3.873   3.010   2.258  0.0274 -0.1990 -0.0765
17251TIP3    H173244   3.969   3.019   2.260 -0.1417  2.6720 -0.5217
17251TIP3    H273245   3.853   2.953   2.332  1.8799  1.9275  2.2135
17252TIP3   OH273246   6.228   4.823   1.356 -0.2150  0.5181 -0.4420
17252TIP3    H173247   6.316   4.792   1.380  0.4249  1.0758 -1.9265
17252TIP3    H273248   6.220   4.802   1.263 -1.5044  0.8393 -0.4174
17253TIP3   OH273249   0.709   4.046  15.262 -0.3809  0.1134  0.4943
17253TIP3    H173250   0.786   4.014  15.309 -0.8140 -3.3517 -0.8344
17253TIP3    H273251   0.739   4.059  15.172 -1.2700 -1.2934 -0.0435
17254TIP3   OH273252   0.526   6.103  16.451  0.3020  0.3562 -0.2365
17254TIP3    H173253   0.488   6.016  16.461 -0.1405  0.6269  0.4889
17254TIP3    H273254   0.589   6.094  16.379 -1.2220 -0.0657 -1.5613
17255TIP3   OH273255   1.075   4.331  13.433 -0.8711  0.2937  0.0526
17255TIP3    H173256   0.983   4.312  13.449 -0.5776 -0.4866  0.8950
17255TIP3    H273257   1.102   4.385  13.507 -0.6827  0.6183 -0.2518
17256TIP3   OH273258   5.445   5.436  11.995 -0.2301  0.0408 -0.2874
17256TIP3    H173259   5.523   5.484  12.022 -0.2846  0.7097 -1.2746
17256TIP3    H273260   5.465   5.403  11.908 -1.6543  1.7445 -1.3281
17257TIP3   OH273261   6.127   0.662   3.640  0.8546 -0.0578 -0.1701
17257TIP3    H173262   6.097   0.637   3.728 -2.0565 -2.0089 -1.5694
17257TIP3    H273263   6.199   0.602   3.622 -0.2070 -1.4118 -0.0445
17258TIP3   OH273264   6.676   3.502  17.188 -0.1069 -0.6407  0.4158
17258TIP3    H173265   6.614   3.569  17.216  0.8416  0.3013  0.3119
17258TIP3    H273266   6.622   3.437  17.142 -1.3151 -0.9145  2.1274
17259TIP3   OH273267   3.672   5.043  14.796  0.6565  0.2164 -0.1963
17259TIP3    H173268   3.629   5.074  14.876  0.6959  1.6951 -0.7220
17259TIP3    H273269   3.692   4.952  14.814  1.9355  0.8640  2.0253
17260TIP3   OH273270   6.347   6.314   3.863  0.5359  0.0784 -0.4082
17260TIP3    H173271   6.373   6.371   3.936  0.9248 -0.1330 -0.3765
17260TIP3    H273272   6.330   6.229   3.904 -3.5427  0.9451  0.1290
17261TIP3   OH273273   0.019   4.689  12.970 -0.4147 -0.4621  0.7337
17261TIP3    H173274  -0.007   4.645  13.051 -1.1096 -1.7117 -0.1425
17261TIP3    H273275   0.089   4.636  12.934 -0.8769 -0.5627 -0.0475
17262TIP3   OH273276   2.402   2.652  16.053 -0.6338  0.0741  0.5022
17262TIP3    H173277   2.460   2.608  15.990 -2.6230  0.6085 -1.8650
17262TIP3    H273278   2.437   2.627  16.139  1.0016 -2.4310 -0.7573
17263TIP3   OH273279   3.721   1.015  12.089  0.2307  0.0377  0.1366
17263TIP3    H173280   3.661   0.992  12.159  1.0816  1.8039  1.5471
17263TIP3    H273281   3.733   1.110  12.098  0.7668  0.2541 -2.1041
17264TIP3   OH273282   6.700   3.573   5.606  0.2034  0.1799 -0.3526
17264TIP3    H173283   6.750   3.522   5.542  1.3763  0.8091  0.0434
17264TIP3    H273284   6.609   3.564   5.577  0.5878 -0.5358 -1.4044
17265TIP3   OH273285   1.627   0.965  15.582 -0.0940  0.3851  0.1759
17265TIP3    H173286   1.615   1.059  15.595  1.5736  0.6322  0.0639
17265TIP3    H273287   1.689   0.939  15.650 -2.9633 -1.3369  2.3787
17266TIP3   OH273288   3.609   5.813  12.929 -0.1132 -0.0715  0.3577
17266TIP3    H173289   3.526   5.837  12.971 -1.1902 -0.6541 -1.2911
17266TIP3    H273290   3.647   5.747  12.987 -0.7930  0.2131  1.1501
17267TIP3   OH273291   2.006   4.709  13.563  0.3687 -0.5175 -1.0217
17267TIP3    H173292   2.057   4.668  13.634 -1.1256  0.4592  0.7075
17267TIP3    H273293   1.917   4.675  13.575  0.1166 -0.5016 -2.6151
17268TIP3   OH273294   5.921   2.699  16.889 -0.3297  0.3609 -0.0393
17268TIP3    H173295   6.016   2.705  16.898 -0.3183 -1.8268  2.5801
17268TIP3    H273296   5.889   2.786  16.913  0.9278  0.7179  0.4103
17269TIP3   OH273297   3.743   4.634   3.488  0.4827 -0.2547 -0.1152
17269TIP3    H173298   3.814   4.619   3.426 -0.1331 -2.1207 -0.4397
17269TIP3    H273299   3.680   4.688   3.440  0.3382 -1.0951 -0.9184
17270TIP3   OH273300   0.677   6.159  10.884 -0.3729 -0.0117  0.1979
17270TIP3    H173301   0.592   6.202  10.871  0.0982  1.0729  0.6393
17270TIP3    H273302   0.726   6.179  10.804 -0.1782  0.2032  0.3724
17271TIP3   OH273303   1.250   4.379  10.875  0.3354  0.1975 -0.2313
17271TIP3    H173304   1.179   4.315  10.879  2.0315 -1.7439  1.5206
17271TIP3    H273305   1.273   4.384  10.783 -0.7637 -0.6141 -0.5732
17272TIP3   OH273306   5.484   5.969   0.135 -0.5212  0.0893  0.2677
17272TIP3    H173307   5.497   5.984   0.228  0.5606 -0.2101  0.1768
17272TIP3    H273308   5.396   6.003   0.117  0.0347  2.0298  0.9994
17273TIP3   OH273309   0.031   5.406   1.204  0.3173 -0.0688 -0.0259
17273TIP3    H173310  -0.027   5.465   1.251  1.2126  1.0620 -0.2738
17273TIP3    H273311   0.073   5.353   1.272 -0.1286 -0.0821  0.2390
17274TIP3   OH273312   5.024   6.046  14.215 -0.2814 -0.1698 -0.2425
17274TIP3    H173313   4.999   6.061  14.124  1.8427 -0.4151 -0.9267
17274TIP3    H273314   4.941   6.042  14.262 -1.4772 -0.6148 -2.2425
17275TIP3   OH273315   4.087   3.015  13.673  0.0711 -0.1415  0.2254
17275TIP3    H173316   4.180   3.034  13.671  0.1687 -0.4185  1.2888
17275TIP3    H273317   4.047   3.091  13.716 -0.3771  0.5655 -1.3678
17276TIP3   OH273318   5.575   1.221  14.036 -0.2697  0.2468 -0.0430
17276TIP3    H173319   5.620   1.305  14.042  0.7449 -0.2442 -0.4979
17276TIP3    H273320   5.513   1.221  14.109 -0.7140  1.6277 -0.3818
17277TIP3   OH273321   0.970   2.145  11.001  0.4335  0.7146  0.5343
17277TIP3    H173322   1.030   2.093  10.947  0.2411  1.0941 -0.0534
17277TIP3    H273323   0.884   2.131  10.963  0.3903  1.5272  0.3064
17278TIP3   OH273324   0.664   2.309  16.496 -0.8341 -0.4358 -0.5415
17278TIP3    H173325   0.729   2.346  16.437 -1.0178 -0.2179 -0.6060
17278TIP3    H273326   0.714   2.286  16.575 -0.5121 -1.1135 -0.9328
17279TIP3   OH273327   2.671   3.407   4.250  0.1968  0.3563 -0.2500
17279TIP3    H173328   2.625   3.322   4.246 -1.3746  1.1419  0.1399
17279TIP3    H273329   2.731   3.398   4.324  0.9812 -0.8246 -0.9828
17280TIP3   OH273330   2.778   4.336   4.612 -0.5146  0.1302 -0.3162
17280TIP3    H173331   2.798   4.395   4.685  0.9140  0.2638 -0.7940
17280TIP3    H273332   2.784   4.248   4.651 -1.6901  0.2514  0.1689
17281TIP3   OH273333   6.616   3.335   6.072 -0.3882  0.1095 -0.3700
17281TIP3    H173334   6.681   3.404   6.082  0.6191 -0.5433 -2.0995
17281TIP3    H273335   6.667   3.255   6.058 -1.5496 -0.8090  0.3792
17282TIP3   OH273336   4.797   2.576   4.474 -0.5971  0.4198  0.4721
17282TIP3    H173337   4.884   2.604   4.445 -0.9723  0.7789 -0.3523
17282TIP3    H273338   4.813   2.519   4.549  0.5317 -1.5890 -1.1783
17283TIP3   OH273339   5.759   5.758  10.731  0.2108 -0.6663 -0.6767
17283TIP3    H173340   5.684   5.736  10.675  0.3984  0.5543 -1.4337
17283TIP3    H273341   5.835   5.746  10.675  0.5455 -1.2017 -0.1226
17284TIP3   OH273342   5.250   3.189  14.574 -0.1895 -0.4716 -0.4904
17284TIP3    H173343   5.257   3.127  14.501  0.5976 -0.2442 -0.6257
17284TIP3    H273344   5.156   3.203  14.586 -0.3678 -1.4974 -0.6216
17285TIP3   OH273345   5.616   2.919   1.156  0.4081 -0.0272 -0.1118
17285TIP3    H173346   5.673   2.848   1.186  0.0866 -0.4198 -0.4179
17285TIP3    H273347   5.650   2.997   1.200  1.1650 -0.2589 -0.2699
17286TIP3   OH273348   5.430   0.654   0.587 -0.2910 -0.6174 -0.2509
17286TIP3    H173349   5.412   0.565   0.617 -0.4472 -0.7164 -0.6423
17286TIP3    H273350   5.421   0.650   0.492  0.4171 -0.3535 -0.3358
17287TIP3   OH273351   5.574   1.714   0.597 -0.2154  0.2005 -0.0295
17287TIP3    H173352   5.486   1.747   0.580 -0.5911  0.4109  2.0730
17287TIP3    H273353   5.615   1.782   0.651  0.5600 -0.7799  0.6414
17288TIP3   OH273354   4.952   2.790   0.037  0.2845 -0.3542 -0.0968
17288TIP3    H173355   4.922   2.837   0.115  2.0656  0.1664  0.3257
17288TIP3    H273356   4.902   2.828  -0.035  0.3927  0.9536  0.4829
17289TIP3   OH273357   1.936   3.381  12.128 -0.0804 -0.2460 -0.3827
17289TIP3    H173358   1.986   3.348  12.052  0.1589  0.6162 -0.6106
17289TIP3    H273359   1.891   3.304  12.162 -0.1732 -0.6581 -1.3901
17290TIP3   OH273360   3.425   1.515   0.758 -0.4274 -0.5984 -0.4618
17290TIP3    H173361   3.412   1.562   0.676 -1.4523 -0.3665 -0.1802
17290TIP3    H273362   3.338   1.483   0.782 -0.2493 -0.2197  0.7887
17291TIP3   OH273363   4.279   1.984   3.119 -0.2429 -0.3359  0.5760
17291TIP3    H173364   4.355   2.024   3.077  0.1642 -0.8831  0.7910
17291TIP3    H273365   4.293   1.997   3.213 -1.1766  0.9291  0.5753
17292TIP3   OH273366   6.046   1.523   1.966 -0.1136 -0.3911  0.1101
17292TIP3    H173367   5.973   1.585   1.964  0.5769  0.4325 -0.3905
17292TIP3    H273368   6.123   1.576   1.943  0.5023 -1.4231 -0.2663
17293TIP3   OH273369   3.297   2.743   1.055 -0.4007  0.0408  0.1585
17293TIP3    H173370   3.215   2.716   1.095 -0.5312 -0.5841 -0.5040
17293TIP3    H273371   3.358   2.672   1.073 -0.9337 -1.1261 -2.1819
17294TIP3   OH273372   0.542   3.622   4.623  0.3997  0.1719 -0.0280
17294TIP3    H173373   0.582   3.538   4.643 -0.2278  0.1916  1.4348
17294TIP3    H273374   0.569   3.679   4.695  2.1972  1.7385 -1.8304
17295TIP3   OH273375   6.474   5.458   1.365  0.8836  1.0621  0.1651
17295TIP3    H173376   6.430   5.430   1.284  0.9807  0.0243  0.4625
17295TIP3    H273377   6.403   5.486   1.422  0.5762 -0.5681  0.6268
17296TIP3   OH273378   0.456   1.898  12.716 -0.5676 -0.3380  0.0870
17296TIP3    H173379   0.492   1.839  12.782 -1.5727 -0.3527  0.6545
17296TIP3    H273380   0.383   1.942  12.761  0.0131  1.1831 -0.3816
17297TIP3   OH273381   3.013   2.569   5.973 -0.3090  0.0082 -0.3476
17297TIP3    H173382   3.100   2.531   5.988  0.0448  0.8349 -0.2587
17297TIP3    H273383   3.004   2.636   6.041 -1.0668 -0.1415 -0.2912
17298TIP3   OH273384   3.097   4.442  16.132  0.1304 -0.2842  0.2135
17298TIP3    H173385   3.106   4.445  16.036  0.8695 -2.4094  0.1545
17298TIP3    H273386   3.023   4.384  16.147  0.7664 -0.9431  0.9060
17299TIP3   OH273387   6.252   0.460  16.631  0.1352 -0.3189  0.4417
17299TIP3    H173388   6.204   0.494  16.556 -0.6150 -1.0485  0.5662
17299TIP3    H273389   6.188   0.458  16.702  0.5753 -0.5205  0.8433
17300TIP3   OH273390   4.437   5.954  13.078  0.5781 -0.2873  0.0960
17300TIP3    H173391   4.447   5.869  13.035 -0.1907 -0.8058  0.9036
17300TIP3    H273392   4.470   5.939  13.167 -1.3825 -0.3243  0.8738
17301TIP3   OH273393   1.708   5.735   5.387 -0.3018  0.2137 -1.0454
17301TIP3    H173394   1.677   5.770   5.304  0.1820  0.4752 -1.1216
17301TIP3    H273395   1.801   5.761   5.391 -0.5380  0.9782 -0.0152
17302TIP3   OH273396   4.342   3.771  10.676  1.1261 -0.1568  0.2702
17302TIP3    H173397   4.412   3.825  10.638  1.0154  0.3224  0.7311
17302TIP3    H273398   4.268   3.784  10.618  0.9019  0.7163  0.7294
17303TIP3   OH273399   3.625   3.959  14.728  0.2176  0.3061  0.2448
17303TIP3    H173400   3.591   3.883  14.681  0.3587 -0.3633  1.2137
17303TIP3    H273401   3.559   3.979  14.793  0.5573  0.5095  0.5326
17304TIP3   OH273402   3.037   3.257  12.578 -0.2523 -0.0446 -0.0879
17304TIP3    H173403   2.956   3.247  12.627  0.2935  0.5527  0.9614
17304TIP3    H273404   3.100   3.293  12.641  0.7631 -0.2628 -0.9385
17305TIP3   OH273405   3.889   6.638  13.557  0.1258 -0.0514  0.2163
17305TIP3    H173406   3.810   6.584  13.548  0.6164 -0.6127 -0.8450
17305TIP3    H273407   3.894   6.687  13.475  0.8343  0.0520  0.3193
17306TIP3   OH273408   3.872   4.461  16.781  0.5674 -0.6424  0.1834
17306TIP3    H173409   3.893   4.527  16.848 -2.2885  2.1574 -1.4068
17306TIP3    H273410   3.912   4.495  16.701 -2.1752  0.0707 -0.9750
17307TIP3   OH273411   2.917   6.198  11.229 -0.5179 -0.2309  0.0565
17307TIP3    H173412   2.846   6.257  11.203  0.2998  0.6988 -0.1421
17307TIP3    H273413   2.955   6.168  11.147 -1.4796 -1.7604  0.1416
17308TIP3   OH273414   5.674   5.933  14.226 -0.8556 -0.9856  0.2125
17308TIP3    H173415   5.639   5.973  14.306 -1.2128  1.3270 -1.0019
17308TIP3    H273416   5.709   6.007  14.176  3.2442 -2.7838  0.0367
17309TIP3   OH273417   6.269   6.593   1.664 -0.5293  0.3860  0.2697
17309TIP3    H173418   6.188   6.569   1.707 -0.9133  0.9654 -0.1181
17309TIP3    H273419   6.276   6.688   1.676 -0.3847  0.4803 -0.4852
17310TIP3   OH273420   3.283   3.332   2.974  0.3684 -0.1049 -0.9329
17310TIP3    H173421   3.302   3.400   3.040  1.0688 -1.0127 -0.1748
17310TIP3    H273422   3.350   3.266   2.988  0.5670 -0.2978 -2.6304
17311TIP3   OH273423   6.198   0.746  15.110 -0.0224 -0.6165 -0.4179
17311TIP3    H173424   6.203   0.839  15.087 -1.3763 -0.7156 -1.2037
17311TIP3    H273425   6.287   0.723  15.138  0.5598  0.6723 -1.1391
17312TIP3   OH273426   4.106   2.439   3.946  0.3648  0.2802 -0.4660
17312TIP3    H173427   4.187   2.463   3.992  0.3825 -0.4398 -0.0927
17312TIP3    H273428   4.118   2.346   3.925 -0.1182  0.3236 -0.9369
17313TIP3   OH273429   2.338   6.446  15.686  0.1525  0.8420  0.1924
17313TIP3    H173430   2.285   6.503  15.742  0.0447  0.7248  0.2104
17313TIP3    H273431   2.289   6.441  15.604  0.2269  0.8805  0.1463
17314TIP3   OH273432   0.209   4.968  11.590  0.2740 -0.1361 -0.0907
17314TIP3    H173433   0.258   5.019  11.655 -1.8044 -0.5401  1.9183
17314TIP3    H273434   0.119   5.001  11.596 -0.2480 -1.1078 -1.8648
17315TIP3   OH273435   2.032   4.320   4.783  0.2375 -0.2248 -0.4387
17315TIP3    H173436   2.050   4.298   4.875 -0.8770 -1.7736 -0.5597
17315TIP3    H273437   2.086   4.259   4.733  0.3224  0.1624 -0.8282
17316TIP3   OH273438   5.967   0.713  13.066 -0.1765  0.8452  0.0514
17316TIP3    H173439   6.015   0.789  13.100  0.1787  0.6175  0.0652
17316TIP3    H273440   5.883   0.715  13.112 -0.4569  1.6383 -0.4754
17317TIP3   OH273441   6.454   3.336  14.194 -0.4564 -1.0912 -0.1156
17317TIP3    H173442   6.372   3.287  14.205 -2.1386  1.3488 -0.8909
17317TIP3    H273443   6.435   3.398  14.123  0.5325  2.4856  2.4560
17318TIP3   OH273444   2.311   6.597   3.204  0.0217  0.1098  0.2456
17318TIP3    H173445   2.258   6.565   3.131 -0.5328  0.3625  0.5376
17318TIP3    H273446   2.323   6.521   3.261 -1.0542  0.3376  0.7936
17319TIP3   OH273447   3.635   5.165  15.681  0.1549  0.0127 -0.6279
17319TIP3    H173448   3.580   5.143  15.756 -0.6898 -1.1702 -1.5348
17319TIP3    H273449   3.716   5.117  15.696 -0.8961 -2.2554 -1.5523
17320TIP3   OH273450   3.330   1.632   1.110 -0.2841 -0.1087 -0.1912
17320TIP3    H173451   3.261   1.682   1.068 -0.2558 -1.2584 -1.6772
17320TIP3    H273452   3.411   1.662   1.068 -0.1758 -0.7302 -0.4437
17321TIP3   OH273453   4.382   4.161   0.096 -0.2849  0.4105 -0.1972
17321TIP3    H173454   4.324   4.156   0.172 -0.5472 -1.4020 -0.4629
17321TIP3    H273455   4.337   4.111   0.028  0.5547  0.8837 -1.1285
17322TIP3   OH273456   1.663   2.449  16.783 -0.0883  0.0401  0.0138
17322TIP3    H173457   1.689   2.385  16.716  2.1152 -0.3792  1.1929
17322TIP3    H273458   1.687   2.534  16.745  0.2551 -0.1093 -0.1026
17323TIP3   OH273459   2.532   1.836  11.550 -0.3259  0.5458 -0.0086
17323TIP3    H173460   2.581   1.892  11.491 -1.4457 -0.0734 -1.5932
17323TIP3    H273461   2.578   1.843  11.634  3.2277 -0.8883 -1.6012
17324TIP3   OH273462   4.354   2.876  15.179 -0.5727  0.0030 -0.2510
17324TIP3    H173463   4.311   2.808  15.127 -2.2502 -0.0521  1.1113
17324TIP3    H273464   4.315   2.958  15.148  1.5916  0.4611 -2.0343
17325TIP3   OH273465   4.661   6.774   1.532 -0.2238  0.7217 -0.6167
17325TIP3    H173466   4.581   6.745   1.575  0.1129  1.3441  0.4675
17325TIP3    H273467   4.720   6.699   1.537 -0.3099  0.6737 -0.2972
17326TIP3   OH273468   2.464   5.650  14.233  0.0018 -0.4075  0.8328
17326TIP3    H173469   2.422   5.565  14.236 -2.6630  0.7764 -0.3550
17326TIP3    H273470   2.524   5.645  14.158 -0.0243 -1.2495  0.8628
17327TIP3   OH273471   1.677   4.649  13.901 -0.1978  0.5641 -0.1637
17327TIP3    H173472   1.727   4.573  13.929  1.3407  1.0685 -1.4168
17327TIP3    H273473   1.588   4.633  13.935 -0.1162 -2.0865 -0.9729
17328TIP3   OH273474   2.048   0.302   2.334 -0.2200 -0.3119 -0.0564
17328TIP3    H173475   2.024   0.393   2.315 -1.3668 -0.4458  0.6389
17328TIP3    H273476   2.008   0.251   2.263 -0.4236 -0.3640  0.0949
17329TIP3   OH273477   5.028   2.406  16.402 -0.3058  0.2395  0.3206
17329TIP3    H173478   5.073   2.340  16.350 -0.4944 -0.1518  0.6467
17329TIP3    H273479   5.074   2.406  16.486  1.3392  2.3510 -0.5103
17330TIP3   OH273480   3.968   1.452   5.478  0.4132 -0.0272  0.1804
17330TIP3    H173481   3.877   1.476   5.456  0.9198  2.7685  0.6853
17330TIP3    H273482   3.982   1.492   5.564  1.8561 -1.2163  0.5211
17331TIP3   OH273483   3.253   1.809  16.267 -0.2288 -0.5951  0.5746
17331TIP3    H173484   3.292   1.722  16.267 -0.8132 -0.8793 -0.3485
17331TIP3    H273485   3.295   1.854  16.194 -0.4433 -0.3457  0.6037
17332TIP3   OH273486   2.487   4.743  14.202  0.2837  0.6071 -0.0282
17332TIP3    H173487   2.560   4.707  14.152  0.4000 -1.5088  1.5177
17332TIP3    H273488   2.419   4.677  14.196  0.1962  0.4107  2.2693
17333TIP3   OH273489   5.902   4.764   1.615 -0.8920 -0.4405 -0.4742
17333TIP3    H173490   5.924   4.714   1.536  0.7823  0.5844 -0.7109
17333TIP3    H273491   5.807   4.768   1.615 -0.9245  0.2659 -2.9482
17334TIP3   OH273492   6.379   2.781   5.594  0.9105 -0.4846 -0.1494
17334TIP3    H173493   6.298   2.792   5.543  0.9925  2.0762  0.1407
17334TIP3    H273494   6.448   2.777   5.529  0.9228  1.8069 -0.3325
17335TIP3   OH273495   0.942   2.644  15.752  0.2101  0.3019  0.2217
17335TIP3    H173496   0.988   2.691  15.682  0.7614  1.0089  1.0442
17335TIP3    H273497   0.860   2.616  15.712  0.1843  1.3483 -0.4876
17336TIP3   OH273498   4.668   5.706   5.711  0.8494 -0.2616 -0.1563
17336TIP3    H173499   4.618   5.710   5.792 -0.3647  0.7401 -0.9278
17336TIP3    H273500   4.703   5.617   5.710  1.2328 -0.1743  1.6416
17337TIP3   OH273501   1.177   2.805   1.392  0.4415  0.0266 -0.5754
17337TIP3    H173502   1.169   2.733   1.454 -1.2472  3.8442  4.2359
17337TIP3    H273503   1.089   2.817   1.357  0.2590  0.9633  0.1975
17338TIP3   OH273504   4.841   6.757  11.903 -0.5030  0.5723  0.0332
17338TIP3    H173505   4.752   6.774  11.933 -0.9741  0.8020 -1.3990
17338TIP3    H273506   4.878   6.700  11.970 -2.4262 -1.2272 -0.3030
17339TIP3   OH273507   0.740   1.585  11.201  0.0674 -0.1240 -0.1413
17339TIP3    H173508   0.815   1.587  11.143  0.4015 -1.1440  0.2305
17339TIP3    H273509   0.666   1.611  11.146  1.0467  3.9633  0.1847
17340TIP3   OH273510   1.053   2.337  10.649  0.0598  0.3438  0.4132
17340TIP3    H173511   1.106   2.281  10.706  0.3412  0.9104  0.7194
17340TIP3    H273512   1.115   2.402  10.615 -0.5332  1.3621  1.2172
17341TIP3   OH273513   0.699   6.544   5.775 -0.3526 -0.4900 -0.2164
17341TIP3    H173514   0.775   6.504   5.733 -1.0083 -1.4964 -0.4607
17341TIP3    H273515   0.628   6.534   5.711 -1.0613 -0.9322  0.6291
17342TIP3   OH273516   3.589   3.019  12.207  0.0291 -0.5642  0.1246
17342TIP3    H173517   3.599   2.924  12.201  0.3548 -0.5338  0.1999
17342TIP3    H273518   3.642   3.053  12.135  1.5985 -0.3410  1.3379
17343TIP3   OH273519   4.862   4.656   4.512 -0.2295  0.3339  0.4996
17343TIP3    H173520   4.920   4.630   4.441  0.4890 -0.1090  1.2253
17343TIP3    H273521   4.915   4.644   4.591 -1.6908 -1.1937  1.2988
17344TIP3   OH273522   1.494   2.700   1.596  0.6094  0.0085 -0.3396
17344TIP3    H173523   1.415   2.706   1.542 -0.8330 -2.0596  1.3576
17344TIP3    H273524   1.493   2.780   1.648 -0.3155  0.0680 -0.4309
17345TIP3   OH273525   5.514   1.070   5.405 -0.8600  0.0657 -0.2011
17345TIP3    H173526   5.470   1.010   5.466 -3.4042 -0.3286 -2.2461
17345TIP3    H273527   5.458   1.147   5.402 -0.1932  0.5333 -1.2188
17346TIP3   OH273528   0.179   6.623   3.571 -0.4595  0.2622  0.0039
17346TIP3    H173529   0.156   6.690   3.506  0.2857  0.1986 -0.3289
17346TIP3    H273530   0.201   6.546   3.519 -2.1561 -0.5341  0.4051
17347TIP3   OH273531   6.668   4.132  11.933  0.1832  0.2088  0.1800
17347TIP3    H173532   6.762   4.129  11.911  0.4532  0.3181  1.2798
17347TIP3    H273533   6.638   4.042  11.921  0.0510  0.4607 -1.6852
17348TIP3   OH273534   4.439   1.979   1.284 -0.5661  0.2040  0.3101
17348TIP3    H173535   4.384   2.047   1.323 -0.9628 -0.4499  0.9421
17348TIP3    H273536   4.500   2.025   1.227  1.0077  1.4098  2.7865
17349TIP3   OH273537   6.637   0.123  14.915  0.3353  0.0935 -0.2440
17349TIP3    H173538   6.562   0.134  14.974 -0.2898  0.8063 -1.1258
17349TIP3    H273539   6.706   0.176  14.955 -0.6205  2.0206 -0.9992
17350TIP3   OH273540   4.944   3.151   4.878  0.1037 -0.4478  0.6120
17350TIP3    H173541   4.996   3.224   4.911 -0.8414  0.1614  0.7941
17350TIP3    H273542   4.854   3.173   4.902 -0.4351 -0.7226 -1.0252
17351TIP3   OH273543   3.748   0.086  12.387 -0.4414  0.5588 -0.5679
17351TIP3    H173544   3.705   0.003  12.409  0.2531  0.2858 -0.2130
17351TIP3    H273545   3.686   0.153  12.415 -0.7520  0.1674 -0.3076
17352TIP3   OH273546   5.737   6.320   1.214 -0.0987 -0.4412 -0.1284
17352TIP3    H173547   5.682   6.318   1.136  1.2582 -1.3549 -1.1108
17352TIP3    H273548   5.785   6.403   1.208 -0.7624 -0.0245  0.2964
17353TIP3   OH273549   5.231   3.113   2.645  0.3381  0.2312  0.3473
17353TIP3    H173550   5.182   3.195   2.650 -0.0287 -0.0199  1.0483
17353TIP3    H273551   5.281   3.120   2.564 -1.7700 -0.0182 -1.0376
17354TIP3   OH273552   5.030   5.756   2.980  0.3307  0.2261  0.4477
17354TIP3    H173553   5.052   5.845   3.010 -0.0100 -0.4472  2.9604
17354TIP3    H273554   4.952   5.733   3.031 -0.6676 -0.8894 -1.4773
17355TIP3   OH273555   1.317   0.152   2.268  0.4465  0.5284 -0.3449
17355TIP3    H173556   1.266   0.232   2.279  0.8540  0.6838  0.5084
17355TIP3    H273557   1.341   0.126   2.357  1.0540 -0.0616 -0.6696
17356TIP3   OH273558   2.023   2.602  10.606  0.3710 -0.2372 -0.1177
17356TIP3    H173559   2.084   2.542  10.648  1.0509 -0.9157 -1.9738
17356TIP3    H273560   1.982   2.550  10.536  0.7862  1.3532 -1.6245
17357TIP3   OH273561   0.171   1.181  10.708  0.4486 -0.2976  0.3919
17357TIP3    H173562   0.169   1.156  10.616  0.1286 -0.1442  0.3543
17357TIP3    H273563   0.129   1.108  10.754  2.6823 -1.4792  0.6990
17358TIP3   OH273564   0.609   4.860  10.222  0.0082  0.4349 -0.3931
17358TIP3    H173565   0.623   4.780  10.272 -0.0746  0.2016 -0.7470
17358TIP3    H273566   0.605   4.929  10.289 -2.0937 -0.1022  0.0940
17359TIP3   OH273567   1.919   6.588   4.665 -0.6767 -0.4527 -1.0702
17359TIP3    H173568   1.956   6.641   4.736 -3.1740 -0.2291  0.1702
17359TIP3    H273569   1.995   6.553   4.619  1.0609 -0.6078  1.7130
17360TIP3   OH273570   5.375   1.069   1.735  0.3880  0.2285  0.5139
17360TIP3    H173571   5.447   1.091   1.794  0.4911  1.5348 -0.0770
17360TIP3    H273572   5.296   1.072   1.789  0.8038 -2.1404  1.3989
17361TIP3   OH273573   5.967   2.659  13.191  0.4430  0.7113 -0.5873
17361TIP3    H173574   6.051   2.703  13.208  0.9452 -0.5019  0.1767
17361TIP3    H273575   5.901   2.721  13.222  1.1967  0.0877  2.6101
17362TIP3   OH273576   3.484   5.493   5.933 -0.9317 -0.0387 -0.2360
17362TIP3    H173577   3.511   5.410   5.972  0.1394 -0.8287 -2.4784
17362TIP3    H273578   3.565   5.540   5.916 -1.5082  1.3368  0.6667
17363TIP3   OH273579   1.852   4.497   0.265 -0.2238 -0.1635  0.1107
17363TIP3    H173580   1.778   4.466   0.317 -0.7034 -0.6287 -0.8165
17363TIP3    H273581   1.829   4.473   0.175  2.1232 -2.5095  0.0148
17364TIP3   OH273582   2.025   4.712   3.160 -0.1799  0.2926 -0.0390
17364TIP3    H173583   2.062   4.800   3.152 -1.4702  0.8103 -0.5063
17364TIP3    H273584   1.942   4.716   3.114  0.6931 -1.7914 -1.9701
17365TIP3   OH273585   2.877   4.363   1.346  0.3394  0.4888 -0.3336
17365TIP3    H173586   2.939   4.418   1.298 -0.0026 -1.0014 -2.6518
17365TIP3    H273587   2.914   4.275   1.340  1.2578  0.3659  3.8993
17366TIP3   OH273588   1.927   5.109  10.955 -0.0772 -0.2819 -0.3940
17366TIP3    H173589   1.913   5.204  10.956  0.8357 -0.0786 -2.1657
17366TIP3    H273590   1.858   5.076  10.898  0.6988 -0.4344 -1.2699
17367TIP3   OH273591   3.855   4.329   3.853 -0.0338  0.3186 -0.4511
17367TIP3    H173592   3.910   4.406   3.866  1.1445 -0.6457  0.4594
17367TIP3    H273593   3.776   4.363   3.811  0.4082  2.0380  0.0340
17368TIP3   OH273594   5.544   0.238  12.074 -0.3539 -0.1608  0.1156
17368TIP3    H173595   5.580   0.161  12.117  0.4134  0.3441  0.3960
17368TIP3    H273596   5.450   0.233  12.092 -0.0852 -0.0866  1.6848
17369TIP3   OH273597   5.132   5.583  11.375  0.2347  0.5444 -0.6751
17369TIP3    H173598   5.080   5.593  11.454  0.9502  0.2130 -0.1530
17369TIP3    H273599   5.117   5.663  11.325 -0.5886  0.5463 -0.4269
17370TIP3   OH273600   3.879   0.864   6.089  0.8686  0.0416 -0.0204
17370TIP3    H173601   3.970   0.861   6.060  1.2082 -1.3262  1.0832
17370TIP3    H273602   3.829   0.821   6.019  1.0620  0.7493 -0.6015
17371TIP3   OH273603   5.815   3.753   1.973 -0.9368 -0.0086 -0.6609
17371TIP3    H173604   5.764   3.795   2.042 -1.4821  0.1361 -1.1416
17371TIP3    H273605   5.862   3.825   1.931 -2.0074  0.1764 -1.5982
17372TIP3   OH273606   2.466   5.015   2.097 -0.4485  0.7261  0.2436
17372TIP3    H173607   2.456   5.090   2.156 -1.9449 -0.6866  1.9126
17372TIP3    H273608   2.383   5.012   2.048 -0.5834 -0.0659  0.5056
17373TIP3   OH273609   0.247   5.215  15.299 -0.5817  0.2869 -1.0432
17373TIP3    H173610   0.278   5.240  15.211  3.1860 -1.7479 -0.4810
17373TIP3    H273611   0.246   5.298  15.347  3.5121  0.8234 -1.4519
17374TIP3   OH273612   0.196   5.686   4.171 -0.1731 -0.3576 -0.1134
17374TIP3    H173613   0.236   5.633   4.240 -1.8186  0.2684  1.3948
17374TIP3    H273614   0.236   5.773   4.182 -1.6474  0.1887  1.1987
17375TIP3   OH273615   6.455   6.094   2.946  0.5868 -0.4317  0.0825
17375TIP3    H173616   6.488   6.012   2.982  1.7166  0.7214  1.8045
17375TIP3    H273617   6.395   6.128   3.012 -1.9958 -1.0901 -1.7673
17376TIP3   OH273618   1.210   1.930  14.531 -0.3516  0.6115  0.0537
17376TIP3    H173619   1.182   2.016  14.500 -0.4474  0.5416 -0.0532
17376TIP3    H273620   1.295   1.915  14.490 -0.3678  0.6242  0.0159
17377TIP3   OH273621   0.866   5.938   3.799 -0.5633 -0.0326  0.1086
17377TIP3    H173622   0.794   5.878   3.777  1.5536 -2.1722 -1.5154
17377TIP3    H273623   0.930   5.882   3.843  0.0575  1.8743  1.7541
17378TIP3   OH273624   0.702   6.380  11.067  0.2617 -0.1524 -0.0393
17378TIP3    H173625   0.612   6.404  11.088  0.5985  1.9725 -0.7701
17378TIP3    H273626   0.694   6.318  10.994 -0.5890  0.3708 -0.3992
17379TIP3   OH273627   2.701   5.107   4.349  0.0293  0.0844 -0.0235
17379TIP3    H173628   2.685   5.107   4.255  1.2001 -1.8297 -0.2491
17379TIP3    H273629   2.743   5.024   4.368 -1.2008 -0.1062  2.3919
17380TIP3   OH273630   5.957   6.444  15.182 -0.0128 -0.2526  0.0602
17380TIP3    H173631   5.949   6.370  15.243 -2.7192 -0.8555 -0.8929
17380TIP3    H273632   5.953   6.404  15.096 -1.0668  0.9578 -0.4811
17381TIP3   OH273633   0.105   4.265   1.019  0.3287  0.3704  0.0348
17381TIP3    H173634   0.190   4.307   1.033  1.7397 -2.3830  0.5289
17381TIP3    H273635   0.122   4.198   0.953 -1.7181  0.3426 -0.5253
17382TIP3   OH273636   1.961   5.008   4.753  0.1830  0.0084 -0.3227
17382TIP3    H173637   1.948   5.000   4.848  1.4384  0.1995 -0.1153
17382TIP3    H273638   1.988   4.921   4.725 -1.0023 -0.2691 -0.6696
17383TIP3   OH273639   6.414   0.786   2.629  0.5157  0.7321 -0.1792
17383TIP3    H173640   6.328   0.761   2.596  0.8244  1.2476 -1.4544
17383TIP3    H273641   6.449   0.706   2.667  0.2826 -0.0284 -1.4811
17384TIP3   OH273642   0.234   3.900   1.662 -0.2201  0.3289 -0.4548
17384TIP3    H173643   0.165   3.963   1.683 -2.3991 -2.0577  0.1011
17384TIP3    H273644   0.210   3.865   1.576  0.7904  0.0661 -0.6450
17385TIP3   OH273645   5.245   2.168   5.029 -0.0078  0.3282  0.1384
17385TIP3    H173646   5.305   2.101   5.062 -0.6131 -0.1261  0.3365
17385TIP3    H273647   5.158   2.135   5.051 -0.3145  1.2045  0.2779
17386TIP3   OH273648   0.925   2.015  13.381 -0.0993  0.3105 -0.0440
17386TIP3    H173649   0.907   2.021  13.474 -1.0369  2.2215 -0.2943
17386TIP3    H273650   1.000   1.956  13.374  0.0703  0.2478  1.9146
17387TIP3   OH273651   4.921   5.429   3.600  0.2904 -0.6558  0.1729
17387TIP3    H173652   4.908   5.486   3.676  2.1037  0.4411 -0.2770
17387TIP3    H273653   4.872   5.471   3.530 -0.1849 -0.8631  0.3811
17388TIP3   OH273654   3.575   2.205   1.702 -0.2412 -0.5940 -0.4620
17388TIP3    H173655   3.637   2.150   1.655  0.3612 -0.4742  0.1814
17388TIP3    H273656   3.495   2.201   1.649  0.9789  1.1756 -2.6415
17389TIP3   OH273657   5.611   4.275   0.833  0.4774 -0.0742  0.5442
17389TIP3    H173658   5.534   4.332   0.835  0.4444 -0.0031 -1.1786
17389TIP3    H273659   5.618   4.248   0.742  1.9097 -0.9095  0.8738
17390TIP3   OH273660   4.998   4.525  14.972 -0.4450  0.0114  0.5875
17390TIP3    H173661   4.986   4.618  14.994 -0.9909 -0.1568  1.0269
17390TIP3    H273662   5.059   4.492  15.037  1.0251  0.4201 -0.5180
17391TIP3   OH273663   4.314   3.045  16.262 -0.1327  0.5640 -0.2037
17391TIP3    H173664   4.398   3.088  16.246  0.0287  0.4464  0.3082
17391TIP3    H273665   4.297   3.060  16.355  0.1888 -0.9398  0.1218
17392TIP3   OH273666   1.986   4.307  12.251 -0.2697 -0.2046 -0.2538
17392TIP3    H173667   1.907   4.339  12.294  1.5821  0.4569  2.9725
17392TIP3    H273668   2.006   4.224  12.296  0.7616 -0.4715 -1.1496
17393TIP3   OH273669   4.662   5.144  14.727 -0.1467 -0.8381  0.1713
17393TIP3    H173670   4.613   5.081  14.780  1.4306 -0.7444  1.8326
17393TIP3    H273671   4.692   5.209  14.789 -0.4211  0.7644 -1.2799
17394TIP3   OH273672   3.034   2.343  13.589  0.1373  0.0672 -0.4667
17394TIP3    H173673   3.063   2.382  13.672 -1.9688  0.2378  0.2545
17394TIP3    H273674   3.098   2.373  13.525  0.8952  1.3204  0.8110
17395TIP3   OH273675   3.594   0.391   1.845 -0.4019 -0.1165  0.2875
17395TIP3    H173676   3.500   0.394   1.832 -0.3368  0.0999 -0.1468
17395TIP3    H273677   3.608   0.318   1.906 -0.9493  0.6063  1.2975
17396TIP3   OH273678   2.513   2.509   1.532 -0.3309 -0.0459  0.1537
17396TIP3    H173679   2.450   2.553   1.589  0.5546 -0.4358  1.4686
17396TIP3    H273680   2.598   2.525   1.573  0.9145  3.0816 -3.1440
17397TIP3   OH273681   0.596   0.058   0.877 -0.0185 -0.6009  0.2587
17397TIP3    H173682   0.563  -0.015   0.824 -0.5798 -0.1244 -0.0597
17397TIP3    H273683   0.599   0.132   0.817  0.8677 -0.4283  0.4985
17398TIP3   OH273684   5.740   4.809  13.140  0.1188 -0.0113  0.3117
17398TIP3    H173685   5.775   4.723  13.116 -0.5874  0.0195 -0.8776
17398TIP3    H273686   5.816   4.857  13.173  0.4822 -1.1558  1.2355
17399TIP3   OH273687   3.277   1.443   2.179  0.0549  0.2541 -0.0357
17399TIP3    H173688   3.204   1.387   2.206  0.4049 -0.5825 -0.7727
17399TIP3    H273689   3.244   1.532   2.190 -0.5054 -0.0884  1.1697
17400TIP3   OH273690   1.673   3.763   3.554 -0.6619  0.0145  0.0637
17400TIP3    H173691   1.732   3.687   3.552  0.1053  0.4019  2.9576
17400TIP3    H273692   1.623   3.752   3.635 -2.6831  1.1101 -0.9620
17401TIP3   OH273693   3.890   2.901   3.086 -0.3163  0.2175  0.0213
17401TIP3    H173694   3.960   2.965   3.079 -0.9883  0.9063 -0.5936
17401TIP3    H273695   3.913   2.848   3.162 -0.1416  1.6680  1.0117
17402TIP3   OH273696   0.743   0.300  14.102 -0.5162  0.4330  0.1281
17402TIP3    H173697   0.668   0.264  14.150 -0.9934 -0.3062 -1.1391
17402TIP3    H273698   0.720   0.290  14.010  1.0658  0.3585 -0.2888
17403TIP3   OH273699   3.302   6.543   1.890 -0.2055 -0.1722  0.3694
17403TIP3    H173700   3.370   6.589   1.940  1.5580 -1.4897 -0.6692
17403TIP3    H273701   3.331   6.451   1.892 -0.8320 -0.4545 -1.8786
17404TIP3   OH273702   4.837   4.652  10.379  0.5281  0.0728  0.0404
17404TIP3    H173703   4.912   4.642  10.321 -0.2391 -1.0025 -0.8130
17404TIP3    H273704   4.761   4.633  10.324 -0.2318 -1.0471  1.4062
17405TIP3   OH273705   0.571   1.899   1.341  0.3032 -0.5058 -0.3742
17405TIP3    H173706   0.566   1.964   1.411  2.3478 -0.1290 -0.5005
17405TIP3    H273707   0.665   1.887   1.327 -0.0353 -0.8593 -2.7830
17406TIP3   OH273708   2.981   1.245  11.457 -0.1229 -0.1209 -0.5600
17406TIP3    H173709   3.060   1.244  11.512 -0.0091  1.2339 -0.6709
17406TIP3    H273710   2.962   1.337  11.444 -0.8348 -0.4242 -1.8331
17407TIP3   OH273711   1.172   6.578   0.837 -0.0484 -0.1818  0.2278
17407TIP3    H173712   1.084   6.554   0.810  0.0905  1.7885 -2.3451
17407TIP3    H273713   1.175   6.557   0.931 -2.3040 -2.7878 -0.1570
17408TIP3   OH273714   1.656   5.049   5.484 -0.6522 -0.0789  0.1711
17408TIP3    H173715   1.708   5.127   5.467 -1.4850  0.1677 -1.5450
17408TIP3    H273716   1.602   5.072   5.559 -0.0566  0.5652  0.4090
17409TIP3   OH273717   2.636   0.681  11.819  0.2512  0.3528  0.2948
17409TIP3    H173718   2.574   0.751  11.801 -0.6825 -0.9607 -2.0475
17409TIP3    H273719   2.592   0.601  11.788  3.0420 -0.6538 -1.5168
17410TIP3   OH273720   4.265   5.970   2.117  0.0230 -0.5660 -0.2722
17410TIP3    H173721   4.313   6.044   2.154  1.6990 -1.1426 -1.1970
17410TIP3    H273722   4.269   5.903   2.185  1.5449 -1.0049 -0.7740
17411TIP3   OH273723   6.714   0.751  10.954 -0.2868  0.1698 -0.4805
17411TIP3    H173724   6.643   0.781  11.011 -1.4173 -0.0679 -1.7130
17411TIP3    H273725   6.781   0.720  11.014 -1.5429 -0.3293  0.7347
17412TIP3   OH273726   1.309   6.729  15.050 -0.3188  0.2863  0.4040
17412TIP3    H173727   1.247   6.660  15.074  1.5444 -1.9464 -0.8069
17412TIP3    H273728   1.391   6.703  15.094  0.6140  1.3346 -0.6538
17413TIP3   OH273729   3.978   3.950  14.616  0.4482  0.0267 -0.3185
17413TIP3    H173730   3.915   3.970  14.547  0.1430 -3.4955 -1.2666
17413TIP3    H273731   4.063   3.972  14.579  0.0940  1.0665 -0.5546
17414TIP3   OH273732   6.821   3.897   0.372  0.5780 -0.5878 -0.1863
17414TIP3    H173733   6.801   3.870   0.462 -0.4393 -0.8238 -0.4714
17414TIP3    H273734   6.863   3.820   0.332 -2.2345 -1.8305 -0.9719
17415TIP3   OH273735   2.681   3.293  16.373  0.4521  0.2973 -0.0632
17415TIP3    H173736   2.679   3.267  16.281 -1.3541  2.3103 -0.6704
17415TIP3    H273737   2.745   3.365  16.376  1.0038 -0.2065  0.4036
17416TIP3   OH273738   6.304   2.295  12.463 -0.1685 -0.3634 -0.0288
17416TIP3    H173739   6.239   2.292  12.533 -0.5992 -0.7403 -0.4404
17416TIP3    H273740   6.388   2.283  12.507 -0.2591  1.1654  0.6437
17417TIP3   OH273741   3.891   0.916   1.403  0.0336 -0.5934 -0.2239
17417TIP3    H173742   3.953   0.911   1.330 -0.3125  0.3856 -0.6110
17417TIP3    H273743   3.806   0.932   1.361 -0.3114 -0.8768  0.3555
17418TIP3   OH273744   0.774   4.112   2.572 -0.1546 -0.1951  0.5962
17418TIP3    H173745   0.708   4.109   2.641 -1.9532 -2.5917 -1.0216
17418TIP3    H273746   0.744   4.180   2.512  0.6157  0.8900  1.4237
17419TIP3   OH273747   0.772   1.660  15.922 -0.8602  0.1039  0.3475
17419TIP3    H173748   0.787   1.567  15.905 -1.0534  0.1910 -0.3291
17419TIP3    H273749   0.745   1.664  16.013 -0.1872 -0.4308  0.5743
17420TIP3   OH273750   1.466   6.246   3.901 -0.2670 -0.5856 -0.1041
17420TIP3    H173751   1.410   6.237   3.978 -2.3527  0.5191 -1.3945
17420TIP3    H273752   1.405   6.240   3.827  0.9892  2.4774 -1.5424
17421TIP3   OH273753   3.304   6.781  14.585 -0.8344  0.2679 -0.0719
17421TIP3    H173754   3.336   6.863  14.621  0.9442 -1.5535  2.9146
17421TIP3    H273755   3.225   6.805  14.536  0.1727  3.8125 -0.1948
17422TIP3   OH273756   4.402   3.885   4.133 -0.1678 -0.2239 -0.3104
17422TIP3    H173757   4.391   3.798   4.171 -1.2685 -0.4179 -1.0432
17422TIP3    H273758   4.351   3.943   4.190  0.7626  0.0048  0.3208
17423TIP3   OH273759   1.357   3.374  15.320  0.5448  0.3054 -0.8362
17423TIP3    H173760   1.358   3.470  15.315 -1.4327  0.3429 -0.9571
17423TIP3    H273761   1.313   3.355  15.403 -0.5616 -0.4985 -1.5956
17424TIP3   OH273762   1.176   2.345  11.992 -0.1940 -0.0978  1.0784
17424TIP3    H173763   1.162   2.431  12.033  2.3215  0.9392  0.0300
17424TIP3    H273764   1.197   2.287  12.065  2.6313  1.3309  1.5439
17425TIP3   OH273765   5.548   0.304   5.588 -0.0285  0.5584  0.1860
17425TIP3    H173766   5.627   0.348   5.554  0.0800  0.5231  0.3879
17425TIP3    H273767   5.537   0.342   5.676  0.7576 -0.6698  0.8449
17426TIP3   OH273768   1.209   2.503   5.344  0.4633 -0.1312  0.1789
17426TIP3    H173769   1.230   2.568   5.411  0.1217  0.2543 -0.0893
17426TIP3    H273770   1.245   2.421   5.379 -3.9386 -1.0708  3.2716
17427TIP3   OH273771   0.775   0.581   2.084  0.2135  0.4486  0.0207
17427TIP3    H173772   0.846   0.528   2.121 -0.0916  0.9085  1.2919
17427TIP3    H273773   0.819   0.640   2.023  1.0234  1.1272  1.2291
17428TIP3   OH273774   4.548   6.723  16.912  0.1702 -0.2825  0.0900
17428TIP3    H173775   4.461   6.762  16.901 -1.1416 -3.1227 -0.5176
17428TIP3    H273776   4.600   6.758  16.840 -0.9836  0.1662 -0.5459
17429TIP3   OH273777   6.203   6.457  10.273  0.2010  0.4955 -0.1557
17429TIP3    H173778   6.238   6.483  10.187 -0.8694  0.5936 -0.5797
17429TIP3    H273779   6.239   6.521  10.334 -0.4898  1.5698 -0.8281
17430TIP3   OH273780   2.855   2.826   5.105 -0.4401  0.5494  0.4662
17430TIP3    H173781   2.780   2.845   5.048 -0.1487  0.9708  0.2160
17430TIP3    H273782   2.883   2.738   5.079 -1.3459  0.0528  1.1219
17431TIP3   OH273783   4.893   6.405  15.274  0.5419 -0.7857  0.1018
17431TIP3    H173784   4.900   6.491  15.314  0.5179 -0.6989 -0.0802
17431TIP3    H273785   4.981   6.386  15.242  0.1758 -0.0785 -1.4047
17432TIP3   OH273786   2.221   2.247  13.056  0.3553 -0.3239 -0.2313
17432TIP3    H173787   2.201   2.328  13.008 -1.3225  1.8058  3.6136
17432TIP3    H273788   2.302   2.267  13.104 -0.6086 -0.4287  1.5300
17433TIP3   OH273789   0.226   1.884  11.614  0.1707  0.2636 -0.0054
17433TIP3    H173790   0.279   1.881  11.534  0.5563 -0.8488  0.2696
17433TIP3    H273791   0.135   1.876  11.582  0.3469 -0.6089 -0.3200
17434TIP3   OH273792   0.471   4.587   5.880 -0.4745  0.0315 -0.5025
17434TIP3    H173793   0.389   4.635   5.868 -1.8309 -2.2879 -1.0405
17434TIP3    H273794   0.498   4.607   5.970 -1.1530  1.4829 -0.5923
17435TIP3   OH273795   4.545   6.066   4.267  0.5757 -0.0984 -0.6125
17435TIP3    H173796   4.564   6.148   4.312  0.2112 -1.5782  2.5539
17435TIP3    H273797   4.594   6.071   4.184  1.4661  2.7862 -0.0085
17436TIP3   OH273798   0.767   4.360   5.955  0.2848 -0.2090 -0.4445
17436TIP3    H173799   0.725   4.303   5.890  1.0173  0.1687 -1.2873
17436TIP3    H273800   0.802   4.433   5.903  1.7524 -0.3942  0.2374
17437TIP3   OH273801   1.736   6.246   4.424 -0.3188 -0.0385  0.0970
17437TIP3    H173802   1.829   6.226   4.434 -0.2364 -0.2303 -0.9254
17437TIP3    H273803   1.734   6.326   4.371 -0.7307  0.1869  0.4510
17438TIP3   OH273804   3.177   6.174   6.139 -0.6659 -0.6857  0.5144
17438TIP3    H173805   3.213   6.096   6.181 -0.4679 -0.7493  0.2303
17438TIP3    H273806   3.254   6.225   6.113 -0.5893 -2.3360 -3.0272
17439TIP3   OH273807   3.471   4.241  14.130 -0.0526 -0.3242  0.2665
17439TIP3    H173808   3.458   4.268  14.221 -0.8238 -0.7963  0.3087
17439TIP3    H273809   3.404   4.287  14.081 -1.4303 -2.1202  0.3455
17440TIP3   OH273810   0.616   2.573  14.740 -0.1733  0.2766 -0.1335
17440TIP3    H173811   0.674   2.548  14.668 -0.2535 -0.4241  0.0378
17440TIP3    H273812   0.534   2.526  14.722  0.1601 -0.7602  0.9864
17441TIP3   OH273813   6.038   5.610  17.108  0.0414 -0.0105  0.1898
17441TIP3    H173814   6.097   5.686  17.109 -0.7678  0.6489 -0.5218
17441TIP3    H273815   6.014   5.601  17.016 -1.2414 -0.0534  0.5147
17442TIP3   OH273816   1.314   5.122   4.425  0.2264  0.0844 -0.0374
17442TIP3    H173817   1.382   5.113   4.491  0.9683  0.8066 -0.6765
17442TIP3    H273818   1.349   5.075   4.349 -0.3402 -0.2136 -0.1150
17443TIP3   OH273819   1.434   5.061  15.970 -0.0209  0.3475  0.3333
17443TIP3    H173820   1.344   5.032  15.957 -1.0594  2.5057  2.1563
17443TIP3    H273821   1.463   5.013  16.048  0.7088 -0.8517 -0.6333
17444TIP3   OH273822   2.121   2.236  13.449 -0.1522 -0.4953  0.2685
17444TIP3    H173823   2.159   2.165  13.398  1.1527  0.5710 -0.3191
17444TIP3    H273824   2.194   2.270  13.501 -0.4456  1.0949 -0.2879
17445TIP3   OH273825   6.330   0.572   4.039  0.2378  0.0807 -0.2379
17445TIP3    H173826   6.242   0.578   4.076  0.0753 -1.5859 -0.3045
17445TIP3    H273827   6.328   0.631   3.964 -1.5869 -1.6268 -1.6570
17446TIP3   OH273828   3.366   1.029  13.053 -0.3186 -0.2563 -0.2794
17446TIP3    H173829   3.433   0.964  13.031  0.4340 -0.0278  1.2250
17446TIP3    H273830   3.409   1.114  13.037 -1.3608 -0.0581 -2.4376
17447TIP3   OH273831   1.545   1.685  12.338 -0.2217 -0.2200 -0.3979
17447TIP3    H173832   1.541   1.726  12.424 -0.2220 -0.5947 -0.2196
17447TIP3    H273833   1.625   1.720  12.298 -0.9732  1.0969 -0.8348
17448TIP3   OH273834   2.128   5.008   4.116  0.3043  0.9536  0.0927
17448TIP3    H173835   2.145   5.097   4.147 -0.5451  1.1056  0.1453
17448TIP3    H273836   2.066   5.019   4.044 -0.1789  0.3778  0.4073
17449TIP3   OH273837   5.893   5.756   4.032  0.6404 -0.2909  0.6236
17449TIP3    H173838   5.874   5.761   3.938  0.9149 -1.5360  0.4794
17449TIP3    H273839   5.846   5.829   4.070  0.9323  0.5352 -0.5489
17450TIP3   OH273840   0.295   0.879   3.385 -0.3177  0.5859  0.2479
17450TIP3    H173841   0.358   0.823   3.341  1.3979  2.0776  0.6544
17450TIP3    H273842   0.232   0.819   3.424  2.0456 -1.1702  1.6370
17451TIP3   OH273843   0.538   6.131  11.243 -0.1225 -0.2175 -0.2297
17451TIP3    H173844   0.577   6.072  11.178  0.7778  0.7869 -0.6178
17451TIP3    H273845   0.459   6.085  11.272  1.7075 -2.6979  1.1812
17452TIP3   OH273846   0.504   4.276   1.843 -0.3647  0.0383 -0.0304
17452TIP3    H173847   0.438   4.216   1.879 -0.5990  0.3914  0.1352
17452TIP3    H273848   0.453   4.345   1.801 -0.1299  1.0243  1.2421
17453TIP3   OH273849   0.838   4.919   5.961  0.3301  0.1498 -1.0464
17453TIP3    H173850   0.860   4.874   5.880 -0.1161 -0.3630 -0.8954
17453TIP3    H273851   0.824   4.848   6.024 -0.1950  0.5066 -0.7500
17454TIP3   OH273852   0.341   3.865  11.885  0.1562  0.0166  0.2081
17454TIP3    H173853   0.386   3.949  11.895  0.5540 -0.3062  1.3241
17454TIP3    H273854   0.267   3.870  11.945 -0.2119 -0.1834 -0.2206
17455TIP3   OH273855   0.613   6.684  11.809  0.4834 -0.1801  0.4845
17455TIP3    H173856   0.566   6.688  11.726  0.6796 -0.4351  0.3599
17455TIP3    H273857   0.557   6.633  11.867  1.5288 -2.2926 -0.2820
17456TIP3   OH273858   2.278   1.365  15.052  0.0095 -0.6089  0.1970
17456TIP3    H173859   2.322   1.304  14.993 -1.1377 -1.1654 -0.1249
17456TIP3    H273860   2.303   1.451  15.019 -0.3263 -0.9096 -0.9063
17457TIP3   OH273861   1.880   0.391  11.912  0.4528  0.2518 -0.5089
17457TIP3    H173862   1.794   0.388  11.953  0.7581  1.0422  0.2293
17457TIP3    H273863   1.905   0.484  11.916  2.6245 -0.2979  2.0735
17458TIP3   OH273864   0.369   6.301   2.947  0.5342 -0.0787  0.3046
17458TIP3    H173865   0.334   6.335   2.864 -3.9188 -2.9286  0.6547
17458TIP3    H273866   0.355   6.372   3.009 -2.1443  0.0022 -0.2637
17459TIP3   OH273867   4.284   1.607   0.537  0.1290  1.0931 -0.3698
17459TIP3    H173868   4.355   1.670   0.529 -0.5252  1.9910  0.6419
17459TIP3    H273869   4.326   1.526   0.565  0.7063  1.7210  0.5977
17460TIP3   OH273870   4.952   6.372   0.334 -0.2980 -0.3971  0.2722
17460TIP3    H173871   4.904   6.455   0.336 -0.2924 -0.2653 -2.1203
17460TIP3    H273872   4.904   6.318   0.271  2.8590 -0.0195 -2.8374
17461TIP3   OH273873   1.694   3.814   4.624  0.8733 -0.1169  0.1038
17461TIP3    H173874   1.684   3.755   4.549  1.6932 -2.2553  1.6000
17461TIP3    H273875   1.692   3.757   4.700  0.5304  1.9492  1.7332
17462TIP3   OH273876   5.740   2.118   3.340  0.3613 -0.0120 -0.0534
17462TIP3    H173877   5.793   2.192   3.368  0.2875  0.5346 -1.2856
17462TIP3    H273878   5.650   2.149   3.347  0.2628 -0.4615  0.7199
17463TIP3   OH273879   0.817   3.480  11.136  0.1323  0.0658 -0.4599
17463TIP3    H173880   0.769   3.403  11.106 -1.0617  1.1359 -1.4096
17463TIP3    H273881   0.812   3.541  11.063  3.7869 -0.0609 -1.0126
17464TIP3   OH273882   2.345   4.119   1.680  0.2157  0.2232  0.1350
17464TIP3    H173883   2.372   4.196   1.628 -2.7860 -0.1124 -2.2112
17464TIP3    H273884   2.423   4.064   1.682  1.3655  1.6513 -1.4325
17465TIP3   OH273885   5.981   3.847   0.366 -0.6806  0.6174 -0.2532
17465TIP3    H173886   6.040   3.859   0.291  0.0926  0.9885  0.4054
17465TIP3    H273887   6.035   3.805   0.433 -1.7379 -1.0118 -0.3619
17466TIP3   OH273888   6.284   5.404   6.162  0.2992 -0.6274  0.3608
17466TIP3    H173889   6.198   5.399   6.204  0.4143  0.4624  0.7558
17466TIP3    H273890   6.341   5.353   6.219 -0.0440 -1.2102  0.1898
17467TIP3   OH273891   4.446   1.208  12.853 -0.0389 -0.3873 -0.4444
17467TIP3    H173892   4.388   1.280  12.882 -0.0516 -0.2930 -0.6990
17467TIP3    H273893   4.491   1.181  12.932 -1.1295 -1.1044 -0.0404
17468TIP3   OH273894   4.463   6.360   6.123 -0.4124  0.2160  0.0711
17468TIP3    H173895   4.461   6.455   6.139 -0.2242 -0.0310  1.7618
17468TIP3    H273896   4.482   6.352   6.030 -0.9683  1.8417 -0.2240
17469TIP3   OH273897   3.929   0.524  16.203 -0.6366 -0.3759  0.0802
17469TIP3    H173898   3.966   0.544  16.289 -1.5088  0.1091  0.3509
17469TIP3    H273899   3.846   0.570  16.201 -1.3625 -1.6573 -0.4289
17470TIP3   OH273900   2.119   4.717   4.326  0.2245  0.1064  0.0426
17470TIP3    H173901   2.130   4.633   4.371  0.2832 -0.6814 -1.3696
17470TIP3    H273902   2.092   4.693   4.237  0.6959  1.5724 -0.5281
17471TIP3   OH273903   5.154   4.912   5.928 -0.0607 -0.0828 -0.2081
17471TIP3    H173904   5.175   4.894   6.020 -1.4088 -1.3780 -0.1153
17471TIP3    H273905   5.229   4.877   5.879  0.7637  0.7973  0.3768
17472TIP3   OH273906   3.211   6.473   2.352  0.2519  0.4197 -0.2494
17472TIP3    H173907   3.170   6.435   2.274 -0.6148 -0.0317  0.4075
17472TIP3    H273908   3.303   6.450   2.344 -0.0218 -0.6592 -0.5659
17473TIP3   OH273909   5.046   0.404  13.561  0.8449  0.0486  0.8868
17473TIP3    H173910   5.032   0.313  13.584  3.4310 -0.6022  0.1753
17473TIP3    H273911   4.979   0.423  13.495 -0.0345 -1.1483  1.4073
17474TIP3   OH273912   4.766   1.894  13.129 -0.0271  0.0887 -0.3646
17474TIP3    H173913   4.829   1.965  13.145 -0.0587 -0.4895  3.0063
17474TIP3    H273914   4.687   1.922  13.174 -1.2823 -0.5077 -2.1109
17475TIP3   OH273915   1.194   2.887   1.874 -0.4542 -0.4279 -0.1115
17475TIP3    H173916   1.228   2.933   1.951 -0.0826  0.1308 -0.5958
17475TIP3    H273917   1.152   2.809   1.909 -0.3419 -0.1514  0.6634
17476TIP3   OH273918   4.193   5.452   2.799  0.2458 -0.4394 -0.2326
17476TIP3    H173919   4.159   5.426   2.884 -1.2901 -1.3252 -1.0707
17476TIP3    H273920   4.213   5.546   2.809 -0.8011 -0.3018  0.8326
17477TIP3   OH273921   4.711   3.206  14.420 -0.7952 -0.3836  0.2267
17477TIP3    H173922   4.706   3.265  14.495 -1.1539 -0.0663 -0.0400
17477TIP3    H273923   4.669   3.254  14.349  1.6936  0.3411 -0.8442
17478TIP3   OH273924   3.328   6.277  13.056  0.0994 -0.4136 -0.1345
17478TIP3    H173925   3.308   6.226  12.977  0.7661  0.8235 -1.1473
17478TIP3    H273926   3.245   6.318  13.078 -0.3525 -1.6004  0.4685
17479TIP3   OH273927   6.436   0.668   3.431  0.7230  0.2480 -0.5122
17479TIP3    H173928   6.487   0.651   3.352  3.4440  0.2004  1.1285
17479TIP3    H273929   6.468   0.752   3.463  0.1396 -0.0210  0.8483
17480TIP3   OH273930   3.925   4.543   3.685 -0.8979 -0.3354  0.0826
17480TIP3    H173931   3.996   4.521   3.625 -0.4672  1.4885 -0.1204
17480TIP3    H273932   3.856   4.579   3.630 -1.3299 -0.5755  0.4583
17481TIP3   OH273933   6.321   1.091  14.619 -0.2227 -0.1692  0.3551
17481TIP3    H173934   6.277   1.122  14.541 -0.0555 -0.1582  0.2656
17481TIP3    H273935   6.414   1.087  14.595 -0.3016 -1.2801  0.1754
17482TIP3   OH273936   1.310   2.208  10.487  0.1470 -0.3690  0.1969
17482TIP3    H173937   1.280   2.153  10.559 -0.0540 -0.4762  0.0315
17482TIP3    H273938   1.235   2.214  10.428  0.6101 -1.1022 -0.5002
17483TIP3   OH273939   1.333   4.477  16.876  0.0097  0.3894  0.3380
17483TIP3    H173940   1.373   4.543  16.932 -0.4574 -0.1106  1.2849
17483TIP3    H273941   1.303   4.409  16.936  3.4109 -2.4007 -0.7239
17484TIP3   OH273942   0.151   0.953  11.353  0.9821  0.7049 -0.3637
17484TIP3    H173943   0.114   0.948  11.441  0.0060  1.3101 -0.7201
17484TIP3    H273944   0.165   0.862  11.327  0.3321  0.4876  0.0260
17485TIP3   OH273945   6.153   1.968  13.052  0.1879 -0.4107  0.4602
17485TIP3    H173946   6.100   1.996  12.977 -0.3135  0.3880  1.0948
17485TIP3    H273947   6.195   2.049  13.082  0.7504 -0.8127  0.7582
17486TIP3   OH273948   5.815   3.825  12.214 -0.1864 -0.7803  0.0827
17486TIP3    H173949   5.769   3.807  12.132 -2.6803  0.2202  1.1552
17486TIP3    H273950   5.892   3.875  12.188 -1.7228  0.8639 -1.5626
17487TIP3   OH273951   0.553   2.049   4.988 -0.1536  0.0226 -0.4432
17487TIP3    H173952   0.507   2.008   4.914 -2.1937 -1.1334  1.3242
17487TIP3    H273953   0.535   1.990   5.061  1.6480  1.2162  1.0220
17488TIP3   OH273954   1.645   1.255  12.396 -0.5356 -0.1554  0.2899
17488TIP3    H173955   1.683   1.170  12.418 -2.4649 -1.0239  0.4454
17488TIP3    H273956   1.641   1.255  12.300 -1.1339 -0.5333  0.3100
17489TIP3   OH273957   5.216   3.437  13.286  0.3025  0.4661  0.4775
17489TIP3    H173958   5.234   3.521  13.242  2.3031 -0.0998  0.1237
17489TIP3    H273959   5.245   3.451  13.376 -1.6135  0.8678  1.0887
17490TIP3   OH273960   5.696   5.802   5.137  0.1581 -0.0121  0.0210
17490TIP3    H173961   5.630   5.844   5.082 -1.0391 -1.1795  0.5173
17490TIP3    H273962   5.722   5.724   5.088 -0.9469 -1.0854  1.0611
17491TIP3   OH273963   5.579   0.627   1.742 -0.6416  0.0570  0.4835
17491TIP3    H173964   5.576   0.588   1.655 -0.7675 -0.3601  0.6756
17491TIP3    H273965   5.673   0.632   1.762 -0.5427  1.2376 -0.1559
17492TIP3   OH273966   0.868   5.744   0.582 -0.6673 -0.5358  0.0661
17492TIP3    H173967   0.839   5.665   0.627 -0.8994 -0.2693  0.3864
17492TIP3    H273968   0.930   5.712   0.516 -0.9337 -1.0075  0.0352
17493TIP3   OH273969   0.268   3.889  10.676 -1.0146  0.0784  0.3629
17493TIP3    H173970   0.182   3.853  10.698 -0.4557 -0.3601  1.9374
17493TIP3    H273971   0.320   3.812  10.654 -0.5784  0.1762  1.0290
17494TIP3   OH273972   5.002   6.170  14.940  0.1875  0.0948  0.1176
17494TIP3    H173973   4.933   6.107  14.919 -0.2441  1.1957 -2.1270
17494TIP3    H273974   4.955   6.254  14.948  1.1994  0.8172 -1.1778
17495TIP3   OH273975   3.823   0.173   5.465 -0.7726  0.4266  0.4442
17495TIP3    H173976   3.846   0.244   5.525 -1.7997  1.3374 -0.1997
17495TIP3    H273977   3.894   0.172   5.401 -0.0672 -0.0467  1.2033
17496TIP3   OH273978   5.510   6.317   5.589  0.2303 -0.0840  0.5375
17496TIP3    H173979   5.455   6.245   5.559 -1.1869  1.6500 -1.2573
17496TIP3    H273980   5.598   6.280   5.591 -0.3572 -1.6951 -0.9234
17497TIP3   OH273981   0.261   4.863   0.864  0.4314 -0.1890  0.1457
17497TIP3    H173982   0.344   4.823   0.839  0.2933 -0.5591  0.2791
17497TIP3    H273983   0.279   4.957   0.861  0.7354 -0.2545 -0.2308
17498TIP3   OH273984   0.788   5.692  15.521 -0.8856 -0.0669 -0.2164
17498TIP3    H173985   0.862   5.643  15.485 -1.2788 -0.7092 -0.1629
17498TIP3    H273986   0.809   5.700  15.615 -0.1052  1.1704 -0.4828
17499TIP3   OH273987   1.416   3.418   3.522 -0.5752 -0.1115  0.2576
17499TIP3    H173988   1.453   3.422   3.610  0.4072 -0.1978 -0.1434
17499TIP3    H273989   1.437   3.330   3.491  0.5756  0.4666 -0.6835
17500TIP3   OH273990   2.470   5.456  10.684  0.3383 -0.0203 -0.0658
17500TIP3    H173991   2.416   5.500  10.749 -0.1427 -0.0716 -0.4223
17500TIP3    H273992   2.424   5.470  10.601 -0.1066 -1.6150 -0.1268
17501TIP3   OH273993   2.347   4.804  14.890 -0.8775 -0.6675 -0.3253
17501TIP3    H173994   2.368   4.835  14.802 -0.6624 -0.6071 -0.2546
17501TIP3    H273995   2.255   4.825  14.902 -0.4952  0.9505  0.1264
17502TIP3   OH273996   4.503   2.300   5.773 -0.5556 -0.5885  0.4621
17502TIP3    H173997   4.479   2.358   5.701  2.3521  0.6715  0.3672
17502TIP3    H273998   4.567   2.240   5.736 -2.0109 -2.6606  1.0846
17503TIP3   OH273999   0.854   3.984  11.062 -1.0385 -0.2606 -0.1886
17503TIP3    H174000   0.786   4.042  11.027 -0.8786 -0.5709 -1.0322
17503TIP3    H274001   0.906   3.959  10.985 -0.2743 -0.4234  0.3730
17504TIP3   OH274002   0.428   1.150  12.965  0.3343  0.3516  0.0215
17504TIP3    H174003   0.335   1.170  12.955 -0.1992 -1.7258  0.3572
17504TIP3    H274004   0.443   1.154  13.059 -0.0402 -1.6415  0.2063
17505TIP3   OH274005   1.471   6.411  13.923  0.1309 -0.0786  0.2128
17505TIP3    H174006   1.546   6.399  13.865  0.2044  1.3801 -0.0248
17505TIP3    H274007   1.397   6.376  13.874  0.3392  0.3363 -0.4082
17506TIP3   OH274008   1.263   0.985   4.731 -0.1825  0.0760  0.9022
17506TIP3    H174009   1.344   1.033   4.716 -0.0054 -0.3130  0.6028
17506TIP3    H274010   1.237   1.009   4.820  1.2707 -1.2305  1.7309
17507TIP3   OH274011   1.772   3.700   2.646  0.0812 -0.2624  0.4637
17507TIP3    H174012   1.852   3.709   2.697  0.3105 -2.7123  0.6414
17507TIP3    H274013   1.778   3.768   2.579  2.0762 -0.1037  0.7607
17508TIP3   OH274014   3.457   2.171  17.167 -0.1684  0.3143 -0.3531
17508TIP3    H174015   3.461   2.267  17.168  0.7420  0.3106  1.4441
17508TIP3    H274016   3.546   2.143  17.185 -0.7120 -0.8190  0.7426
17509TIP3   OH274017   2.913   0.693  10.897  0.0384  0.3670 -0.1723
17509TIP3    H174018   2.853   0.716  10.826 -1.9887 -0.6985  1.1125
17509TIP3    H274019   2.860   0.642  10.958  1.5612  1.6333  2.3639
17510TIP3   OH274020   2.090   0.155  15.928 -0.2940 -0.4053  0.2583
17510TIP3    H174021   2.030   0.207  15.980 -2.1636  0.1650 -2.2632
17510TIP3    H274022   2.035   0.112  15.862  1.7215 -2.2143 -0.3969
17511TIP3   OH274023   0.759   3.701  12.737 -0.3607 -0.5195  0.1840
17511TIP3    H174024   0.834   3.674  12.789 -0.9893 -0.5034  1.1268
17511TIP3    H274025   0.739   3.790  12.766  0.1898  0.0727 -1.1618
17512TIP3   OH274026   6.651   4.450   0.898  0.6627 -0.1012  0.5854
17512TIP3    H174027   6.711   4.447   0.972  1.1953  0.5271  0.1926
17512TIP3    H274028   6.591   4.376   0.912  0.5209  0.2320  1.8278
17513TIP3   OH274029   4.535   5.721  14.127  0.2203  0.3432  0.1889
17513TIP3    H174030   4.515   5.655  14.194  0.3251 -0.2940 -0.3976
17513TIP3    H274031   4.621   5.756  14.153 -0.0357  0.5687  0.7480
17514TIP3   OH274032   1.293   4.418  12.370  0.4458 -0.3588 -0.0458
17514TIP3    H174033   1.369   4.389  12.419 -0.2081 -0.2311  1.0681
17514TIP3    H274034   1.324   4.495  12.321  1.8142 -2.0193 -1.9641
17515TIP3   OH274035   4.214   2.413  15.809 -0.2607 -0.1737  0.1614
17515TIP3    H174036   4.125   2.396  15.839 -0.6499  0.0870 -0.8112
17515TIP3    H274037   4.205   2.488  15.749  0.5608 -0.3531 -0.1982
17516TIP3   OH274038   5.486   2.671   0.354 -0.3073  0.1494 -0.3547
17516TIP3    H174039   5.406   2.721   0.368 -1.8690 -2.2761  0.1210
17516TIP3    H274040   5.471   2.590   0.403  2.5877 -0.2851 -0.0403
17517TIP3   OH274041   6.418   0.312  14.571  0.0931 -0.6405  0.5828
17517TIP3    H174042   6.447   0.374  14.637 -0.5295  0.4103 -0.0966
17517TIP3    H274043   6.418   0.362  14.489 -0.4574 -1.5197  0.0233
17518TIP3   OH274044   5.512   0.550   3.734 -0.6073  0.5202  0.3496
17518TIP3    H174045   5.523   0.457   3.752  1.1325  0.5792 -0.3040
17518TIP3    H274046   5.486   0.554   3.642 -0.0568  0.7168  0.2030
17519TIP3   OH274047   5.623   5.215   2.979 -0.0885 -0.1482 -0.3438
17519TIP3    H174048   5.620   5.309   2.957 -0.4964 -0.4668 -1.7741
17519TIP3    H274049   5.710   5.201   3.014 -0.1129  0.8225  0.1342
17520TIP3   OH274050   2.804   5.424  15.176 -0.3227 -0.6731 -0.7937
17520TIP3    H174051   2.794   5.479  15.253 -0.8196 -0.0584 -1.2832
17520TIP3    H274052   2.717   5.384  15.164 -0.0355 -1.3702 -0.5904
17521TIP3   OH274053   0.285   0.657   5.983  0.1696  0.8924 -0.8419
17521TIP3    H174054   0.330   0.736   6.012 -0.7435  1.1287 -0.0076
17521TIP3    H274055   0.271   0.607   6.064  2.2727 -0.9951 -1.5144
17522TIP3   OH274056   1.523   3.592  16.149  0.8016  0.2887 -0.5622
17522TIP3    H174057   1.595   3.655  16.142  0.0468  1.8428  2.9254
17522TIP3    H274058   1.453   3.630  16.096  1.0314  1.3737 -0.1246
17523TIP3   OH274059   2.054   2.260   4.069  0.6490  0.4278 -0.1740
17523TIP3    H174060   1.972   2.250   4.118 -0.1882  1.3646 -1.3148
17523TIP3    H274061   2.046   2.200   3.995  0.4243  1.3882 -0.9612
17524TIP3   OH274062   3.461   5.368  12.377 -0.1500  0.6088 -0.3723
17524TIP3    H174063   3.443   5.280  12.346 -1.4642  0.7410 -0.0173
17524TIP3    H274064   3.376   5.404  12.400  0.6165  0.8089  2.6006
17525TIP3   OH274065   0.878   1.340  13.077 -0.5035 -0.0734 -0.7994
17525TIP3    H174066   0.943   1.400  13.112 -1.9249  0.9000  0.2584
17525TIP3    H274067   0.923   1.296  13.005  1.4564  0.2309  0.1691
17526TIP3   OH274068   3.679   5.353  13.422  0.4407 -0.0939 -0.2775
17526TIP3    H174069   3.696   5.263  13.395  0.2072 -0.2741  0.1731
17526TIP3    H274070   3.596   5.349  13.468 -0.6531  0.7119 -2.0763
17527TIP3   OH274071   6.653   1.578   0.463 -0.9305 -0.4946  0.3464
17527TIP3    H174072   6.558   1.570   0.468 -1.0502 -1.0749 -1.9248
17527TIP3    H274073   6.678   1.522   0.390  1.0352  0.6054  0.1128
17528TIP3   OH274074   5.980   4.462  14.627  0.6913 -0.4244  0.0442
17528TIP3    H174075   5.931   4.529  14.676  0.8771  0.0098 -0.3629
17528TIP3    H274076   5.948   4.379  14.663 -0.1890 -0.1433 -0.0587
17529TIP3   OH274077   4.625   6.408  13.669 -1.1487  0.2783 -0.0379
17529TIP3    H174078   4.709   6.363  13.680 -0.2264  1.7354 -0.8260
17529TIP3    H274079   4.646   6.501  13.681 -2.6736  0.6638 -0.1711
17530TIP3   OH274080   4.330   6.108   4.092  0.0054 -0.1090  0.4240
17530TIP3    H174081   4.376   6.053   4.028  0.9464  0.6217  0.4477
17530TIP3    H274082   4.376   6.090   4.174 -1.9432 -1.9518  1.2024
17531TIP3   OH274083   5.294   0.860  14.496 -0.2906  0.3915 -0.0547
17531TIP3    H174084   5.384   0.891  14.504  0.2457 -0.8283 -1.0072
17531TIP3    H274085   5.261   0.858  14.586  0.6022  0.9111  0.2994
17532TIP3   OH274086   3.604   2.440  16.984 -0.2029 -0.1831  0.1372
17532TIP3    H174087   3.587   2.527  17.021  1.0996  0.0871  0.1395
17532TIP3    H274088   3.581   2.449  16.891 -0.7475 -0.0477  0.2819
17533TIP3   OH274089   3.163   3.948   3.950  0.2867 -0.5030  0.3758
17533TIP3    H174090   3.178   3.941   4.044 -3.5635 -0.5639  1.1422
17533TIP3    H274091   3.088   3.891   3.933 -0.6357  1.3071 -2.2820
17534TIP3   OH274092   1.470   2.333   1.471  0.5765 -0.3381 -0.0146
17534TIP3    H174093   1.397   2.372   1.518  0.0045  0.1536 -1.2588
17534TIP3    H274094   1.516   2.280   1.536 -0.8377 -0.5910  0.8077
17535TIP3   OH274095   1.559   2.969  12.287  0.5697  0.1348  0.0610
17535TIP3    H174096   1.531   2.892  12.237 -1.4813  0.2171  0.9943
17535TIP3    H274097   1.652   2.954  12.303  0.5524 -1.4132 -1.0586
17536TIP3   OH274098   2.710   0.354   2.163 -0.8904  0.3249 -0.1683
17536TIP3    H174099   2.669   0.404   2.093 -2.5311  0.3631  0.7692
17536TIP3    H274100   2.738   0.273   2.121 -1.0596  0.7089 -1.0425
17537TIP3   OH274101   0.316   2.525  11.561 -0.1173 -0.1369  0.2116
17537TIP3    H174102   0.221   2.529  11.568  0.0603  1.9879  3.8798
17537TIP3    H274103   0.337   2.433  11.580 -1.3689 -0.5096 -0.0732
17538TIP3   OH274104   1.587   5.442   4.362  0.1359 -0.7593 -0.2642
17538TIP3    H174105   1.666   5.463   4.312 -0.7873 -0.9155 -1.8570
17538TIP3    H274106   1.613   5.369   4.418  1.1102 -0.8547 -0.8118
17539TIP3   OH274107   6.056   1.080  13.094 -0.7343  0.6004 -0.3056
17539TIP3    H174108   6.054   1.150  13.159 -2.5737 -0.7483  1.2182
17539TIP3    H274109   5.984   1.100  13.034 -0.3885  0.7378 -0.6744
17540TIP3   OH274110   6.015   1.673  12.190  0.0360 -0.1290 -0.1515
17540TIP3    H174111   6.053   1.662  12.103  1.5052 -2.7925  0.7080
17540TIP3    H274112   6.000   1.584  12.222 -0.7387  0.7522  2.2129
17541TIP3   OH274113   5.482   0.090   4.084 -0.0304  0.3383 -0.0650
17541TIP3    H174114   5.526   0.037   4.018 -0.6886  1.3587 -1.3715
17541TIP3    H274115   5.453   0.027   4.150  0.9672 -0.6654 -0.5439
17542TIP3   OH274116   2.286   3.831  13.946  0.4550 -0.0264 -0.5916
17542TIP3    H174117   2.205   3.787  13.971  0.7334  0.5015  1.3643
17542TIP3    H274118   2.259   3.921  13.927  0.5033  0.0216 -0.4342
17543TIP3   OH274119   1.460   1.952  17.202 -0.1933  0.4624 -0.5826
17543TIP3    H174120   1.550   1.920  17.206 -0.5739 -1.3006 -3.4848
17543TIP3    H274121   1.463   2.023  17.138 -1.1668 -1.1089 -2.4554
17544TIP3   OH274122   1.487   4.098   2.456 -0.3500 -0.0735 -0.4800
17544TIP3    H174123   1.438   4.016   2.461 -1.7233  0.7720  1.2186
17544TIP3    H274124   1.555   4.089   2.522 -0.3393  0.0481 -0.4744
17545TIP3   OH274125   4.302   1.436  11.424  0.3958 -0.3236  0.1822
17545TIP3    H174126   4.219   1.389  11.412  1.1784 -1.4949 -1.0687
17545TIP3    H274127   4.369   1.367  11.417  1.5196  0.7568 -0.0221
17546TIP3   OH274128   0.716   1.075   2.455 -0.6326 -0.7935  0.2778
17546TIP3    H174129   0.694   1.160   2.416 -1.4062 -2.1279 -2.4223
17546TIP3    H274130   0.808   1.083   2.480  0.2058 -0.0303 -2.6876
17547TIP3   OH274131   5.079   2.521   6.031 -0.0829 -0.0018  0.0905
17547TIP3    H174132   5.044   2.574   5.958  0.5142  1.5382  0.8763
17547TIP3    H274133   5.143   2.463   5.990  0.4796  1.0671 -0.5852
17548TIP3   OH274134   0.945   0.895   3.640 -0.7978  0.2197  0.3007
17548TIP3    H174135   0.944   0.902   3.735 -1.5962  0.9037  0.2567
17548TIP3    H274136   1.030   0.857   3.619 -0.3206  0.7369  1.2500
17549TIP3   OH274137   1.174   3.217   4.579 -0.1445  0.2857 -0.2466
17549TIP3    H174138   1.125   3.140   4.610 -1.9137  1.1602 -0.7476
17549TIP3    H274139   1.254   3.180   4.540 -1.2501 -1.3710 -1.0729
17550TIP3   OH274140   4.264   2.424   3.544  0.0784  0.6787  0.1663
17550TIP3    H174141   4.256   2.389   3.633 -0.3585 -1.1288 -0.5409
17550TIP3    H274142   4.273   2.519   3.556 -1.4046  0.6328  2.0564
17551TIP3   OH274143   6.048   3.763   5.200  0.2901  0.1816  0.4244
17551TIP3    H174144   6.127   3.783   5.251  0.9899  2.4423 -1.3830
17551TIP3    H274145   5.979   3.815   5.240  0.1197 -0.3630  0.8583
17552TIP3   OH274146   4.310   1.198   1.435  0.8000 -0.4359 -0.6903
17552TIP3    H174147   4.326   1.111   1.471  0.8605 -0.7421 -1.4436
17552TIP3    H274148   4.226   1.225   1.472 -0.1835 -1.6357 -1.9752
17553TIP3   OH274149   6.463   1.652   0.761 -0.1401 -0.0286  0.0236
17553TIP3    H174150   6.534   1.588   0.757  0.5259  0.6845  0.1680
17553TIP3    H274151   6.385   1.601   0.784  0.1267 -0.9623 -1.0920
17554TIP3   OH274152   2.617   1.491  16.536  0.0608  0.1422  0.2529
17554TIP3    H174153   2.604   1.512  16.443 -0.8089 -3.0346 -0.4909
17554TIP3    H274154   2.692   1.431  16.537  0.1008  0.1815  1.6008
17555TIP3   OH274155   1.374   2.705   1.221 -0.0859  0.4337 -0.1388
17555TIP3    H174156   1.379   2.748   1.136  0.7743 -0.0774 -0.3565
17555TIP3    H274157   1.313   2.759   1.272 -1.4233  0.1592 -1.4081
17556TIP3   OH274158   1.784   0.175  17.227  0.0380 -0.4460 -0.0261
17556TIP3    H174159   1.851   0.222  17.178 -1.1585 -1.4794 -2.8945
17556TIP3    H274160   1.740   0.242  17.279  1.4760  0.7039 -0.2303
17557TIP3   OH274161   5.739   6.714  14.799  0.0862  0.8171 -0.1644
17557TIP3    H174162   5.721   6.668  14.882 -0.9890  2.4772  0.5666
17557TIP3    H274163   5.818   6.671  14.765 -0.8678 -1.5729  0.4395
17558TIP3   OH274164   5.652   4.434   0.366 -0.1070  0.1071  0.3046
17558TIP3    H174165   5.659   4.354   0.418  0.7080 -0.8953 -1.2560
17558TIP3    H274166   5.628   4.502   0.429  0.9383 -1.0118  1.9971
17559TIP3   OH274167   3.473   3.858   1.510 -0.3438 -0.1924  0.1249
17559TIP3    H174168   3.405   3.846   1.444 -0.7433 -1.2719  0.7170
17559TIP3    H274169   3.429   3.844   1.594  0.6422 -1.1318  0.5077
17560TIP3   OH274170   6.031   3.752   2.904  0.2628 -0.1198 -0.3029
17560TIP3    H174171   6.109   3.719   2.859  0.5054 -0.8258  0.6150
17560TIP3    H274172   6.037   3.717   2.993 -0.1111  1.4086  0.3529
17561TIP3   OH274173   5.631   0.395   6.030 -0.4113  0.1737 -0.5978
17561TIP3    H174174   5.558   0.385   6.092 -0.7614  1.0807 -0.8569
17561TIP3    H274175   5.686   0.319   6.047 -0.4934  0.4088  0.8419
17562TIP3   OH274176   6.103   5.852  16.284  0.0223 -0.0805 -0.0217
17562TIP3    H174177   6.168   5.918  16.308 -0.2891  0.4096 -0.5129
17562TIP3    H274178   6.069   5.880  16.199 -0.1441 -0.8531 -0.2251
17563TIP3   OH274179   4.733   3.624   5.703  0.1419 -0.5899  0.3880
17563TIP3    H174180   4.713   3.632   5.796  2.3292  2.8233  0.7281
17563TIP3    H274181   4.822   3.589   5.700  0.1224 -0.5972 -0.4193
17564TIP3   OH274182   3.246   1.406  14.700  0.0967 -0.4112 -0.4280
17564TIP3    H174183   3.319   1.456  14.666  0.1460 -0.2037 -0.0261
17564TIP3    H274184   3.245   1.426  14.794  0.4902 -1.6242 -0.1508
17565TIP3   OH274185   1.603   0.336   4.148  0.1521 -0.3831  0.1290
17565TIP3    H174186   1.625   0.382   4.228 -0.9285 -0.6278  0.5810
17565TIP3    H274187   1.641   0.248   4.159  3.2429  0.6383 -1.2236
17566TIP3   OH274188   0.930   0.002   0.212  0.3344 -0.3676 -0.0808
17566TIP3    H174189   0.976   0.052   0.280 -0.6319  0.4186  0.0220
17566TIP3    H274190   0.911  -0.083   0.252  2.2973 -0.9836 -0.3690
17567TIP3   OH274191   3.724   4.023   6.413 -0.0228 -0.2533 -0.2960
17567TIP3    H174192   3.791   4.072   6.366  0.7692  0.3792  1.3961
17567TIP3    H274193   3.757   3.933   6.415  0.4290 -0.0877 -0.1183
17568TIP3   OH274194   2.795   0.703   2.048 -0.6036  0.4706  0.3040
17568TIP3    H174195   2.827   0.624   2.004  0.6415 -0.0672  2.0566
17568TIP3    H274196   2.813   0.774   1.985 -0.7822 -0.4950 -0.8705
17569TIP3   OH274197   6.717   3.097  15.332 -0.6741 -0.1771 -0.3851
17569TIP3    H174198   6.800   3.125  15.371 -1.8040 -0.7361  2.8053
17569TIP3    H274199   6.725   3.118  15.239  2.5330  0.8859 -0.0029
17570TIP3   OH274200   0.591   5.907  11.085 -0.2301  0.5790 -0.3132
17570TIP3    H174201   0.530   5.907  11.012 -0.7210 -1.2133  0.0532
17570TIP3    H274202   0.603   5.814  11.107  4.7068  0.5063 -2.0559
17571TIP3   OH274203   1.538   1.298  16.145 -0.3687  0.1820 -0.2535
17571TIP3    H174204   1.549   1.368  16.210 -0.1077  1.9669 -2.1053
17571TIP3    H274205   1.443   1.292  16.132 -0.6004 -1.7297  1.8000
17572TIP3   OH274206   3.296   0.711   0.529  0.6012  0.0187  0.0154
17572TIP3    H174207   3.306   0.806   0.530  0.3683  0.0446 -0.0572
17572TIP3    H274208   3.202   0.697   0.527  0.6410 -0.2136 -0.1932
17573TIP3   OH274209   2.652   2.241   3.880 -0.2960  0.0539 -0.2732
17573TIP3    H174210   2.557   2.230   3.872 -0.2841 -0.6943  0.4270
17573TIP3    H274211   2.668   2.242   3.974  0.5199 -1.2405 -0.3674
17574TIP3   OH274212   0.009   0.103   6.863 -0.4111  0.2287 -0.2670
17574TIP3    H174213   0.069   0.177   6.853  0.7856 -0.6747 -0.0135
17574TIP3    H274214  -0.078   0.142   6.867  0.3310  1.7958  1.9123
17575TIP3   OH274215   3.532   1.861  13.637 -0.1637 -0.5293  0.0635
17575TIP3    H174216   3.450   1.857  13.686  0.2191 -0.2712  0.7312
17575TIP3    H274217   3.591   1.913  13.692  0.3673 -0.4943 -0.5280
17576TIP3   OH274218   4.211   0.794  12.909 -0.0369  0.1689  0.0131
17576TIP3    H174219   4.213   0.735  12.833 -1.6576  1.3492 -1.0190
17576TIP3    H274220   4.214   0.735  12.984  2.0915 -1.0319 -0.8941
17577TIP3   OH274221   4.421   6.603   0.579 -0.0823  0.2222  0.4544
17577TIP3    H174222   4.375   6.671   0.530  1.1567  0.3034 -0.6503
17577TIP3    H274223   4.458   6.546   0.512  1.1236 -0.0351  1.3033
17578TIP3   OH274224   5.459   4.766   5.804 -0.3669 -0.2700 -0.0883
17578TIP3    H174225   5.388   4.735   5.748 -0.4546  0.8097 -0.6004
17578TIP3    H274226   5.538   4.728   5.766 -0.4333  0.3971 -0.9289
17579TIP3   OH274227   1.169   4.452   5.238  0.1507  0.5236 -0.2837
17579TIP3    H174228   1.104   4.439   5.169 -0.5932 -0.3521  0.5497
17579TIP3    H274229   1.135   4.525   5.289 -0.6121 -0.4151  0.6000
17580TIP3   OH274230   6.692   6.514   3.805  0.4929  0.6406  0.1092
17580TIP3    H174231   6.734   6.464   3.734  1.4692  0.7719  0.5745
17580TIP3    H274232   6.700   6.458   3.882  1.0525  1.2395  0.5033
17581TIP3   OH274233   0.007   6.327   2.910 -0.2476  0.5324  0.0382
17581TIP3    H174234   0.029   6.399   2.851 -1.2928  0.9788  0.1627
17581TIP3    H274235  -0.052   6.366   2.974  0.2624 -0.1289  0.9315
17582TIP3   OH274236   3.074   6.260  12.312 -0.3933 -0.6190  0.3207
17582TIP3    H174237   3.095   6.231  12.401 -1.2159 -1.0402  0.3878
17582TIP3    H274238   2.995   6.313  12.323  1.6943  2.7931  0.3832
17583TIP3   OH274239   2.183   6.737  11.466  0.0979  0.0030  0.3313
17583TIP3    H174240   2.242   6.792  11.415  0.8311 -1.1497 -0.1091
17583TIP3    H274241   2.226   6.652  11.469 -1.1249 -0.6297  0.7736
17584TIP3   OH274242   0.436   4.827   4.407 -0.7758  0.2703  0.3914
17584TIP3    H174243   0.397   4.838   4.321  0.0536  2.2763  0.2192
17584TIP3    H274244   0.529   4.808   4.390 -0.9482 -1.0823  0.8368
17585TIP3   OH274245   1.080   3.911  13.642  0.0398  0.1131 -0.1950
17585TIP3    H174246   1.044   3.901  13.554  0.9881  0.7814 -0.6689
17585TIP3    H274247   1.155   3.969  13.631  0.1798  0.1899  1.0559
17586TIP3   OH274248   2.625   1.267   4.318 -0.2636  0.0722 -0.1758
17586TIP3    H174249   2.601   1.237   4.230 -2.4018 -0.3442  0.4898
17586TIP3    H274250   2.606   1.361   4.317  0.1901  0.1654 -0.2952
17587TIP3   OH274251   6.087   3.181   3.914 -0.4052 -0.0968  0.2327
17587TIP3    H174252   6.004   3.188   3.962  0.3694 -0.7328  1.7293
17587TIP3    H274253   6.131   3.106   3.953  0.5818 -0.1976 -1.0292
17588TIP3   OH274254   1.301   2.948  17.266  0.0510  0.0875  0.4811
17588TIP3    H174255   1.393   2.924  17.270 -0.6631 -3.1205  1.0995
17588TIP3    H274256   1.274   2.929  17.176  0.0790  1.4891  0.1640
17589TIP3   OH274257   5.383   5.645   1.003  0.2330 -1.1284 -0.3572
17589TIP3    H174258   5.406   5.595   0.925  1.9539  1.1254 -1.4300
17589TIP3    H274259   5.322   5.712   0.972  1.5414  0.2892 -0.0186
17590TIP3   OH274260   2.819   0.129  14.035  0.6716  0.1521  0.2391
17590TIP3    H174261   2.788   0.199  13.977  0.6793  0.6566  0.8265
17590TIP3    H274262   2.759   0.133  14.110 -0.3265 -1.5276 -0.4192
17591TIP3   OH274263   4.260   4.259  16.821 -0.3019 -0.3126 -0.0141
17591TIP3    H174264   4.286   4.172  16.853  0.0165 -0.2612 -0.1259
17591TIP3    H274265   4.317   4.320  16.869 -1.2401 -0.0808  0.8428
17592TIP3   OH274266   6.507   0.561  16.662 -0.0721  0.0196  0.2851
17592TIP3    H174267   6.420   0.523  16.651  0.0346  0.0155 -0.5748
17592TIP3    H274268   6.566   0.485  16.667 -0.2789 -0.0845  2.8374
17593TIP3   OH274269   4.560   0.951   6.224 -0.2794 -0.5075  0.4796
17593TIP3    H174270   4.467   0.943   6.246 -0.3809 -0.8172 -0.0414
17593TIP3    H274271   4.568   1.037   6.183 -0.1747 -0.1263  1.2659
17594TIP3   OH274272   3.828   2.288  16.600  0.0446 -0.1287 -0.0057
17594TIP3    H174273   3.903   2.231  16.615  0.7574  0.5063 -0.9487
17594TIP3    H274274   3.757   2.250  16.650  1.3160 -0.0605  1.9482
17595TIP3   OH274275   4.907   6.380  11.951  0.0724 -0.4373  0.4218
17595TIP3    H174276   4.864   6.335  12.024 -1.9225  1.5950  0.5981
17595TIP3    H274277   4.951   6.455  11.991 -1.2635  0.8555 -0.4395
17596TIP3   OH274278   1.757   5.299  14.842 -0.1923  0.4313 -0.1319
17596TIP3    H174279   1.788   5.263  14.759  0.0166 -3.2530  1.3548
17596TIP3    H274280   1.662   5.288  14.839 -0.3334  1.6049 -0.3926
17597TIP3   OH274281   5.565   3.757   4.041  0.5484  0.3445  0.1367
17597TIP3    H174282   5.566   3.722   4.130  0.7049  2.6444  1.1032
17597TIP3    H274283   5.512   3.836   4.047  2.8287  2.0901 -1.1732
17598TIP3   OH274284   2.942   3.575   5.919 -0.3234 -0.3300  0.0070
17598TIP3    H174285   2.868   3.553   5.863  0.0368 -2.1412  0.1916
17598TIP3    H274286   2.921   3.662   5.954 -2.7500 -1.1123  0.6842
17599TIP3   OH274287   0.378   5.501   3.035 -0.4484  0.2357  0.0560
17599TIP3    H174288   0.435   5.487   3.110 -0.3510  1.1386  0.1664
17599TIP3    H274289   0.331   5.582   3.056 -1.2975 -0.1502 -0.3224
17600TIP3   OH274290   1.033   2.130  17.246  0.3062  0.5590  0.1419
17600TIP3    H174291   1.072   2.102  17.328 -0.3978 -0.7619  0.0613
17600TIP3    H274292   0.938   2.118  17.259  0.2394 -0.6889 -1.1686
17601TIP3   OH274293   3.034   0.071  12.693 -0.8060 -0.3887 -0.2161
17601TIP3    H174294   3.057  -0.005  12.746 -1.8871  0.2345  1.2205
17601TIP3    H274295   3.042   0.041  12.603 -0.3238 -1.9151  0.3038
17602TIP3   OH274296   4.124   3.757   2.320 -0.6187  0.4515 -0.1172
17602TIP3    H174297   4.200   3.815   2.321  0.6681 -1.1646  0.3993
17602TIP3    H274298   4.052   3.812   2.288  1.3178  1.3829 -3.3889
17603TIP3   OH274299   0.114   5.728   6.460 -0.2829  0.1828  0.4178
17603TIP3    H174300   0.069   5.680   6.529 -0.8470  1.2810  0.8394
17603TIP3    H274301   0.120   5.818   6.493 -1.7542  1.0581 -1.4791
17604TIP3   OH274302   6.619   4.189  11.366 -0.4761  0.0215  0.1713
17604TIP3    H174303   6.623   4.254  11.296 -1.6642 -1.0380 -0.9360
17604TIP3    H274304   6.626   4.240  11.447  0.4860  1.3115 -0.6849
17605TIP3   OH274305   5.319   5.493  14.646 -0.2055  0.2710  0.4347
17605TIP3    H174306   5.321   5.570  14.703 -0.7960  1.8121 -1.4963
17605TIP3    H274307   5.398   5.501  14.593 -0.7196  0.0478 -0.3803
17606TIP3   OH274308   0.012   4.508  14.304 -0.1368  0.7588 -0.6930
17606TIP3    H174309   0.087   4.560  14.276  0.1112  0.1051 -1.2727
17606TIP3    H274310   0.049   4.428  14.341 -0.5108  1.0344  0.2999
17607TIP3   OH274311   4.785   1.620   5.827  0.0484 -0.0449  0.9482
17607TIP3    H174312   4.856   1.650   5.771 -0.1946 -0.8106  0.1932
17607TIP3    H274313   4.761   1.696   5.879 -0.5632  1.0835 -0.8877
17608TIP3   OH274314   4.128   1.757  15.285 -0.2091 -0.4131  0.1236
17608TIP3    H174315   4.085   1.732  15.367  1.0175 -0.5063  0.7746
17608TIP3    H274316   4.217   1.722  15.294  0.4262  0.9581 -0.5482
17609TIP3   OH274317   2.118   4.817   1.240 -0.3156  0.3678 -0.4415
17609TIP3    H174318   2.111   4.868   1.321 -1.0685  1.7669 -1.3453
17609TIP3    H274319   2.190   4.858   1.192  1.1856 -1.4373  0.1495
17610TIP3   OH274320   2.039   2.683  17.112 -0.4860  0.1834  0.1894
17610TIP3    H174321   1.995   2.707  17.030 -0.6794  1.3299  0.6138
17610TIP3    H274322   1.989   2.728  17.180  0.4875  0.3465  0.8128
17611TIP3   OH274323   3.496   0.734   2.095  0.2582  0.1399  0.1283
17611TIP3    H174324   3.557   0.661   2.104 -2.5345 -2.3576  0.2771
17611TIP3    H274325   3.500   0.779   2.179  1.7139 -0.0517  0.1860
17612TIP3   OH274326   2.226   0.763  16.773 -0.0145  0.3160  0.0943
17612TIP3    H174327   2.299   0.806  16.818  1.0749 -2.6879  1.4524
17612TIP3    H274328   2.258   0.748  16.684  1.5905 -1.9073  0.9470
17613TIP3   OH274329   2.596   0.854  13.229  0.4906 -0.1995 -0.5150
17613TIP3    H174330   2.595   0.939  13.184 -0.9026  0.4596  0.6553
17613TIP3    H274331   2.610   0.790  13.159 -1.1052  0.8107 -1.8514
17614TIP3   OH274332   2.879   4.004  10.490  0.2043 -0.2280 -0.6926
17614TIP3    H174333   2.810   4.070  10.484 -0.3830 -0.6384  1.0091
17614TIP3    H274334   2.920   4.019  10.575  2.7803  0.4891 -1.9560
17615TIP3   OH274335   5.173   4.396  11.158  0.2482  0.0913 -0.4881
17615TIP3    H174336   5.232   4.460  11.197  0.4919 -0.8611  0.7745
17615TIP3    H274337   5.085   4.430  11.174  0.3924  0.4029 -0.3712
17616TIP3   OH274338   5.708   0.850  12.526 -0.2931 -0.5623  0.0311
17616TIP3    H174339   5.769   0.779  12.507  0.9425  0.0988  1.3094
17616TIP3    H274340   5.623   0.817  12.497  0.8606 -0.8603 -3.3463
17617TIP3   OH274341   1.429   2.599   2.534  0.4774 -0.1181 -0.3088
17617TIP3    H174342   1.430   2.551   2.617  0.8232  0.9260  0.3023
17617TIP3    H274343   1.515   2.640   2.528 -0.3204  1.6624 -0.0750
17618TIP3   OH274344   1.834   0.819  11.374  0.2795  0.0689 -0.0781
17618TIP3    H174345   1.820   0.726  11.393 -0.8408  0.4559  1.1295
17618TIP3    H274346   1.807   0.829  11.283 -0.9630 -0.5388  0.1997
17619TIP3   OH274347   3.950   4.132  16.276 -0.7853  0.6326  0.4036
17619TIP3    H174348   3.926   4.162  16.364 -0.7080  0.4444  0.4897
17619TIP3    H274349   4.013   4.062  16.291  0.3059  1.5230  0.1816
17620TIP3   OH274350   0.937   1.356  16.328 -0.1242  0.0101 -0.2138
17620TIP3    H174351   1.028   1.384  16.332  0.2653 -1.2459  0.2556
17620TIP3    H274352   0.887   1.432  16.357  0.7245  0.8747 -0.9489
17621TIP3   OH274353   1.082   0.734   5.150 -0.3587 -0.6830  0.1992
17621TIP3    H174354   1.112   0.823   5.165  1.7158 -1.4024  0.5947
17621TIP3    H274355   1.109   0.713   5.060 -2.1036 -0.4752 -0.4204
17622TIP3   OH274356   4.195   3.870   5.097  0.2155 -0.3647  0.4171
17622TIP3    H174357   4.269   3.925   5.072  0.4482 -2.1350 -3.5958
17622TIP3    H274358   4.119   3.928   5.090  0.9066  0.8554  2.2405
17623TIP3   OH274359   0.901   6.252   0.568 -0.5800 -0.2547  0.0974
17623TIP3    H174360   0.897   6.165   0.608 -1.5974  0.4892  1.6884
17623TIP3    H274361   0.989   6.284   0.589 -0.3695 -0.6947 -0.0930
17624TIP3   OH274362   3.047   4.467   5.234  0.3552  0.1798 -0.7232
17624TIP3    H174363   3.123   4.447   5.178  1.1415  0.5456  0.1772
17624TIP3    H274364   3.055   4.561   5.252  0.6877 -0.1115  0.7807
17625TIP3   OH274365   4.727   5.501   0.528 -0.0173 -0.1679 -0.2969
17625TIP3    H174366   4.729   5.418   0.575 -1.1655  0.4788  0.9660
17625TIP3    H274367   4.634   5.523   0.521  0.1527  0.0794 -2.3711
17626TIP3   OH274368   1.909   1.859   0.759 -0.1672 -0.8890 -0.3296
17626TIP3    H174369   1.977   1.818   0.705 -0.9606 -1.9833 -0.5488
17626TIP3    H274370   1.930   1.952   0.758  0.7308 -1.0833 -1.2475
17627TIP3   OH274371   4.940   2.260   1.051  0.0957 -0.1431  0.0993
17627TIP3    H174372   5.031   2.271   1.025  0.6374 -0.7133  1.6587
17627TIP3    H274373   4.944   2.233   1.142 -1.7215  3.8974  1.6156
17628TIP3   OH274374   0.535   3.915   0.845  0.8306 -0.0745  0.2894
17628TIP3    H174375   0.609   3.855   0.839  1.4223  0.5131  1.3416
17628TIP3    H274376   0.575   4.002   0.848  0.0209  0.3449 -0.5163
17629TIP3   OH274377   2.095   3.437   1.873  0.1284  0.0341  0.5904
17629TIP3    H174378   2.169   3.404   1.823  0.7546  0.1974  1.3809
17629TIP3    H274379   2.093   3.531   1.854 -0.4365 -0.1171 -0.1268
17630TIP3   OH274380   4.606   6.198   5.598  0.4503 -0.1837 -0.0471
17630TIP3    H174381   4.636   6.113   5.567 -2.1178 -0.4026 -2.2695
17630TIP3    H274382   4.653   6.261   5.544 -1.5375 -0.4567 -2.2190
17631TIP3   OH274383   5.706   3.309  15.321  0.2924 -0.8877 -0.2323
17631TIP3    H174384   5.712   3.265  15.405 -0.4694 -0.6223 -0.0352
17631TIP3    H274385   5.734   3.243  15.257  4.4625 -0.0642  0.4660
17632TIP3   OH274386   5.008   3.856  10.823  0.8510  0.1336  0.0551
17632TIP3    H174387   5.031   3.773  10.782  1.6852  0.6729 -0.6226
17632TIP3    H274388   4.923   3.841  10.864  0.1762 -0.5711 -1.5223
17633TIP3   OH274389   0.884   1.240  11.879 -0.0708 -0.0334  0.2717
17633TIP3    H174390   0.883   1.261  11.972 -0.4569  0.1998  0.2185
17633TIP3    H274391   0.797   1.265  11.848 -0.5457 -1.6729  0.1865
17634TIP3   OH274392   3.574   3.706  12.651  0.0554 -0.5221 -0.7320
17634TIP3    H174393   3.521   3.676  12.578 -1.1837  0.3102 -0.2077
17634TIP3    H274394   3.511   3.738  12.716  1.1238 -1.0710  0.6334
17635TIP3   OH274395   5.098   6.656   0.623 -0.4824 -1.0070  0.2152
17635TIP3    H174396   5.144   6.599   0.561 -2.5148 -2.5395  0.0225
17635TIP3    H274397   5.074   6.599   0.695  1.1851  0.5912  2.1716
17636TIP3   OH274398   1.270   0.396   5.543  0.4382 -0.4279  0.3441
17636TIP3    H174399   1.196   0.446   5.579 -0.8323 -2.1056  0.2049
17636TIP3    H274400   1.269   0.313   5.592  0.1940 -1.7708 -1.7938
17637TIP3   OH274401   2.375   6.792  12.070 -1.2085  0.6864 -0.6727
17637TIP3    H174402   2.454   6.834  12.036 -0.7044  1.0799  0.8951
17637TIP3    H274403   2.304   6.828  12.017 -0.3881  0.4920 -1.9677
17638TIP3   OH274404   3.833   2.812   2.468 -0.1543  0.1133  0.1871
17638TIP3    H174405   3.841   2.718   2.479 -0.5287  0.1388  0.6907
17638TIP3    H274406   3.895   2.849   2.532 -1.3535  0.2374  1.3065
17639TIP3   OH274407   5.314   6.393   4.203  0.5850 -0.3795 -0.3178
17639TIP3    H174408   5.362   6.397   4.286 -1.0966  0.6484  0.6640
17639TIP3    H274409   5.282   6.303   4.198  0.2192 -0.2965  0.4420
17640TIP3   OH274410   4.339   6.369   1.596  0.2479 -0.4324  0.3742
17640TIP3    H174411   4.366   6.317   1.520 -0.3886  0.6729 -0.6365
17640TIP3    H274412   4.270   6.318   1.638 -0.7652 -0.1722 -0.9288
17641TIP3   OH274413   2.424   5.085  15.095 -0.1792  0.2537 -0.0861
17641TIP3    H174414   2.471   5.011  15.055  0.5992  0.7647 -0.1481
17641TIP3    H274415   2.483   5.160  15.082 -0.7440  0.7878  0.3988
17642TIP3   OH274416   3.083   2.485  11.929 -0.0625  0.2306  0.3540
17642TIP3    H174417   3.133   2.543  11.872  1.3591 -0.2015  1.1158
17642TIP3    H274418   3.112   2.397  11.906 -1.1495 -0.1004  0.1933
17643TIP3   OH274419   4.195   6.119  11.875 -0.0298  0.3211  0.3197
17643TIP3    H174420   4.113   6.083  11.840 -0.1396  0.7982  0.0744
17643TIP3    H274421   4.257   6.112  11.802  0.2823 -0.4508  0.6422
17644TIP3   OH274422   1.295   6.427  12.104  0.6628 -0.3165  0.3107
17644TIP3    H174423   1.379   6.459  12.071 -1.1277  2.0382 -2.4634
17644TIP3    H274424   1.262   6.370  12.035 -0.2187 -0.8849  1.1689
17645TIP3   OH274425   5.214   3.585  14.749  0.3048 -0.1075 -0.3282
17645TIP3    H174426   5.179   3.543  14.671  0.0977 -0.2556 -0.1559
17645TIP3    H274427   5.196   3.678  14.736  0.6636 -0.0793 -0.6572
17646TIP3   OH274428   4.168   3.046  15.920  0.6474 -0.1163 -0.2395
17646TIP3    H174429   4.209   3.070  16.003  0.1164 -0.6799  0.1940
17646TIP3    H274430   4.130   2.960  15.936  0.5599 -0.2440 -1.0795
17647TIP3   OH274431   2.750   4.595   4.484  0.5631 -0.5658 -0.0383
17647TIP3    H174432   2.696   4.644   4.546  3.4075  1.1618  1.2619
17647TIP3    H274433   2.751   4.505   4.518  0.7766  0.0084  1.5574
17648TIP3   OH274434   3.694   5.830  13.386  1.4652  0.3127 -0.5437
17648TIP3    H174435   3.699   5.884  13.465  1.0588  0.8836 -0.8998
17648TIP3    H274436   3.764   5.862  13.330  0.9041  0.8263 -0.9653
17649TIP3   OH274437   0.792   3.911  14.113 -0.4683  0.0920  0.3885
17649TIP3    H174438   0.823   3.991  14.071 -0.2399 -0.4672 -0.5253
17649TIP3    H274439   0.722   3.940  14.172  1.5640  1.3729  2.3454
17650TIP3   OH274440   5.540   3.216  17.089 -0.2585 -0.0336  0.2802
17650TIP3    H174441   5.601   3.159  17.136 -0.7728 -0.2410  0.7015
17650TIP3    H274442   5.588   3.242  17.010  0.3464 -0.2516  0.5696
17651TIP3   OH274443   0.429   2.913  16.708  0.3778 -0.7438  0.3761
17651TIP3    H174444   0.520   2.945  16.704 -0.3634  1.4596 -0.5711
17651TIP3    H274445   0.396   2.946  16.791  0.0055 -0.1550  0.0051
17652TIP3   OH274446   2.045   4.674  13.275  0.3604  0.3896  0.1284
17652TIP3    H174447   2.096   4.738  13.225  0.3241  1.5912  1.5893
17652TIP3    H274448   2.042   4.709  13.364 -1.5599 -0.5213  0.4656
17653TIP3   OH274449   0.787   3.248  12.203  0.8507  0.1807 -0.7284
17653TIP3    H174450   0.866   3.266  12.152  2.4833  0.1389  1.6640
17653TIP3    H274451   0.767   3.331  12.246  2.3708 -0.8423  2.2423
17654TIP3   OH274452   5.650   6.422  14.711  0.0078 -0.8430 -0.0925
17654TIP3    H174453   5.693   6.497  14.670 -1.6633  0.2498  0.0598
17654TIP3    H274454   5.721   6.360  14.728  1.1761 -0.0396 -1.8030
17655TIP3   OH274455   3.261   4.129   4.554 -0.1581 -0.2341 -0.6093
17655TIP3    H174456   3.221   4.123   4.467  2.2693 -1.4043 -1.7205
17655TIP3    H274457   3.310   4.211   4.553 -0.0482 -0.2942 -0.3534
17656TIP3   OH274458   4.061   0.860   2.713  0.2986 -0.2731 -0.4615
17656TIP3    H174459   4.123   0.797   2.676  0.1257  0.1654 -1.5327
17656TIP3    H274460   3.989   0.863   2.650  0.1090  0.6889 -0.2180
17657TIP3   OH274461   1.215   0.360  14.716 -0.7637  0.2275  0.7817
17657TIP3    H174462   1.172   0.310  14.647 -0.9424 -1.2417  1.9133
17657TIP3    H274463   1.155   0.432  14.734 -0.9106  0.3898 -0.2819
17658TIP3   OH274464   2.666   2.292   5.520 -0.5125 -0.7772 -0.2110
17658TIP3    H174465   2.671   2.315   5.612 -1.7387 -0.8404 -0.1159
17658TIP3    H274466   2.757   2.271   5.496  0.0894  0.7867  0.5517
17659TIP3   OH274467   6.057   5.065  11.115  0.1515 -0.1269 -0.1658
17659TIP3    H174468   6.114   5.141  11.130  0.2872 -0.4448  0.9656
17659TIP3    H274469   6.068   5.011  11.193 -1.3394 -0.4338 -0.1483
17660TIP3   OH274470   6.518   3.944  14.746 -0.2668  0.4350 -0.0303
17660TIP3    H174471   6.444   3.897  14.706 -0.0834  0.0518  0.0803
17660TIP3    H274472   6.562   3.878  14.800 -0.4189  0.9094  0.6822
17661TIP3   OH274473   2.884   4.143  12.811 -0.3053  1.0796  0.4628
17661TIP3    H174474   2.968   4.098  12.819 -1.0506 -0.0920  2.6200
17661TIP3    H274475   2.825   4.077  12.774 -0.7590  1.1870  0.9828
17662TIP3   OH274476   0.716   6.336  13.864 -0.5464  0.4137  0.4322
17662TIP3    H174477   0.756   6.326  13.950 -2.6741 -1.8200  1.2908
17662TIP3    H274478   0.660   6.414  13.873  0.2362  0.9641  0.6183
17663TIP3   OH274479   0.291   2.962  16.940 -1.0768 -0.4199 -0.0724
17663TIP3    H174480   0.227   3.029  16.967  0.8260  1.7587 -0.6492
17663TIP3    H274481   0.352   2.957  17.013  0.9549  1.4229 -1.5028
17664TIP3   OH274482   5.826   1.213  11.729 -0.1138 -0.4287 -0.5829
17664TIP3    H174483   5.783   1.231  11.812 -2.2891 -0.4519 -1.6170
17664TIP3    H274484   5.870   1.295  11.706  0.9543 -0.5906  0.8084
17665TIP3   OH274485   6.305   6.376   2.579 -0.5518  0.6253  0.0928
17665TIP3    H174486   6.338   6.318   2.648 -1.2719  0.7563  0.5668
17665TIP3    H274487   6.379   6.390   2.521  0.7193  2.1661  1.9436
17666TIP3   OH274488   5.464   3.438   5.767 -0.2990  0.2113  0.2041
17666TIP3    H174489   5.416   3.501   5.821 -0.8746  0.5574 -0.6808
17666TIP3    H274490   5.401   3.368   5.751  0.5517 -0.9616  1.7440
17667TIP3   OH274491   2.286   3.760   3.711 -0.0069  0.5493 -0.3908
17667TIP3    H174492   2.306   3.851   3.689  0.4759  0.6731  0.5025
17667TIP3    H274493   2.316   3.709   3.635 -1.0196  1.1915 -1.2476
17668TIP3   OH274494   1.791   2.882  12.444  0.0904  0.4545 -0.4840
17668TIP3    H174495   1.770   2.800  12.400 -1.9386  1.0794 -0.7663
17668TIP3    H274496   1.756   2.873  12.532 -1.1433  1.4025 -0.8539
17669TIP3   OH274497   4.618   4.093  11.626  0.5345  0.0458  0.8192
17669TIP3    H174498   4.534   4.072  11.587 -0.2408  0.4671  2.2123
17669TIP3    H274499   4.675   4.021  11.601  0.4076  0.8275 -1.9833
17670TIP3   OH274500   3.679   2.728  12.228  0.5002 -0.6793 -0.2139
17670TIP3    H174501   3.706   2.732  12.320  0.3856 -1.4511 -0.1412
17670TIP3    H274502   3.626   2.648  12.222  0.4610 -0.6050 -0.9425
17671TIP3   OH274503   2.999   6.164   5.933  0.0302 -0.5517  0.3236
17671TIP3    H174504   3.066   6.117   5.983 -0.3127 -0.7901  0.5705
17671TIP3    H274505   3.027   6.255   5.934 -0.5852 -0.3440  2.0098
17672TIP3   OH274506   4.605   0.994   1.404 -0.4284  0.2694  0.1995
17672TIP3    H174507   4.677   1.057   1.411 -0.5671  0.3718  0.7961
17672TIP3    H274508   4.623   0.945   1.325  0.8883 -0.4321  0.9129
17673TIP3   OH274509   3.431   0.174  13.484 -0.2780  0.2743 -0.2286
17673TIP3    H174510   3.424   0.151  13.577 -0.8331  2.0547  0.2127
17673TIP3    H274511   3.523   0.197  13.472 -0.1984  0.0139 -0.1299
17674TIP3   OH274512   2.012   3.579   4.792  0.5709 -0.1571 -0.3277
17674TIP3    H174513   2.047   3.668   4.795 -0.6652  0.3596 -0.7703
17674TIP3    H274514   2.037   3.545   4.707 -1.3580  0.8224 -1.3556
17675TIP3   OH274515   4.403   4.284   6.157  0.1677  0.4342  0.4906
17675TIP3    H174516   4.341   4.357   6.148 -0.9628 -0.4985  0.3607
17675TIP3    H274517   4.411   4.249   6.069  0.3887  0.1637  0.6174
17676TIP3   OH274518   2.962   5.081  12.108  0.1845  0.3954 -0.0365
17676TIP3    H174519   3.012   5.162  12.113  0.1439  0.5984 -2.0813
17676TIP3    H274520   2.977   5.048  12.019  0.0042 -1.7211  0.6572
17677TIP3   OH274521   0.095   4.437   2.127  0.8312  0.1885  0.4254
17677TIP3    H174522   0.189   4.455   2.118  0.9258 -0.4065  0.1672
17677TIP3    H274523   0.091   4.351   2.170  0.4618 -1.1852 -2.1303
17678TIP3   OH274524   4.958   4.207   0.984 -0.1778 -0.3030  0.3765
17678TIP3    H174525   4.884   4.267   0.994  0.5862  0.3622  3.4020
17678TIP3    H274526   5.003   4.212   1.069  2.4567 -1.8299 -0.8107
17679TIP3   OH274527   1.053   4.183  12.423 -0.8061 -0.2109  0.2423
17679TIP3    H174528   1.115   4.216  12.358 -1.6480  0.3388 -0.3047
17679TIP3    H274529   1.019   4.102  12.385 -0.2532 -0.6601  0.6647
17680TIP3   OH274530   0.634   1.128   1.262 -0.0620  0.3184 -0.7608
17680TIP3    H174531   0.580   1.206   1.253  0.8417  1.2307  1.0361
17680TIP3    H274532   0.617   1.097   1.351 -0.2870 -1.4570 -1.3976
17681TIP3   OH274533   0.079   3.045   1.470  0.5869 -0.1634  0.1299
17681TIP3    H174534   0.168   3.009   1.465  0.7983  0.1923  1.0786
17681TIP3    H274535   0.042   3.003   1.547 -0.1276 -0.4151 -0.3443
17682TIP3   OH274536   5.185   1.218   6.483 -0.2040 -0.3808 -0.2254
17682TIP3    H174537   5.208   1.213   6.575  0.1776  1.2362 -0.2095
17682TIP3    H274538   5.238   1.151   6.441 -0.9877 -1.7129  0.8109
17683TIP3   OH274539   2.859   2.970  16.321  0.6931  0.4742 -0.3531
17683TIP3    H174540   2.772   2.942  16.290  0.2170  0.5474  0.8592
17683TIP3    H274541   2.841   3.021  16.400  1.6636  2.8240 -1.5554
17684TIP3   OH274542   4.807   2.872  10.867 -0.1021  0.1701  0.5667
17684TIP3    H174543   4.873   2.895  10.933  1.3452 -0.5109 -0.5962
17684TIP3    H274544   4.853   2.816  10.805 -2.0079 -1.0308  0.1482
17685TIP3   OH274545   1.154   2.296  11.175  0.2956 -0.3144  0.4731
17685TIP3    H174546   1.093   2.327  11.242  0.1759  1.0876 -0.2447
17685TIP3    H274547   1.099   2.242  11.117  0.6112 -2.4496  2.0121
17686TIP3   OH274548   2.063   3.042   4.009 -0.4743 -0.1623 -0.1010
17686TIP3    H174549   2.034   2.987   3.937 -2.4289  0.6487  0.0124
17686TIP3    H274550   2.126   2.987   4.057 -2.4499 -2.4024  0.1274
17687TIP3   OH274551   3.028   5.195  13.841 -0.0460 -0.1645 -0.1130
17687TIP3    H174552   2.967   5.123  13.854 -1.1250  0.6887 -0.2642
17687TIP3    H274553   3.025   5.213  13.746  0.4035 -0.0854 -0.1161
17688TIP3   OH274554   1.720   6.241  15.593 -0.0638  0.3584  0.1182
17688TIP3    H174555   1.730   6.266  15.501  1.2269 -1.1184 -0.1848
17688TIP3    H274556   1.791   6.289  15.638  0.4825 -0.3484  0.0262
17689TIP3   OH274557   1.730   1.759   2.807  0.0636 -0.1805 -0.0865
17689TIP3    H174558   1.717   1.752   2.713 -1.3781 -1.2323  0.1582
17689TIP3    H274559   1.708   1.850   2.828  2.2136  0.5959 -0.9874
17690TIP3   OH274560   0.174   4.051   1.402  0.0231 -0.3454  0.3085
17690TIP3    H174561   0.080   4.061   1.382  0.1404  0.5282  0.1251
17690TIP3    H274562   0.202   4.140   1.426  0.4327 -0.8965  2.0147
17691TIP3   OH274563   5.608   6.063  15.702  0.5339  0.9969 -0.3147
17691TIP3    H174564   5.700   6.054  15.680  1.0841  2.5011  1.0858
17691TIP3    H274565   5.587   5.985  15.753  0.1253 -0.8706 -3.1461
17692TIP3   OH274566   2.679   4.904  13.972 -0.0179 -0.1651 -0.3755
17692TIP3    H174567   2.775   4.897  13.967 -0.0028 -0.2340 -0.0342
17692TIP3    H274568   2.649   4.813  13.974 -0.1392 -0.1516 -1.2633
17693TIP3   OH274569   6.754   2.450   4.444  0.1041  0.0976  0.4883
17693TIP3    H174570   6.660   2.432   4.439  0.5174 -2.3694  0.3889
17693TIP3    H274571   6.762   2.511   4.518 -1.5137 -0.1090  0.8827
17694TIP3   OH274572   4.702   6.391   3.161 -0.1290 -0.0524 -0.5326
17694TIP3    H174573   4.661   6.475   3.182  0.6898  0.0205  0.9839
17694TIP3    H274574   4.629   6.335   3.134 -0.8924  0.7323 -0.1700
17695TIP3   OH274575   3.788   4.059  15.599  0.8155  0.0789  0.9858
17695TIP3    H174576   3.742   4.064  15.682 -2.8304  1.4605 -0.9086
17695TIP3    H274577   3.813   4.149  15.579 -0.8780  0.2646 -0.5941
17696TIP3   OH274578   3.456   5.662  12.718 -0.2280 -0.0607 -1.0442
17696TIP3    H174579   3.442   5.568  12.707  1.1057 -0.2149 -1.5387
17696TIP3    H274580   3.524   5.669  12.785 -1.3543  0.6201  0.0891
17697TIP3   OH274581   5.759   4.054  16.279  0.3164  0.3765 -0.0232
17697TIP3    H174582   5.720   3.982  16.229  1.6949 -0.2518 -0.2640
17697TIP3    H274583   5.820   4.011  16.339 -0.6614  1.1847  1.6245
17698TIP3   OH274584   0.471   2.355   4.895  0.3357 -0.3414  0.9377
17698TIP3    H174585   0.411   2.406   4.950  2.5983  1.6406  1.7218
17698TIP3    H274586   0.486   2.275   4.945 -1.2786 -0.6972  0.9189
17699TIP3   OH274587   6.744   5.901   4.041 -0.6131  0.2791  0.2603
17699TIP3    H174588   6.805   5.911   3.968  0.1704  0.0455  0.8782
17699TIP3    H274589   6.701   5.987   4.047  1.8994  1.5288  1.7872
17700TIP3   OH274590   3.826   4.614   0.404 -0.1383 -0.1510  0.0382
17700TIP3    H174591   3.841   4.520   0.409 -0.9005 -0.3481 -1.0491
17700TIP3    H274592   3.901   4.648   0.356  0.5485 -0.0786  1.1414
17701TIP3   OH274593   4.198   6.606  13.142  0.1877  0.4709  0.3622
17701TIP3    H174594   4.256   6.669  13.099  0.8190 -0.1669  0.2763
17701TIP3    H274595   4.199   6.530  13.085 -2.2726  1.1164 -0.6857
17702TIP3   OH274596   3.711   3.067   1.239  0.4501 -0.6976 -0.7316
17702TIP3    H174597   3.685   3.059   1.330  2.4832 -2.2094 -0.2022
17702TIP3    H274598   3.673   2.991   1.196 -1.9907  0.9105 -1.6326
17703TIP3   OH274599   0.773   1.411  15.833  0.4653 -0.4952  0.1802
17703TIP3    H174600   0.845   1.352  15.810  0.2716 -0.9557  0.7043
17703TIP3    H274601   0.698   1.378  15.784  0.2711 -0.9167  0.7456
17704TIP3   OH274602   2.548   0.623  16.220  0.2798  0.0431  0.6138
17704TIP3    H174603   2.470   0.664  16.256 -1.2019 -1.4725 -0.7007
17704TIP3    H274604   2.583   0.570  16.292 -2.3874 -2.6136  0.1344
17705TIP3   OH274605   4.396   2.842   1.351  0.1336  0.4621 -0.1436
17705TIP3    H174606   4.384   2.747   1.357 -1.0654  0.6315  0.6322
17705TIP3    H274607   4.451   2.855   1.275 -0.1779 -0.8379 -0.6121
17706TIP3   OH274608   6.246   1.012   2.361 -0.5048 -0.3080  0.4485
17706TIP3    H174609   6.276   1.097   2.393  0.7386 -0.7922  0.6598
17706TIP3    H274610   6.185   1.032   2.291  1.7278  0.7841 -1.3080
17707TIP3   OH274611   5.163   0.671  16.148 -0.0122 -0.2580  0.6672
17707TIP3    H174612   5.099   0.729  16.189 -0.3649 -0.5846  0.5800
17707TIP3    H274613   5.247   0.714  16.164 -0.2585  0.2326  0.6816
17708TIP3   OH274614   4.693   2.415  15.150  0.2837 -0.3291 -0.0599
17708TIP3    H174615   4.651   2.426  15.235 -1.1028  0.1853 -0.7777
17708TIP3    H274616   4.780   2.381  15.170 -0.6146 -1.8896  1.4897
17709TIP3   OH274617   5.771   3.337  12.068  0.2747 -0.3432 -0.3365
17709TIP3    H174618   5.700   3.312  12.009 -1.3449  0.7012  1.0692
17709TIP3    H274619   5.775   3.268  12.133  0.2430 -0.1723 -0.1521
17710TIP3   OH274620   4.730   5.824  16.415  0.2214  0.2968  0.0358
17710TIP3    H174621   4.756   5.733  16.423  1.8365  0.8373  1.4330
17710TIP3    H274622   4.710   5.852  16.505  1.2226  1.7057 -0.1411
17711TIP3   OH274623   4.662   1.751   1.200  0.0877  0.7171 -0.7784
17711TIP3    H174624   4.567   1.758   1.192 -0.0448  0.7676  0.5555
17711TIP3    H274625   4.680   1.769   1.293  1.4771  1.5477 -1.1696
17712TIP3   OH274626   4.425   5.548  11.302 -0.3232 -0.2230 -0.2640
17712TIP3    H174627   4.451   5.638  11.321  0.9887 -0.7864  0.7333
17712TIP3    H274628   4.420   5.544  11.206 -0.7672  0.9923 -0.3047
17713TIP3   OH274629   6.093   6.531  13.632  0.4696  0.1483  0.4149
17713TIP3    H174630   6.156   6.503  13.567  0.3640 -1.2861  0.8847
17713TIP3    H274631   6.146   6.557  13.708  0.5282 -0.1197  0.4660
17714TIP3   OH274632   1.108   6.053   6.227 -0.2081  0.2461  0.4417
17714TIP3    H174633   1.177   6.052   6.293 -0.1973  1.8364  0.4802
17714TIP3    H274634   1.126   6.132   6.175 -0.6135 -0.5991 -1.0416
17715TIP3   OH274635   3.092   5.782  15.409 -0.3295  0.3718 -0.3499
17715TIP3    H174636   3.156   5.849  15.388  1.3455  0.5933  4.2977
17715TIP3    H274637   3.144   5.704  15.429 -1.5720  0.0051  1.7448
17716TIP3   OH274638   0.396   2.609  12.209 -0.1519 -0.4160 -0.1350
17716TIP3    H174639   0.321   2.642  12.158 -1.0265 -2.8513 -0.5552
17716TIP3    H274640   0.472   2.639  12.160 -0.8579  0.7933 -0.5635
17717TIP3   OH274641   4.905   0.206  16.804 -0.0012 -0.2581  0.0842
17717TIP3    H174642   4.948   0.203  16.718  1.6236 -0.7522  0.8867
17717TIP3    H274643   4.931   0.291  16.840  0.4620 -0.6282  0.6396
17718TIP3   OH274644   3.470   3.816  16.750 -0.1795 -0.7844  0.3794
17718TIP3    H174645   3.540   3.771  16.797 -1.0087 -1.6948  0.7775
17718TIP3    H274646   3.398   3.753  16.748 -1.7307  0.8267  1.8222
17719TIP3   OH274647   6.695   1.757  16.742 -0.3027  0.0842  0.0751
17719TIP3    H174648   6.662   1.763  16.653 -0.7180 -1.9312  0.0480
17719TIP3    H274649   6.739   1.841  16.757  1.4573 -0.2025 -2.7034
17720TIP3   OH274650   2.798   1.222  11.154 -0.4903 -0.4061 -0.2715
17720TIP3    H174651   2.785   1.245  11.062  1.9990  0.4679 -0.4793
17720TIP3    H274652   2.754   1.291  11.202  2.2304  1.9498 -0.9022
17721TIP3   OH274653   0.280   0.183   2.562  0.1343  0.5261 -0.0111
17721TIP3    H174654   0.218   0.247   2.597  0.0745  1.2258 -1.3299
17721TIP3    H274655   0.322   0.228   2.489  4.2246  1.1063  2.4013
17722TIP3   OH274656   2.401   2.172   3.922 -0.1677 -0.2697  0.4981
17722TIP3    H174657   2.350   2.099   3.889  0.1230 -0.6545  0.8960
17722TIP3    H274658   2.359   2.250   3.884 -0.4128 -0.6427 -0.0094
17723TIP3   OH274659   1.414   3.502  14.170 -0.3931 -0.0819 -0.3740
17723TIP3    H174660   1.447   3.573  14.114  0.8493  0.0393  0.4823
17723TIP3    H274661   1.422   3.535  14.259 -2.1656 -0.3605 -0.0649
17724TIP3   OH274662   1.205   0.504   1.502 -0.0914  0.0268 -0.4810
17724TIP3    H174663   1.235   0.587   1.538 -0.0178 -0.2566  0.1360
17724TIP3    H274664   1.115   0.495   1.535 -0.0090 -0.2547 -0.3280
17725TIP3   OH274665   4.805   5.538   4.068 -0.3901  0.5805  0.4630
17725TIP3    H174666   4.877   5.475   4.077  0.3045  1.3825  0.6949
17725TIP3    H274667   4.727   5.488   4.091  0.1354 -0.2183  0.5757
17726TIP3   OH274668   6.725   3.735   4.660 -0.4812 -0.1088  0.7126
17726TIP3    H174669   6.814   3.763   4.639 -0.6750 -0.8520 -1.3346
17726TIP3    H274670   6.735   3.646   4.693 -0.4988 -0.5969 -0.5191
17727TIP3   OH274671   1.803   1.329   2.000  0.2088 -0.7192 -0.3532
17727TIP3    H174672   1.733   1.339   2.065 -0.3544 -0.1646 -1.0331
17727TIP3    H274673   1.883   1.347   2.049 -0.1724 -0.6964  0.2823
17728TIP3   OH274674   5.057   1.244  11.207 -0.1858 -0.2434 -0.3767
17728TIP3    H174675   5.081   1.264  11.117  0.8591  0.1803 -0.0210
17728TIP3    H274676   5.127   1.282  11.260 -1.9229  1.5329  0.7698
17729TIP3   OH274677   2.932   6.497   2.591 -0.1810 -0.2770  0.2822
17729TIP3    H174678   2.844   6.535   2.584 -0.0549 -0.3437 -2.4818
17729TIP3    H274679   2.967   6.500   2.502  3.0501  0.6898  1.4387
17730TIP3   OH274680   0.280   0.861  13.164 -0.7311  0.1838  0.0008
17730TIP3    H174681   0.290   0.836  13.256  1.0625 -1.1740 -0.5068
17730TIP3    H274682   0.369   0.860  13.129 -1.5213 -1.1474 -2.2032
17731TIP3   OH274683   1.466   2.978   2.830  0.6435 -0.2422  0.5822
17731TIP3    H174684   1.485   3.066   2.861  0.8901  0.3828 -1.2551
17731TIP3    H274685   1.506   2.921   2.896  2.7708  1.0207  0.4843
17732TIP3   OH274686   4.652   4.754   6.340  0.0996  0.1113 -0.1164
17732TIP3    H174687   4.586   4.804   6.388  0.9702 -0.6890  2.0470
17732TIP3    H274688   4.626   4.761   6.248 -3.7329 -1.2225  0.6913
17733TIP3   OH274689   4.910   6.632  13.688  0.0409  0.2355 -0.3773
17733TIP3    H174690   4.859   6.668  13.761 -0.0915 -0.3794 -0.1565
17733TIP3    H274691   4.864   6.663  13.610 -2.0849 -2.1163 -0.2056
17734TIP3   OH274692   3.614   0.334   4.614 -0.1223  0.0886  0.2878
17734TIP3    H174693   3.554   0.402   4.643  2.7004  2.1099  1.9037
17734TIP3    H274694   3.625   0.349   4.520 -2.8694 -1.0929 -0.3255
17735TIP3   OH274695   5.529   1.495   5.482 -0.3535  0.1013  0.4288
17735TIP3    H174696   5.445   1.453   5.464 -0.8253  0.9323  0.6998
17735TIP3    H274697   5.582   1.425   5.521 -0.7451 -0.5538 -0.1788
17736TIP3   OH274698   1.989   5.476  14.332 -0.1094  0.2802 -0.0808
17736TIP3    H174699   1.992   5.570  14.350 -2.4557  0.1457  1.4870
17736TIP3    H274700   2.006   5.435  14.417  0.0258 -0.6797 -0.5624
17737TIP3   OH274701   3.882   1.495  11.178  0.6798  0.7488 -0.2222
17737TIP3    H174702   3.903   1.427  11.113 -2.3327 -0.2284 -0.3211
17737TIP3    H274703   3.865   1.573  11.125 -1.9311 -0.0842 -0.7956
17738TIP3   OH274704   3.349   3.748  11.575 -0.6797  0.5355 -0.3005
17738TIP3    H174705   3.290   3.800  11.520  0.8045  2.5680 -0.0952
17738TIP3    H274706   3.353   3.795  11.658  0.0213 -0.4141  0.2306
17739TIP3   OH274707   3.476   4.217  12.980  0.3382  0.6217  0.0211
17739TIP3    H174708   3.466   4.137  13.031  0.5809  1.0567  0.7788
17739TIP3    H274709   3.450   4.287  13.041  1.1906  1.1983 -0.2623
17740TIP3   OH274710   0.027   6.670   1.936 -0.2680  0.3235  0.0860
17740TIP3    H174711   0.094   6.686   1.869  0.0062  0.2225  0.3315
17740TIP3    H274712  -0.047   6.724   1.910  0.2371  1.1450  0.3048
17741TIP3   OH274713   0.091   2.740   2.267  0.3650 -0.0618 -0.6022
17741TIP3    H174714   0.150   2.699   2.330 -0.1918 -0.2155 -0.1681
17741TIP3    H274715   0.084   2.676   2.195 -0.4503 -0.7308  0.0412
17742TIP3   OH274716   5.051   0.648   4.377  0.0611  0.0971  0.0612
17742TIP3    H174717   4.966   0.611   4.354  0.2704  0.6891 -1.8472
17742TIP3    H274718   5.114   0.580   4.353  0.2491  0.4757 -0.5363
17743TIP3   OH274719   5.942   3.529  15.802  0.3891 -0.1902 -0.3580
17743TIP3    H174720   5.926   3.457  15.741  0.7925  0.1895 -0.9217
17743TIP3    H274721   6.028   3.509  15.839 -0.9025 -1.7733  2.0228
17744TIP3   OH274722   2.537   3.520  12.837  0.5271  0.2918 -0.2408
17744TIP3    H174723   2.493   3.459  12.896 -0.6793 -0.2557 -1.6289
17744TIP3    H274724   2.582   3.464  12.774 -0.5635  0.7841 -1.5094
17745TIP3   OH274725   0.770   1.065   3.518 -0.8131  0.9295 -0.2025
17745TIP3    H174726   0.779   0.976   3.552 -0.5537  2.0678  3.1680
17745TIP3    H274727   0.859   1.100   3.518 -0.9974  1.4139 -0.7228
17746TIP3   OH274728   4.491   4.962  14.870 -0.5379 -0.3176 -0.3262
17746TIP3    H174729   4.494   4.984  14.963  1.9828  1.1150 -0.6469
17746TIP3    H274730   4.489   4.866  14.869  2.6847 -0.5769  1.3422
17747TIP3   OH274731   3.968   5.170  15.616  0.1530 -0.1720  0.3150
17747TIP3    H174732   4.015   5.143  15.695 -0.3512  0.3035  0.7899
17747TIP3    H274733   4.036   5.177  15.549  0.6282 -0.3367  0.7698
17748TIP3   OH274734   6.067   2.198  11.590 -0.5395 -0.5041  0.1008
17748TIP3    H174735   6.079   2.285  11.552 -1.0769  0.4717  2.0203
17748TIP3    H274736   6.016   2.150  11.525  0.6429  0.2349 -1.4588
17749TIP3   OH274737   0.515   0.998  16.261  0.4063 -0.1936 -0.0904
17749TIP3    H174738   0.557   0.918  16.293 -0.0352 -0.2346  0.4213
17749TIP3    H274739   0.489   0.977  16.172  0.9433 -0.3680 -0.2091
17750TIP3   OH274740   0.596   2.767   2.038  0.4603  0.0484 -0.3765
17750TIP3    H174741   0.626   2.847   2.081  1.1640 -0.2497 -0.2964
17750TIP3    H274742   0.613   2.698   2.102 -0.2405 -0.1513 -0.4062
17751TIP3   OH274743   5.503   3.200   2.855  0.2816 -0.3317 -0.0119
17751TIP3    H174744   5.540   3.116   2.884  2.5103  0.7983  0.6213
17751TIP3    H274745   5.440   3.223   2.923  1.5231 -0.3018  1.1641
17752TIP3   OH274746   4.577   4.394   4.798 -0.0599  0.0381  0.0583
17752TIP3    H174747   4.505   4.376   4.738  1.2464 -2.4955 -0.8842
17752TIP3    H274748   4.655   4.370   4.749  1.2801  0.7503  1.7667
17753TIP3   OH274749   6.294   3.893   4.329  0.2042 -0.2580 -0.3099
17753TIP3    H174750   6.287   3.974   4.380  1.5853 -0.2222 -0.1243
17753TIP3    H274751   6.291   3.922   4.237 -0.0784 -0.0857 -0.2472
17754TIP3   OH274752   0.581   5.834   3.615  0.1189  0.3112  0.2233
17754TIP3    H174753   0.495   5.795   3.601  0.2143  0.7769 -2.1522
17754TIP3    H274754   0.564   5.912   3.668 -1.0530  0.6994 -0.6720
17755TIP3   OH274755   6.411   6.448   4.836  0.1968  0.1815 -0.4816
17755TIP3    H174756   6.506   6.456   4.846  0.3229  0.4209 -1.7049
17755TIP3    H274757   6.388   6.519   4.776 -0.6524 -0.3157 -0.7492
17756TIP3   OH274758   2.632   4.888  11.389  0.0078 -0.6432 -0.3523
17756TIP3    H174759   2.561   4.933  11.435 -0.6311 -1.2498 -0.7256
17756TIP3    H274760   2.678   4.958  11.342 -0.4713 -0.2666 -0.2716
17757TIP3   OH274761   0.880   5.572   4.792  0.2664  0.2589 -0.5162
17757TIP3    H174762   0.878   5.536   4.703 -2.1625 -0.2840 -0.3152
17757TIP3    H274763   0.897   5.665   4.779  2.1998 -0.1591 -1.3515
17758TIP3   OH274764   5.078   4.714   0.951  0.0899  0.5240  0.2920
17758TIP3    H174765   5.041   4.793   0.988  0.1408  0.0529  1.3925
17758TIP3    H274766   5.058   4.719   0.857 -2.0575  0.6678  0.7037
17759TIP3   OH274767   0.749   3.272   0.466  0.2879  0.1635  0.1596
17759TIP3    H174768   0.753   3.279   0.561  0.0167 -0.9315  0.2618
17759TIP3    H274769   0.724   3.181   0.449 -0.5365  0.5665 -0.9341
17760TIP3   OH274770   4.581   0.310   5.397 -0.3623 -0.1394  0.2343
17760TIP3    H174771   4.634   0.324   5.319  0.6324  2.0491  1.2300
17760TIP3    H274772   4.495   0.346   5.375  0.7673  3.4132  1.0662
17761TIP3   OH274773   0.694   0.232  15.040  0.0950  0.0077  0.1263
17761TIP3    H174774   0.608   0.209  15.007 -0.8225  0.3847  2.1268
17761TIP3    H274775   0.697   0.328  15.037  0.6530 -0.0198 -0.4167
17762TIP3   OH274776   5.386   6.629  14.587  0.2744 -0.1789  0.7878
17762TIP3    H174777   5.436   6.677  14.654  0.0312  0.1461  0.7414
17762TIP3    H274778   5.369   6.544  14.627  0.3941 -0.0959  1.0214
17763TIP3   OH274779   5.545   6.469   2.233  0.0510 -0.0556  0.2966
17763TIP3    H174780   5.519   6.382   2.203  1.6366  0.1763 -2.0092
17763TIP3    H274781   5.631   6.456   2.273  0.0110  0.3530  0.5204
17764TIP3   OH274782   0.410   2.367  14.744  0.1714  0.0989 -0.0248
17764TIP3    H174783   0.377   2.311  14.674 -1.4003  0.6854  0.2258
17764TIP3    H274784   0.492   2.325  14.771  0.5687 -0.4211 -1.8543
17765TIP3   OH274785   1.414   2.494  14.782 -0.3948  0.0673  0.1517
17765TIP3    H174786   1.467   2.458  14.710  0.1918  0.5129  0.3539
17765TIP3    H274787   1.449   2.581  14.796 -0.7288  0.1038  0.7671
17766TIP3   OH274788   3.340   6.692  14.016  0.1403 -0.0149  0.2919
17766TIP3    H174789   3.331   6.601  14.044  1.3619 -0.3762 -0.3964
17766TIP3    H274790   3.430   6.699  13.985 -0.1214  1.2620 -0.2715
17767TIP3   OH274791   4.471   4.385  11.278  0.2759 -0.1224 -0.1151
17767TIP3    H174792   4.503   4.424  11.197  1.1469 -1.3827 -0.4113
17767TIP3    H274793   4.377   4.375  11.265  0.6839 -2.4096 -1.9526
17768TIP3   OH274794   5.558   4.297   2.475 -0.0736  0.8118  0.6240
17768TIP3    H174795   5.536   4.312   2.383  1.9501  2.6264  0.3454
17768TIP3    H274796   5.508   4.365   2.522 -1.7934 -0.6585  1.0403
17769TIP3   OH274797   3.264   3.730  11.859  0.0595 -0.1311  0.5595
17769TIP3    H174798   3.302   3.732  11.948  0.2272 -0.8295  0.5092
17769TIP3    H274799   3.246   3.637  11.843 -0.3254  0.0381  0.0095
17770TIP3   OH274800   6.752   0.304   6.669  0.2037 -0.3310  0.1584
17770TIP3    H174801   6.841   0.331   6.647 -0.2846  1.2141 -0.0540
17770TIP3    H274802   6.739   0.222   6.623  1.2497 -0.1631 -0.4494
17771TIP3   OH274803   6.349   0.705  16.970  0.0622 -0.1004  0.2566
17771TIP3    H174804   6.256   0.700  16.993 -0.3683 -0.4488 -1.4521
17771TIP3    H274805   6.393   0.721  17.054 -1.7301  2.7093  0.7814
17772TIP3   OH274806   4.002   3.318  15.680 -0.2895 -0.3527  0.0249
17772TIP3    H174807   3.939   3.374  15.636 -0.7716 -0.7665  0.1790
17772TIP3    H274808   4.001   3.236  15.630 -0.8388 -0.8224  0.7847
17773TIP3   OH274809   5.064   4.858  17.096  0.2667  0.8714 -0.2541
17773TIP3    H174810   5.114   4.931  17.061  1.1574  0.8779  0.9673
17773TIP3    H274811   5.117   4.824  17.168 -1.3671  0.7119  0.9397
17774TIP3   OH274812   3.923   0.079   1.335  0.3423 -0.4119 -0.0451
17774TIP3    H174813   4.009   0.046   1.311 -0.1514 -1.7669 -0.0411
17774TIP3    H274814   3.940   0.162   1.379  1.8107 -1.6310  1.8219
17775TIP3   OH274815   2.457   5.721   2.934  0.3964 -0.4922  0.1793
17775TIP3    H174816   2.415   5.806   2.943 -1.8967 -1.6910  1.7871
17775TIP3    H274817   2.477   5.714   2.841  0.6710  1.7795  0.0210
17776TIP3   OH274818   6.628   3.556   2.754  0.4071  0.4170 -0.0286
17776TIP3    H174819   6.576   3.611   2.695  0.7357  1.4078  0.5887
17776TIP3    H274820   6.627   3.602   2.837 -0.6810 -1.3293  1.0072
17777TIP3   OH274821   2.003   1.296   1.241  0.1025 -0.4160  0.3952
17777TIP3    H174822   1.966   1.250   1.316 -0.0614  0.1756  0.6842
17777TIP3    H274823   2.018   1.385   1.272 -0.6189  0.0275 -0.4714
17778TIP3   OH274824   2.501   0.526  14.738 -0.6257  0.4257  0.0960
17778TIP3    H174825   2.466   0.437  14.739  1.0235 -0.2562  0.3155
17778TIP3    H274826   2.424   0.582  14.729 -1.8159 -0.9645  1.0948
17779TIP3   OH274827   1.168   5.964  15.849  0.4580  0.2022  0.1134
17779TIP3    H174828   1.204   5.905  15.783  0.2048  2.0457 -1.8098
17779TIP3    H274829   1.243   5.987  15.904  0.6843 -1.3468  0.4945
17780TIP3   OH274830   6.316   5.158  16.652 -0.4397 -0.7233 -0.0242
17780TIP3    H174831   6.236   5.189  16.692  0.1466 -1.8299  2.1375
17780TIP3    H274832   6.319   5.064  16.672  1.8583 -0.5353  0.8449
17781TIP3   OH274833   4.596   0.478   4.158  0.4671 -0.0691  0.3970
17781TIP3    H174834   4.539   0.450   4.229  0.9498  0.0015  0.8091
17781TIP3    H274835   4.581   0.573   4.151 -0.5346 -0.2704 -0.4452
17782TIP3   OH274836   5.867   0.416  16.744 -0.6716 -0.4135 -0.6664
17782TIP3    H174837   5.910   0.331  16.755 -0.9518 -0.6324 -1.2387
17782TIP3    H274838   5.891   0.465  16.823 -2.2272 -1.7619  0.7336
17783TIP3   OH274839   0.287   4.240   5.248 -0.0277 -0.5423 -0.2044
17783TIP3    H174840   0.381   4.258   5.247  0.0598 -0.4626  2.1900
17783TIP3    H274841   0.280   4.151   5.282 -0.8064 -0.9099 -1.2948
17784TIP3   OH274842   4.545   5.838  16.651 -0.0677 -0.2376 -0.1608
17784TIP3    H174843   4.592   5.773  16.703 -1.1302  0.4178  1.7465
17784TIP3    H274844   4.469   5.860  16.705 -0.2363  1.8894 -1.1803
17785TIP3   OH274845   5.446   4.535   1.261  0.0513 -0.2523  0.0153
17785TIP3    H174846   5.495   4.530   1.343 -1.0176  0.8609  0.7519
17785TIP3    H274847   5.358   4.562   1.287  0.1707  2.0226 -1.6697
17786TIP3   OH274848   3.077   5.623   2.636  0.0814  0.3123 -0.0122
17786TIP3    H174849   3.027   5.544   2.656  2.3789 -1.5167 -0.9635
17786TIP3    H274850   3.017   5.695   2.653 -3.1267 -1.7091 -1.8044
17787TIP3   OH274851   5.610   4.195   1.408  0.0373  0.4914  0.2468
17787TIP3    H174852   5.554   4.198   1.331 -0.6679  1.6900  0.7762
17787TIP3    H274853   5.574   4.263   1.467  1.0174  0.1347  1.2988
17788TIP3   OH274854   5.413   2.843   2.239  0.3860 -0.3147  0.0064
17788TIP3    H174855   5.443   2.851   2.330 -0.4894 -1.2353  0.3939
17788TIP3    H274856   5.367   2.759   2.237  1.5139 -0.9276 -1.6132
17789TIP3   OH274857   4.880   6.362  16.988  0.3231 -0.5950  0.1525
17789TIP3    H174858   4.939   6.318  16.927  0.3902  0.2824 -0.4430
17789TIP3    H274859   4.836   6.291  17.035  0.5176 -1.2852 -0.6851
17790TIP3   OH274860   5.610   4.701   3.811 -0.4090 -0.3397 -0.3872
17790TIP3    H174861   5.665   4.729   3.884  0.2339  0.2923 -1.1009
17790TIP3    H274862   5.525   4.681   3.851 -1.0244  2.8819  0.1374
17791TIP3   OH274863   6.450   3.528  12.352 -0.7158 -0.3371 -0.1967
17791TIP3    H174864   6.515   3.573  12.407 -2.4121  3.2424 -0.8513
17791TIP3    H274865   6.495   3.516  12.269 -0.0683 -0.2198  0.1241
17792TIP3   OH274866   2.629   3.757   3.371  0.1998 -0.0350 -0.7922
17792TIP3    H174867   2.705   3.807   3.398  0.2151 -0.5220  0.1137
17792TIP3    H274868   2.663   3.671   3.346 -0.1796 -0.8246  1.1999
17793TIP3   OH274869   5.393   1.831  16.311  0.3774 -0.0088 -0.2228
17793TIP3    H174870   5.342   1.894  16.362  0.2367  0.5924 -1.0871
17793TIP3    H274871   5.345   1.749  16.320 -0.8907  0.5869 -1.1741
17794TIP3   OH274872   1.316   6.523  10.926  0.1790  0.7714  0.7045
17794TIP3    H174873   1.375   6.589  10.889  0.7259 -0.4292 -0.6481
17794TIP3    H274874   1.247   6.574  10.969  1.8545  2.2123  1.8073
17795TIP3   OH274875   1.941   0.875  16.015 -0.0554 -0.2469 -0.2817
17795TIP3    H174876   1.980   0.961  16.001 -0.6821  0.1647  0.4301
17795TIP3    H274877   2.014   0.818  16.038  0.3731  0.0786 -0.8338
17796TIP3   OH274878   1.477   0.112  15.498 -0.3416 -0.3341 -0.0611
17796TIP3    H174879   1.471   0.152  15.412 -1.4897  1.5078  0.8107
17796TIP3    H274880   1.425   0.032  15.492 -1.4441  0.4156 -0.7443
17797TIP3   OH274881   1.120   3.304  13.768 -0.9342 -0.1162  0.7947
17797TIP3    H174882   1.182   3.357  13.819 -0.5315 -0.7332  0.9475
17797TIP3    H274883   1.166   3.287  13.686 -2.3937  2.7632 -0.8067
17798TIP3   OH274884   0.455   6.002  12.645  0.5696 -0.0113 -0.0175
17798TIP3    H174885   0.381   5.948  12.673  1.0325 -0.6191  0.0671
17798TIP3    H274886   0.426   6.092  12.658  0.1889 -0.2569  0.8999
17799TIP3   OH274887   6.193   3.293   5.251 -0.3979 -0.5712 -0.6189
17799TIP3    H174888   6.115   3.347   5.258  0.0505 -0.1238  2.6907
17799TIP3    H274889   6.266   3.355   5.254  0.1351 -1.1076 -1.6728
17800TIP3   OH274890   5.502   1.527  13.251  0.2297 -0.3963 -0.5279
17800TIP3    H174891   5.514   1.547  13.158 -1.0533 -0.5181 -0.7486
17800TIP3    H274892   5.505   1.613  13.294  3.0276 -0.5000 -0.3462
17801TIP3   OH274893   4.006   4.113  16.009  0.1280 -0.5562  0.0994
17801TIP3    H174894   4.074   4.046  15.997 -0.2257 -1.0858  0.9460
17801TIP3    H274895   3.983   4.108  16.102 -0.0925  0.5733  0.1241
17802TIP3   OH274896   5.906   2.786  12.517  0.2051 -0.1694  0.2715
17802TIP3    H174897   5.819   2.760  12.548 -0.7792  1.4421 -1.0000
17802TIP3    H274898   5.916   2.741  12.433 -0.0686  0.8065 -0.3032
17803TIP3   OH274899   2.098   1.686   4.708 -0.6039 -0.5805 -0.0828
17803TIP3    H174900   2.054   1.731   4.636 -0.4853  0.2156  0.3384
17803TIP3    H274901   2.191   1.686   4.684 -0.6444 -0.8956 -0.2402
17804TIP3   OH274902   1.384   0.487  14.892 -0.7174  0.4884 -0.5404
17804TIP3    H174903   1.338   0.422  14.840  2.7046 -2.1674 -0.6099
17804TIP3    H274904   1.463   0.507  14.842  0.4395  1.3510  1.4779
17805TIP3   OH274905   5.608   6.227   2.599  0.3657  0.1102 -0.0401
17805TIP3    H174906   5.685   6.234   2.542  0.9905 -1.0688  0.6169
17805TIP3    H274907   5.550   6.166   2.553  0.3003  0.1536 -0.0164
17806TIP3   OH274908   0.008   3.230  15.741  0.6545  0.1265 -0.3235
17806TIP3    H174909  -0.076   3.195  15.771  1.0659  0.4864  1.3127
17806TIP3    H274910   0.066   3.219  15.816  0.9556  3.8624  0.1603
17807TIP3   OH274911   4.713   0.897   0.037  0.0542 -0.2827  0.7310
17807TIP3    H174912   4.668   0.867  -0.042  0.5484 -0.3259  0.4636
17807TIP3    H274913   4.693   0.830   0.103 -0.8938  0.0835  0.8330
17808TIP3   OH274914   1.102   1.609  16.841 -0.5098  0.3262  0.6099
17808TIP3    H174915   1.008   1.602  16.858 -0.6966  1.6465  0.2371
17808TIP3    H274916   1.142   1.547  16.902 -1.4782  1.3403  2.3593
17809TIP3   OH274917   4.771   3.888  14.388  0.7921 -0.3301 -0.2984
17809TIP3    H174918   4.826   3.894  14.466  0.7847 -0.4967 -0.2795
17809TIP3    H274919   4.699   3.831  14.413 -0.0822  0.8995  0.0693
17810TIP3   OH274920   3.047   5.882  10.527  0.2444  0.5155  0.2897
17810TIP3    H174921   3.105   5.817  10.568 -1.6854 -0.7918  1.0996
17810TIP3    H274922   2.961   5.865  10.566 -1.3782  0.3622 -3.0105
17811TIP3   OH274923   0.668   6.536   3.436  0.7650 -0.2324  0.2343
17811TIP3    H174924   0.762   6.524   3.420  1.0269  0.5804  1.0738
17811TIP3    H274925   0.664   6.591   3.515 -0.3983  1.1519 -0.7539
17812TIP3   OH274926   2.265   5.906  12.180  0.4775  0.0741  0.0647
17812TIP3    H174927   2.207   5.830  12.191 -0.8198  1.2762  2.0900
17812TIP3    H274928   2.281   5.937  12.269  0.2399  2.6937 -0.7367
17813TIP3   OH274929   3.571   3.548  15.341  0.2254 -0.5529  0.2961
17813TIP3    H174930   3.639   3.605  15.377 -1.8573  0.5699  2.8132
17813TIP3    H274931   3.563   3.575  15.249  2.5070 -0.1170  0.1888
17814TIP3   OH274932   2.041   1.561  16.849  0.0851  0.5003 -0.0698
17814TIP3    H174933   2.105   1.628  16.826 -0.5592  0.8996 -0.7514
17814TIP3    H274934   2.090   1.498  16.901  1.6032 -0.3860 -2.4197
17815TIP3   OH274935   3.426   2.244   2.777  0.2629  0.2039  0.1650
17815TIP3    H174936   3.499   2.183   2.768 -0.5249 -0.6967 -0.3413
17815TIP3    H274937   3.453   2.305   2.846  1.8838  0.4786 -0.6530
17816TIP3   OH274938   4.196   3.224  13.451  0.1624 -0.6497 -0.0186
17816TIP3    H174939   4.233   3.259  13.370  1.0792 -0.1205  0.6069
17816TIP3    H274940   4.130   3.288  13.477  1.3770  0.3437  0.7738
17817TIP3   OH274941   6.420   6.170   0.548  0.4310 -0.4417 -0.5271
17817TIP3    H174942   6.368   6.161   0.468 -0.4778 -1.0685  0.1085
17817TIP3    H274943   6.509   6.187   0.518  0.1313 -0.8249 -1.6675
17818TIP3   OH274944   0.997   0.197  14.095 -0.4121 -0.4391 -0.1880
17818TIP3    H174945   0.992   0.105  14.119  1.0191 -0.6766 -0.7227
17818TIP3    H274946   0.906   0.227  14.097 -1.0121 -2.0905 -0.8629
17819TIP3   OH274947   2.758   4.618  12.402  0.8083  0.5105  0.4480
17819TIP3    H174948   2.818   4.559  12.357 -0.3947 -0.3517 -0.1108
17819TIP3    H274949   2.734   4.683  12.336  1.1437  0.8577  0.6705
17820TIP3   OH274950   5.628   1.708  16.334  0.2982 -0.3348  0.4018
17820TIP3    H174951   5.617   1.623  16.290 -0.1098 -0.6404  1.0761
17820TIP3    H274952   5.549   1.757  16.311  0.4615 -0.1938  0.1380
17821TIP3   OH274953   6.064   4.855  16.986  0.4563  0.3768  0.2130
17821TIP3    H174954   6.024   4.885  17.067  0.3701  0.7257  0.0438
17821TIP3    H274955   6.158   4.857  17.003  0.4861  1.4026 -0.0162
17822TIP3   OH274956   3.922   3.324   4.250  0.0943  0.1420  0.3716
17822TIP3    H174957   3.996   3.330   4.189 -0.2700 -0.9921 -0.2034
17822TIP3    H274958   3.845   3.338   4.195 -0.1847  0.1969  0.7744
17823TIP3   OH274959   2.320   3.058   4.342 -0.7823 -0.5761  0.5211
17823TIP3    H174960   2.316   3.037   4.435  0.1719  1.2716  1.0172
17823TIP3    H274961   2.410   3.039   4.316 -0.8667 -0.4688  0.1317
17824TIP3   OH274962   0.649   2.079  13.000  0.0311  0.2290 -0.0389
17824TIP3    H174963   0.560   2.065  13.032  0.5331 -0.5928  1.0487
17824TIP3    H274964   0.705   2.061  13.076  1.2699 -1.6233 -1.3313
17825TIP3   OH274965   1.336   0.336  13.751 -0.3118 -0.5920  0.4012
17825TIP3    H174966   1.411   0.277  13.749 -0.2290 -0.4921 -1.3854
17825TIP3    H274967   1.310   0.339  13.843 -0.1417 -3.1660  0.6037
17826TIP3   OH274968   4.837   0.376   2.967 -0.7052  0.5265  0.9474
17826TIP3    H174969   4.754   0.385   2.921 -0.7656  1.6306  1.2292
17826TIP3    H274970   4.902   0.364   2.898 -1.0464  0.0820  0.7038
17827TIP3   OH274971   4.507   6.623  15.973  0.2696  0.6686  0.3372
17827TIP3    H174972   4.479   6.711  15.947 -1.0563  0.2358  0.2481
17827TIP3    H274973   4.428   6.582  16.007  0.8141 -0.5973  0.1172
17828TIP3   OH274974   5.636   5.699  15.591 -0.0276 -0.0138 -0.1629
17828TIP3    H174975   5.643   5.604  15.604  2.4831  0.2220  0.6276
17828TIP3    H274976   5.613   5.733  15.678  0.7555  0.2406 -0.0541
17829TIP3   OH274977   1.867   4.834   2.892 -0.0913  0.2513 -0.4522
17829TIP3    H174978   1.902   4.758   2.847 -0.4682 -0.1910 -0.0132
17829TIP3    H274979   1.880   4.907   2.831  3.3375  0.5323  0.4168
17830TIP3   OH274980   0.132   1.446   0.108 -0.0740 -0.5997 -0.2252
17830TIP3    H174981   0.137   1.531   0.152  0.2308 -0.0031 -1.3652
17830TIP3    H274982   0.217   1.405   0.123  0.2253 -0.1629 -0.7092
17831TIP3   OH274983   2.934   6.111  16.952  0.3445 -0.1402  0.0129
17831TIP3    H174984   3.020   6.070  16.963  2.6936  3.4524 -2.5202
17831TIP3    H274985   2.905   6.084  16.865  0.4051  0.9243 -0.3602
17832TIP3   OH274986   4.874   5.618   3.822 -0.0271 -0.2834  0.1606
17832TIP3    H174987   4.829   5.573   3.893 -0.4074  0.7364  0.5817
17832TIP3    H274988   4.904   5.700   3.860 -0.0448  0.1807 -0.7968
17833TIP3   OH274989   0.446   5.769   4.948 -0.5727  0.2109 -0.1248
17833TIP3    H174990   0.455   5.738   4.858  2.6886  1.6861 -0.4406
17833TIP3    H274991   0.411   5.857   4.940  3.5566  2.0552 -0.4965
17834TIP3   OH274992   0.488   2.956   1.758 -0.1014 -0.2855  0.1641
17834TIP3    H174993   0.463   2.895   1.828  1.3429 -0.1355  0.8444
17834TIP3    H274994   0.539   3.023   1.803 -1.4015  1.2999 -0.6209
17835TIP3   OH274995   1.748   4.587   3.424 -0.1571 -0.3199 -0.3695
17835TIP3    H174996   1.719   4.515   3.480  2.0867 -0.7595  0.3393
17835TIP3    H274997   1.786   4.651   3.484  2.0178 -0.6530 -1.2701
17836TIP3   OH274998   6.422   6.625   4.656 -0.1939 -0.5466 -0.4036
17836TIP3    H174999   6.385   6.570   4.587 -0.2303 -0.0617 -0.7812
17836TIP3    H275000   6.447   6.706   4.611 -1.6649  0.4049  0.4098
17837TIP3   OH275001   3.458   1.244   0.614 -0.1081 -0.1325  0.4628
17837TIP3    H175002   3.413   1.286   0.541 -0.4067 -2.0958 -0.5752
17837TIP3    H275003   3.488   1.316   0.669 -1.3390  1.3596 -0.7182
17838TIP3   OH275004   2.389   3.666  13.748  0.0793 -0.1516  0.2763
17838TIP3    H175005   2.310   3.614  13.745 -1.1087  1.5810 -0.1860
17838TIP3    H275006   2.376   3.727  13.821  1.3317 -0.3397  0.6891
17839TIP3   OH275007   1.940   1.164  12.689  0.4367 -0.6692 -0.1243
17839TIP3    H175008   1.872   1.105  12.657  1.2219 -0.5770 -2.1405
17839TIP3    H275009   1.910   1.252  12.663  1.2360 -0.6185 -0.9244
17840TIP3   OH275010   6.260   0.522   4.922  0.2407  0.6015  0.2816
17840TIP3    H175011   6.318   0.582   4.875 -0.2661 -0.4080 -1.7723
17840TIP3    H275012   6.239   0.567   5.003  1.0423  2.5466 -0.5280
17841TIP3   OH275013   3.459   0.911  16.952 -0.1978  0.7244 -0.1612
17841TIP3    H175014   3.469   0.934  17.044  0.4634  0.5175 -0.1784
17841TIP3    H275015   3.542   0.870  16.928 -0.1225  1.3482 -1.0177
17842TIP3   OH275016   0.363   4.557  12.517  0.0646  0.5444 -0.5154
17842TIP3    H175017   0.380   4.509  12.436  1.3037  0.0154  0.0387
17842TIP3    H275018   0.449   4.582  12.548 -0.2999 -0.3505  1.3153
17843TIP3   OH275019   0.046   2.603   6.117 -0.2551  0.3158 -0.4914
17843TIP3    H175020  -0.004   2.680   6.087  0.3595  0.8221 -0.2388
17843TIP3    H275021  -0.018   2.532   6.119 -1.6870  1.5040  2.3449
17844TIP3   OH275022   0.897   1.840   0.549 -0.1722 -0.5377 -0.2011
17844TIP3    H175023   0.842   1.817   0.474  0.6938  1.0496 -1.3824
17844TIP3    H275024   0.970   1.889   0.511  0.9259 -0.7139  1.5687
17845TIP3   OH275025   5.433   4.246  16.453  1.3376 -0.1188  0.1016
17845TIP3    H175026   5.339   4.245  16.470  0.9453  2.5642 -1.4292
17845TIP3    H275027   5.470   4.298  16.525  1.0631  2.1730 -1.3300
17846TIP3   OH275028   3.084   0.368   1.181  0.0478  0.0976 -0.3325
17846TIP3    H175029   3.119   0.340   1.266  1.6934  1.4577 -0.5089
17846TIP3    H275030   2.996   0.331   1.179 -0.0768  0.0775  2.0049
17847TIP3   OH275031   4.937   0.991   1.181  0.2218 -0.2685 -0.4736
17847TIP3    H175032   5.002   1.040   1.129  0.6572 -2.8425 -2.6036
17847TIP3    H275033   4.966   0.900   1.174 -1.2115 -1.0154  2.2739
17848TIP3   OH275034   5.770   4.567   0.950 -0.0233  0.5826 -0.2784
17848TIP3    H175035   5.781   4.490   1.006  1.2309  0.4055 -0.7282
17848TIP3    H275036   5.700   4.617   0.991  0.6596  0.3097  1.2884
17849TIP3   OH275037   6.579   1.409   1.031  0.4233 -0.2613 -0.4308
17849TIP3    H175038   6.486   1.386   1.035  0.0693  1.1304  0.2857
17849TIP3    H275039   6.601   1.402   0.938 -0.4711 -0.3566 -0.6522
17850TIP3   OH275040   6.152   2.921  14.757 -0.0182 -0.1205  0.4629
17850TIP3    H175041   6.096   2.881  14.823 -1.5470  1.0013 -0.1066
17850TIP3    H275042   6.091   2.952  14.689  1.2181  1.7941  0.1630
17851TIP3   OH275043   4.083   5.025  11.452 -0.7966  0.4465 -0.1066
17851TIP3    H175044   4.044   5.059  11.532 -0.6701 -0.7038  0.4661
17851TIP3    H275045   4.046   5.079  11.382 -2.2892  0.3178  0.5459
17852TIP3   OH275046   1.978   3.751   0.087  0.5315 -0.1774 -0.6230
17852TIP3    H175047   2.025   3.716   0.162  0.3587  0.9627  0.0368
17852TIP3    H275048   1.970   3.844   0.105 -2.7589 -0.4091 -0.2447
17853TIP3   OH275049   3.478   5.264   3.610 -0.1685 -0.6670  0.1039
17853TIP3    H175050   3.497   5.257   3.516 -1.7698 -0.2718 -0.2883
17853TIP3    H275051   3.419   5.191   3.628 -0.1067 -0.5661  0.7490
17854TIP3   OH275052   2.323   6.655   5.534 -0.1592 -0.4846 -0.0870
17854TIP3    H175053   2.253   6.603   5.575 -0.5781 -2.0085 -2.5552
17854TIP3    H275054   2.388   6.590   5.508  0.2199  0.4366 -1.5431
17855TIP3   OH275055   5.566   1.867  15.294 -0.5292 -0.1451  0.2079
17855TIP3    H175056   5.603   1.802  15.234  1.6977 -0.6262  1.9531
17855TIP3    H275057   5.510   1.816  15.354  0.4886 -0.3555  1.0080
17856TIP3   OH275058   2.930   1.888  15.574 -0.6279  0.0370 -0.1304
17856TIP3    H175059   2.941   1.854  15.485 -0.1563  2.2691 -0.9818
17856TIP3    H275060   2.930   1.810  15.630  2.3504 -1.2448 -1.7354
17857TIP3   OH275061   2.586   1.953  14.991  0.0278  0.3725  0.6502
17857TIP3    H175062   2.657   2.015  14.974 -0.9051  1.3263  0.1401
17857TIP3    H275063   2.560   1.922  14.904 -0.9984  0.9730  0.7357
17858TIP3   OH275064   0.124   5.851   3.855 -0.3435 -0.3781 -0.5089
17858TIP3    H175065   0.157   5.907   3.785 -1.3948  0.4801 -0.3407
17858TIP3    H275066   0.199   5.837   3.913 -0.2942  1.7526  0.0225
17859TIP3   OH275067   1.390   1.249  16.954  0.5938 -0.5893 -0.5923
17859TIP3    H175068   1.319   1.200  16.912  1.8530 -3.0629 -0.0015
17859TIP3    H275069   1.454   1.264  16.883 -0.7048  2.3158 -1.3177
17860TIP3   OH275070   1.305   2.827   4.239  0.1984  0.0587  0.0118
17860TIP3    H175071   1.222   2.780   4.230 -0.2947  1.1635 -1.6439
17860TIP3    H275072   1.306   2.855   4.331 -1.8827  1.0624 -0.2025
17861TIP3   OH275073   2.479   1.480   1.582 -0.1947 -0.3040  0.3034
17861TIP3    H175074   2.437   1.543   1.524  0.0610  0.9304  1.4234
17861TIP3    H275075   2.494   1.528   1.663 -1.5781 -2.2746  1.8415
17862TIP3   OH275076   6.540   5.619  17.200  0.3830 -0.0438  0.0183
17862TIP3    H175077   6.510   5.696  17.247 -1.9902 -0.6550 -0.3746
17862TIP3    H275078   6.587   5.567  17.265 -0.3121  0.4968  0.9651
17863TIP3   OH275079   4.928   0.874  12.556 -0.0241  0.4698 -0.6754
17863TIP3    H175080   5.001   0.823  12.522 -0.4806 -0.2047 -0.6782
17863TIP3    H275081   4.851   0.819  12.539 -0.6769  1.6370 -1.6965
17864TIP3   OH275082   1.675   2.421  13.225 -0.4647 -0.3844 -0.0359
17864TIP3    H175083   1.658   2.506  13.265 -0.1567 -0.2276 -0.2311
17864TIP3    H275084   1.715   2.369  13.295  0.1037 -0.1005 -0.1401
17865TIP3   OH275085   6.401   0.797   2.234  0.4682 -0.3631 -0.1660
17865TIP3    H175086   6.394   0.868   2.298 -0.8125  0.2341 -0.9154
17865TIP3    H275087   6.351   0.725   2.272  0.0955 -0.1659 -0.2720
17866TIP3   OH275088   2.356   3.824  17.315  0.2447 -0.2779  0.6333
17866TIP3    H175089   2.359   3.758  17.384  0.0891  0.4053  1.2998
17866TIP3    H275090   2.427   3.799  17.255 -0.4655 -1.6342  0.3202
17867TIP3   OH275091   1.231   0.495   5.290 -0.2210 -0.9771  0.3120
17867TIP3    H175092   1.259   0.479   5.380 -1.5430  1.0780  1.1468
17867TIP3    H275093   1.236   0.589   5.279  0.7708 -1.2558 -2.1044
17868TIP3   OH275094   3.070   0.633   1.274  0.6753 -0.5983  0.3551
17868TIP3    H175095   3.059   0.549   1.231 -0.0324  0.0651 -0.8222
17868TIP3    H275096   3.165   0.645   1.281  0.7845 -1.6370  0.8748
17869TIP3   OH275097   5.269   4.033  16.862 -0.1950 -0.4259 -0.6975
17869TIP3    H175098   5.302   3.944  16.869 -3.5172 -1.7145  0.7639
17869TIP3    H275099   5.198   4.028  16.798  0.1861  1.4247 -1.3437
17870TIP3   OH275100   5.772   2.597  13.519 -0.3907  0.7231  0.3986
17870TIP3    H175101   5.794   2.517  13.472  1.2471  1.0699  0.5314
17870TIP3    H275102   5.713   2.644  13.460  0.1147  0.2681 -0.4845
17871TIP3   OH275103   4.243   6.099   0.883 -0.2946  0.3198 -0.2418
17871TIP3    H175104   4.182   6.141   0.823 -0.5549 -0.0873 -0.2628
17871TIP3    H275105   4.309   6.060   0.826 -0.4887  0.0165 -0.2584
17872TIP3   OH275106   2.930   3.719   2.793 -0.0051 -0.0980 -0.6379
17872TIP3    H175107   2.901   3.785   2.730 -2.7574 -1.0651 -0.5101
17872TIP3    H275108   2.909   3.635   2.751 -0.1599 -0.7940  0.7812
17873TIP3   OH275109   4.259   5.751  14.553  0.5252 -0.0412 -0.3241
17873TIP3    H175110   4.228   5.679  14.608 -2.4346  0.0197 -1.7145
17873TIP3    H275111   4.198   5.823  14.571  1.4314  1.0339 -1.3762
17874TIP3   OH275112   1.417   6.169  15.654 -0.2450  0.2113 -0.6306
17874TIP3    H175113   1.508   6.146  15.671 -0.5252  0.3709  1.3337
17874TIP3    H275114   1.366   6.099  15.695 -1.0288  0.5059 -1.0715
17875TIP3   OH275115   2.011   3.301  16.674 -0.4751 -0.5725 -0.5508
17875TIP3    H175116   2.026   3.285  16.767  0.5460 -0.5013 -0.6931
17875TIP3    H275117   2.060   3.381  16.655  1.3459 -1.8691 -1.6497
17876TIP3   OH275118   4.999   6.468   5.028 -0.2692 -0.5645 -0.3935
17876TIP3    H175119   4.922   6.494   4.979 -0.9112 -0.8739  0.4287
17876TIP3    H275120   4.978   6.383   5.066  0.2736 -0.4348  0.2443
17877TIP3   OH275121   3.859   5.326   2.439 -0.0597 -0.2178  0.5208
17877TIP3    H175122   3.902   5.240   2.436 -0.1319 -0.2588 -2.9357
17877TIP3    H275123   3.929   5.389   2.426 -0.3334  0.0834  0.4937
17878TIP3   OH275124   3.249   6.758  15.950  0.1737  0.0240  0.4799
17878TIP3    H175125   3.155   6.741  15.950  0.0698  0.2436 -1.9527
17878TIP3    H275126   3.260   6.832  16.009 -1.4441  1.0019 -0.3653
17879TIP3   OH275127   4.311   4.538   3.754  0.2695  0.6442  0.1676
17879TIP3    H175128   4.303   4.444   3.770  2.6523  0.2954 -0.3885
17879TIP3    H275129   4.402   4.558   3.774  0.1119  2.5972 -0.8809
17880TIP3   OH275130   3.780   2.525  15.904  0.0555  0.0790 -0.2635
17880TIP3    H175131   3.801   2.438  15.870 -0.4850 -0.3168  0.3759
17880TIP3    H275132   3.719   2.562  15.841 -0.9640 -0.6591  0.2476
17881TIP3   OH275133   1.129   3.662  12.230  0.0465  0.3541  0.2338
17881TIP3    H175134   1.205   3.683  12.284 -0.1885  1.7329  0.0425
17881TIP3    H275135   1.098   3.746  12.198 -0.5863 -0.3321 -1.0210
17882TIP3   OH275136   3.310   4.981   0.069 -0.7195  0.7132 -0.4908
17882TIP3    H175137   3.322   5.057   0.126  0.5810  0.5971 -0.5908
17882TIP3    H275138   3.397   4.944   0.058 -0.9877  0.5092 -2.2566
17883TIP3   OH275139   3.547   1.645   5.208  0.5438 -0.0628 -0.2865
17883TIP3    H175140   3.486   1.609   5.143 -0.1581 -0.5395  0.6142
17883TIP3    H275141   3.493   1.705   5.259  0.7473 -0.7332  0.7291
17884TIP3   OH275142   0.936   2.922  14.517  0.4500  0.5531 -0.5496
17884TIP3    H175143   0.908   2.924  14.426 -0.7580 -3.1375 -0.3874
17884TIP3    H275144   1.026   2.955  14.515  0.3532  0.8434 -3.0045
17885TIP3   OH275145   6.174   5.637   5.660  0.8501  0.8516 -0.0293
17885TIP3    H175146   6.218   5.580   5.723 -1.5647 -0.5111  0.5723
17885TIP3    H275147   6.213   5.614   5.576 -1.3752 -3.5096 -0.2032
17886TIP3   OH275148   3.221   0.811  10.915  0.2932  1.2174  0.4711
17886TIP3    H175149   3.182   0.898  10.907 -3.0036 -0.0660  1.0675
17886TIP3    H275150   3.184   0.776  10.996  0.1969 -1.3163 -0.5823
17887TIP3   OH275151   3.456   2.242   0.910 -0.0959 -0.2831  0.0514
17887TIP3    H175152   3.503   2.161   0.932 -2.1539 -1.4547  0.4226
17887TIP3    H275153   3.444   2.237   0.815 -0.8556 -0.8189  0.1635
17888TIP3   OH275154   5.353   2.293  16.461  0.3059  0.3957 -0.2583
17888TIP3    H175155   5.438   2.251  16.477 -0.7707 -1.4875  0.9430
17888TIP3    H275156   5.358   2.322  16.370  1.3080 -2.0744 -1.0774
17889TIP3   OH275157   5.617   5.871  14.761  0.0819  0.7647 -0.8057
17889TIP3    H175158   5.555   5.932  14.801  2.6963  2.0297  1.6480
17889TIP3    H275159   5.700   5.890  14.804  1.4882 -3.2067 -1.3830
17890TIP3   OH275160   5.513   4.012   5.976  0.1830 -0.4240  0.1339
17890TIP3    H175161   5.472   3.928   5.993  0.0357 -0.4128 -0.1657
17890TIP3    H275162   5.451   4.059   5.921  0.6127 -0.4205 -0.3580
17891TIP3   OH275163   0.862   3.783  14.908  0.4026 -0.2402  0.2337
17891TIP3    H175164   0.956   3.801  14.917  0.5619 -1.4488  1.1774
17891TIP3    H275165   0.842   3.721  14.977 -0.5197 -2.2150 -1.6910
17892TIP3   OH275166   2.666   5.161   0.182  0.0838 -0.2672 -0.0430
17892TIP3    H175167   2.697   5.248   0.206  1.7257 -0.9104  0.3315
17892TIP3    H275168   2.576   5.174   0.154  0.5340  1.6752 -0.7354
17893TIP3   OH275169   5.181   2.162   5.412  0.0504 -0.1164  0.1024
17893TIP3    H175170   5.199   2.187   5.503  2.4215 -1.5191  0.1027
17893TIP3    H275171   5.230   2.224   5.359  0.2735 -0.4721 -0.1184
17894TIP3   OH275172   3.838   0.352  12.361  0.1062 -0.3616  0.1015
17894TIP3    H175173   3.853   0.328  12.452 -1.2059  1.0475  0.7413
17894TIP3    H275174   3.746   0.331  12.345  0.1643 -0.0548 -0.7014
17895TIP3   OH275175   3.443   5.140   1.905 -0.0378 -0.0565  0.0257
17895TIP3    H175176   3.399   5.057   1.887  1.3075 -0.5626 -1.1154
17895TIP3    H275177   3.533   5.126   1.875  0.1294  1.9315 -0.4953
17896TIP3   OH275178   0.634   5.533   0.390 -0.3880 -0.3709 -0.5365
17896TIP3    H175179   0.564   5.529   0.455 -0.9773 -1.5593 -1.2060
17896TIP3    H275180   0.632   5.623   0.357 -0.4466  0.0832  0.6812
17897TIP3   OH275181   4.672   1.029  13.589 -0.0038  0.1238  0.6673
17897TIP3    H175182   4.759   1.060  13.612 -0.6716  1.8946  0.9949
17897TIP3    H275183   4.618   1.108  13.589 -1.6929 -0.9754  0.8667
17898TIP3   OH275184   6.544   3.349  13.232 -0.3334  0.1321  0.1915
17898TIP3    H175185   6.575   3.259  13.217 -1.0464 -0.3990  1.6792
17898TIP3    H275186   6.623   3.401  13.242  0.0871 -0.4299 -0.1615
17899TIP3   OH275187   3.525   3.995  16.987 -0.4663  0.7883 -0.8616
17899TIP3    H175188   3.466   4.051  17.038  0.3691  1.1614 -0.2750
17899TIP3    H275189   3.469   3.955  16.921 -1.5226  0.5479  0.1423
17900TIP3   OH275190   3.791   2.950  15.727 -0.4205 -0.1533 -0.5857
17900TIP3    H175191   3.815   2.946  15.820 -0.1379 -0.7643 -0.6821
17900TIP3    H275192   3.866   2.911  15.682 -1.1290 -1.0840 -0.9764
17901TIP3   OH275193   4.103   0.303  12.863 -0.1697 -0.1327 -0.1170
17901TIP3    H175194   4.179   0.275  12.811 -0.1206  0.1613 -0.2069
17901TIP3    H275195   4.087   0.230  12.923 -1.1995 -1.1845 -1.5949
17902TIP3   OH275196   5.413   1.724   5.191 -0.0976  0.4822 -0.4485
17902TIP3    H175197   5.448   1.702   5.277  0.0221  0.9751 -0.3652
17902TIP3    H275198   5.318   1.724   5.202 -0.1164 -0.4100 -0.5605
17903TIP3   OH275199   6.574   3.516  12.084  0.2173  0.1704  0.1003
17903TIP3    H175200   6.647   3.539  12.026 -0.2885  1.4381 -0.0713
17903TIP3    H275201   6.496   3.528  12.030 -0.1137 -3.3856 -0.4603
17904TIP3   OH275202   5.491   4.807   1.375 -0.9179 -0.4903 -0.1443
17904TIP3    H175203   5.481   4.758   1.456  0.2624  0.0129  0.3309
17904TIP3    H275204   5.402   4.820   1.343 -1.5681  0.8749  2.0273
17905TIP3   OH275205   0.307   1.056  11.079 -0.0149  0.1678  0.5808
17905TIP3    H175206   0.351   0.971  11.089  0.9364  0.6183  0.3693
17905TIP3    H275207   0.292   1.086  11.169 -1.6194 -0.8294  0.6859
17906TIP3   OH275208   3.794   0.814  13.957  0.0447  0.6758 -0.2187
17906TIP3    H175209   3.816   0.864  13.878  0.9628 -0.4755 -0.7099
17906TIP3    H275210   3.777   0.725  13.926  1.4235 -0.0543  0.9675
17907TIP3   OH275211   0.608   1.780   3.222 -0.6394 -0.6248 -0.4891
17907TIP3    H175212   0.688   1.736   3.251 -0.1305 -0.1280 -1.1133
17907TIP3    H275213   0.542   1.710   3.219 -0.2352 -1.0368  0.0310
17908TIP3   OH275214   6.393   3.653   3.853 -0.0096  0.1599 -0.3169
17908TIP3    H175215   6.461   3.651   3.920 -1.3246  1.4094  1.1507
17908TIP3    H275216   6.431   3.608   3.778  1.4558 -1.4953  1.3248
17909TIP3   OH275217   5.502   1.233   3.331  0.5076 -0.0205  0.4935
17909TIP3    H175218   5.473   1.149   3.368  2.5639 -0.2012  1.8558
17909TIP3    H275219   5.448   1.244   3.253 -1.2160 -1.6210  1.3758
17910TIP3   OH275220   2.483   4.504   3.229 -0.7273 -0.1214  0.4962
17910TIP3    H175221   2.512   4.413   3.234 -0.4838  0.0048  1.5825
17910TIP3    H275222   2.556   4.551   3.190 -0.4219 -0.2001  0.9804
17911TIP3   OH275223   1.217   3.324   0.426  0.2830 -0.4534  0.3710
17911TIP3    H175224   1.209   3.380   0.502 -3.7585  0.9964 -0.8585
17911TIP3    H275225   1.291   3.360   0.377 -0.8149  2.5619  0.7159
17912TIP3   OH275226   5.873   1.660   4.680  0.1086 -0.1329 -0.1683
17912TIP3    H175227   5.927   1.689   4.607 -0.1061  0.4424 -0.1095
17912TIP3    H275228   5.934   1.647   4.753  0.2059  0.2548 -0.1775
17913TIP3   OH275229   2.606   1.554  14.372  0.4373 -0.1497 -0.8713
17913TIP3    H175230   2.618   1.474  14.320  1.7960  0.7511 -2.0383
17913TIP3    H275231   2.689   1.564  14.419 -0.2270 -0.1396  0.3242
17914TIP3   OH275232   1.384   1.684  13.945 -0.1103 -0.0622 -0.0871
17914TIP3    H175233   1.379   1.635  13.863 -1.0123 -1.6163  0.8526
17914TIP3    H275234   1.354   1.622  14.012  0.5520  1.1839  1.4154
17915TIP3   OH275235   6.077   6.235  11.592 -0.6225 -0.2291  0.0167
17915TIP3    H175236   6.041   6.320  11.566 -0.5423 -0.1655  0.1108
17915TIP3    H275237   6.108   6.196  11.510 -1.6950 -0.6650 -0.2029
17916TIP3   OH275238   4.359   2.412   5.483 -0.0877 -0.3555 -0.0309
17916TIP3    H175239   4.393   2.328   5.452 -0.3922 -0.2771 -0.5935
17916TIP3    H275240   4.281   2.428   5.430  0.9389  1.1292 -1.2071
17917TIP3   OH275241   4.879   2.393  15.342 -0.4807 -0.1677 -0.3988
17917TIP3    H175242   4.959   2.347  15.367 -0.6720 -0.9770 -1.2078
17917TIP3    H275243   4.897   2.485  15.362  0.0445 -0.5298  0.9299
17918TIP3   OH275244   1.262   1.112   4.434  0.1212  0.1970 -0.1926
17918TIP3    H175245   1.304   1.030   4.407 -0.7082  0.0142 -0.9675
17918TIP3    H275246   1.256   1.105   4.529 -2.0814 -1.7793 -0.3586
17919TIP3   OH275247   2.701   0.689  14.635 -0.3302 -0.3830  0.2488
17919TIP3    H175248   2.679   0.635  14.710 -3.0789 -0.0363 -0.1985
17919TIP3    H275249   2.663   0.775  14.655  0.6210  0.2756 -0.6826
17920TIP3   OH275250   5.828   6.488   5.938  0.0297  0.0357 -0.0174
17920TIP3    H175251   5.768   6.427   5.896 -0.6715 -0.0373  1.0515
17920TIP3    H275252   5.915   6.451   5.922 -0.4187 -1.7021  1.2743
17921TIP3   OH275253   1.754   0.029  13.873 -0.6215 -0.5169 -0.1136
17921TIP3    H175254   1.666   0.035  13.910 -0.7603  1.7684 -0.6773
17921TIP3    H275255   1.787   0.119  13.876  2.3228 -1.5448  1.5216
17922TIP3   OH275256   0.925   4.341  15.518  0.1706 -0.0924 -0.5391
17922TIP3    H175257   0.948   4.355  15.610  0.3017  0.5845 -0.6740
17922TIP3    H275258   0.851   4.399  15.503  1.1333  0.9650 -1.2835
17923TIP3   OH275259   1.772   5.668  13.114 -0.7807 -0.3138  0.1098
17923TIP3    H175260   1.782   5.698  13.024 -1.8293  3.6306  1.1076
17923TIP3    H275261   1.677   5.673  13.130 -0.4566  0.9460  1.9093
17924TIP3   OH275262   3.124   3.461   4.719 -0.1881 -0.5338 -0.1875
17924TIP3    H175263   3.124   3.410   4.800 -0.7210 -1.9219 -1.0323
17924TIP3    H275264   3.063   3.533   4.736 -0.2334 -0.7660  0.6649
17925TIP3   OH275265   6.406   2.982   0.447 -0.4804  0.1112 -0.7950
17925TIP3    H175266   6.367   2.895   0.447  1.6473 -0.9523  0.5989
17925TIP3    H275267   6.392   3.015   0.536 -0.2399  0.6602 -0.9552
17926TIP3   OH275268   2.154   6.469   0.259 -0.3918 -0.1787 -0.3251
17926TIP3    H175269   2.128   6.440   0.172 -0.5319  1.1802 -0.7658
17926TIP3    H275270   2.215   6.541   0.243  0.8048 -0.9180  0.7034
17927TIP3   OH275271   3.399   3.737   4.781  0.0771  0.0233 -0.4273
17927TIP3    H175272   3.485   3.779   4.783  0.1876 -0.2011 -0.4590
17927TIP3    H275273   3.343   3.800   4.735  0.5437 -0.3943 -1.6084
17928TIP3   OH275274   0.565   5.013  15.814 -0.3566 -0.4203 -1.0529
17928TIP3    H175275   0.489   5.069  15.801 -0.9237 -1.1010 -0.7578
17928TIP3    H275276   0.567   4.957  15.736  1.6612  1.6034 -2.5784
17929TIP3   OH275277   6.823   2.924   5.787 -0.0733  0.2287  0.0086
17929TIP3    H175278   6.767   2.888   5.856  0.6414  0.5008  0.7562
17929TIP3    H275279   6.912   2.901   5.815  0.4152  2.4212  0.4545
17930TIP3   OH275280   3.226   0.949   2.436 -0.1198  0.0017 -0.0342
17930TIP3    H175281   3.155   0.969   2.498 -0.8774 -0.3751 -0.7598
17930TIP3    H275282   3.181   0.927   2.354  0.7079 -2.7804  0.1636
17931TIP3   OH275283   6.243   1.255   0.805  0.4273  0.3246  0.1031
17931TIP3    H175284   6.206   1.218   0.725 -2.2588  1.2749  0.7944
17931TIP3    H275285   6.285   1.181   0.849 -0.6065 -0.8334 -0.8003
17932TIP3   OH275286   6.323   5.198  15.708 -0.3326  0.6365 -0.1348
17932TIP3    H175287   6.358   5.244  15.632  0.6711 -1.3750 -0.9322
17932TIP3    H275288   6.379   5.226  15.780  0.6244  0.2593 -0.7188
17933TIP3   OH275289   3.258   1.719  11.910  0.2762  0.2095  0.1206
17933TIP3    H175290   3.285   1.671  11.988  0.1539 -1.5634 -0.8645
17933TIP3    H275291   3.334   1.716  11.852  0.1536  0.9455 -0.0834
17934TIP3   OH275292   6.085   5.946  16.029  0.3121 -0.0612 -0.0130
17934TIP3    H175293   6.179   5.932  16.045 -0.0147 -0.3982  1.7493
17934TIP3    H275294   6.053   5.860  16.001  0.4494 -0.0424 -0.2293
17935TIP3   OH275295   5.485   5.233   3.662 -0.1206 -0.2749  0.4937
17935TIP3    H175296   5.489   5.150   3.615  1.2263  0.3551 -0.5622
17935TIP3    H275297   5.394   5.261   3.652  0.0726 -0.2255 -1.6818
17936TIP3   OH275298   0.984   3.979   1.907  0.0919 -0.6871 -0.5367
17936TIP3    H175299   0.892   3.962   1.885 -0.1193 -0.6190  0.2555
17936TIP3    H275300   1.011   4.047   1.846 -0.7637  0.1894  0.0445
17937TIP3   OH275301   5.375   5.434  11.146  0.2914 -0.6486 -0.3247
17937TIP3    H175302   5.466   5.425  11.119  0.0466 -3.2452 -0.5585
17937TIP3    H275303   5.380   5.464  11.237  1.3582 -0.5914 -0.3928
17938TIP3   OH275304   3.134   5.968   4.910  0.1069  0.6880 -0.3595
17938TIP3    H175305   3.182   5.918   4.844 -1.1695 -0.6119 -0.3666
17938TIP3    H275306   3.168   6.057   4.904 -0.1197  0.6538 -2.9284
17939TIP3   OH275307   2.918   6.685  13.901 -0.2350 -0.3026  0.3242
17939TIP3    H175308   2.850   6.617  13.902 -0.6152 -0.0334 -1.7684
17939TIP3    H275309   2.870   6.766  13.884  0.6431 -0.2706 -2.4624
17940TIP3   OH275310   4.767   5.445   5.692 -0.3667  0.1253 -0.0571
17940TIP3    H175311   4.758   5.350   5.684  0.2474  0.1654 -1.8749
17940TIP3    H275312   4.854   5.458   5.729 -0.9744 -0.0244  1.4563
17941TIP3   OH275313   6.743   6.144  15.822 -0.1093 -0.0247  0.0297
17941TIP3    H175314   6.683   6.176  15.755 -0.2186 -0.0147  0.1319
17941TIP3    H275315   6.745   6.049  15.810  0.3851  0.0387 -0.4148
17942TIP3   OH275316   4.357   3.275   2.701  0.1293 -0.8044  0.2297
17942TIP3    H175317   4.272   3.319   2.697 -0.2385 -1.4067  1.0205
17942TIP3    H275318   4.368   3.236   2.615  0.1686  0.2828 -0.2746
17943TIP3   OH275319   3.769   5.734   4.450  0.4957  0.1558 -0.2357
17943TIP3    H175320   3.771   5.643   4.479  1.0136  0.8578  2.1218
17943TIP3    H275321   3.679   5.763   4.467  0.2998  0.0842 -1.0876
17944TIP3   OH275322   3.268   6.496   3.547  0.3267 -0.5308 -0.1449
17944TIP3    H175323   3.269   6.530   3.457  0.9245 -0.4501 -0.1167
17944TIP3    H275324   3.254   6.573   3.602  0.8119 -0.4508 -0.1277
17945TIP3   OH275325   5.117   3.664   1.591  0.1113  0.1518  0.4431
17945TIP3    H175326   5.167   3.583   1.590  0.2604  0.2441 -1.1768
17945TIP3    H275327   5.114   3.688   1.684  2.5636 -0.1428  0.6676
17946TIP3   OH275328   0.031   6.310   1.519 -0.1462 -0.1484 -0.0558
17946TIP3    H175329  -0.025   6.239   1.487 -2.1970  1.3769 -0.0364
17946TIP3    H275330  -0.002   6.329   1.606  0.4460  0.7589 -0.0185
17947TIP3   OH275331   6.733   3.768  12.764 -0.1852  0.0852  0.4273
17947TIP3    H175332   6.745   3.765  12.859  1.3322 -0.3021  0.2451
17947TIP3    H275333   6.776   3.849  12.737  2.3353 -1.3977 -0.2709
17948TIP3   OH275334   2.933   0.394  14.827  0.0068 -0.3191  0.1031
17948TIP3    H175335   2.903   0.351  14.907 -1.2376 -0.0153 -0.1751
17948TIP3    H275336   2.853   0.409  14.777  0.5644  1.0947 -0.4070
17949TIP3   OH275337   5.182   4.231   0.766 -0.5125  0.0985 -0.1604
17949TIP3    H175338   5.096   4.191   0.775 -1.3567  2.0141  0.7672
17949TIP3    H275339   5.238   4.182   0.826 -1.1450 -0.6266 -0.1452
17950TIP3   OH275340   5.226   6.569   5.128 -0.4771  0.2511 -0.0909
17950TIP3    H175341   5.234   6.662   5.109 -1.5561  0.5608  0.8695
17950TIP3    H275342   5.145   6.542   5.085 -0.0867 -0.2945 -0.5066
17951TIP3   OH275343   1.462   0.901  16.725 -0.1654  0.3301 -0.5185
17951TIP3    H175344   1.458   0.941  16.639  0.8505 -0.3926 -0.9233
17951TIP3    H275345   1.502   0.816  16.710 -2.7727 -1.1405  0.2226
17952TIP3   OH275346   0.253   5.443  10.685 -0.3722 -0.0754  0.0285
17952TIP3    H175347   0.317   5.474  10.748  0.0374 -2.1808  0.7502
17952TIP3    H275348   0.292   5.460  10.600  1.0279 -0.9848  0.4490
17953TIP3   OH275349   2.185   0.731  13.683  0.1608 -0.4125  0.6008
17953TIP3    H175350   2.163   0.817  13.719 -0.8782  0.3013 -1.5818
17953TIP3    H275351   2.209   0.678  13.760  0.8771  1.8033  1.9934
17954TIP3   OH275352   3.337   1.015   0.320 -0.0275  0.6042  0.7072
17954TIP3    H175353   3.294   1.022   0.406 -0.1723 -0.5613  0.7537
17954TIP3    H275354   3.270   1.041   0.257  0.2347  1.9674  0.9544
17955TIP3   OH275355   1.670   1.150   0.050  0.3613  0.2221  0.2336
17955TIP3    H175356   1.601   1.095   0.015  0.4020  0.1300  0.2994
17955TIP3    H275357   1.660   1.145   0.145  1.2621 -0.8412  0.2971
17956TIP3   OH275358   3.742   3.972  11.816  0.2963  0.0631  0.2337
17956TIP3    H175359   3.731   3.889  11.864  0.2363  0.2208  0.4973
17956TIP3    H275360   3.769   4.035  11.883 -1.3922  0.6768  0.3969
17957TIP3   OH275361   3.078   4.182  15.705 -0.4569 -0.4302  0.0351
17957TIP3    H175362   3.089   4.270  15.672 -1.4201 -0.5909 -0.7537
17957TIP3    H275363   3.107   4.187  15.796  0.8826  0.3415 -0.4097
17958TIP3   OH275364   6.761   1.902  15.324 -0.2270 -0.5464 -0.0983
17958TIP3    H175365   6.736   1.859  15.406 -0.9931  0.9982  0.5293
17958TIP3    H275366   6.837   1.854  15.293 -0.5019 -1.7510  1.0339
17959TIP3   OH275367   0.347   5.183   2.391 -0.0257 -0.0352 -0.6225
17959TIP3    H175368   0.406   5.243   2.437 -0.8395  1.0984 -1.0083
17959TIP3    H275369   0.326   5.115   2.456 -0.1878  0.8628  0.2898
17960TIP3   OH275370   4.207   1.104  16.984 -0.3564 -0.3952  0.3518
17960TIP3    H175371   4.157   1.131  17.062 -1.4176 -0.2942 -0.3317
17960TIP3    H275372   4.157   1.141  16.911 -0.5866 -2.2817 -0.5054
17961TIP3   OH275373   4.576   2.135   5.025 -0.0178  0.1967 -0.4712
17961TIP3    H175374   4.524   2.196   5.078 -0.6353  1.7174 -2.7029
17961TIP3    H275375   4.553   2.049   5.060 -0.4089  1.0993  1.6818
17962TIP3   OH275376   0.651   4.446  15.394 -0.5880  0.2975  0.1728
17962TIP3    H175377   0.613   4.489  15.318 -0.5531 -0.3724 -0.2357
17962TIP3    H275378   0.605   4.362  15.399 -1.2992  0.7205  1.4841
17963TIP3   OH275379   1.444   5.171  16.338 -0.0702 -0.2758  0.0505
17963TIP3    H175380   1.377   5.106  16.358  0.1462 -0.7126 -0.5965
17963TIP3    H275381   1.406   5.254  16.365 -1.4150 -0.3514 -1.4487
17964TIP3   OH275382   6.472   5.543   6.048  0.1331 -0.0952 -0.3436
17964TIP3    H175383   6.551   5.494   6.072  0.5935  0.8588  0.1263
17964TIP3    H275384   6.400   5.492   6.086  0.4555 -1.2571 -1.2231
17965TIP3   OH275385   1.397   2.122  14.887  0.1039 -0.2804 -0.1455
17965TIP3    H175386   1.430   2.207  14.916  1.7754 -0.2220 -2.0324
17965TIP3    H275387   1.414   2.063  14.961 -0.2323  0.8112  0.8259
17966TIP3   OH275388   1.996   6.065   5.402  0.2476 -0.0870 -0.0578
17966TIP3    H175389   1.912   6.081   5.446 -1.3619 -1.8187 -2.2534
17966TIP3    H275390   2.035   5.992   5.450 -0.6898 -0.8576 -0.4301
17967TIP3   OH275391   3.169   5.440  14.010  0.7439 -0.1759 -0.1661
17967TIP3    H175392   3.212   5.387  14.077 -1.4292 -1.3786  0.3618
17967TIP3    H275393   3.142   5.376  13.944 -1.4064  0.3057  0.1993
17968TIP3   OH275394   5.415   6.385  15.519  0.3084 -0.1331 -0.0508
17968TIP3    H175395   5.349   6.454  15.524  1.2316  0.9221 -1.4043
17968TIP3    H275396   5.434   6.377  15.426 -0.5216 -3.0182 -0.0700
17969TIP3   OH275397   5.859   0.494   1.972 -0.8678 -0.2706  0.0081
17969TIP3    H175398   5.953   0.512   1.972 -1.1569  1.7201 -2.1413
17969TIP3    H275399   5.829   0.520   2.059  0.3455  0.4508  0.2256
17970TIP3   OH275400   2.500   2.928  17.028 -0.6804 -0.3075  0.4508
17970TIP3    H175401   2.489   3.018  16.997  0.4860 -1.0316 -2.3456
17970TIP3    H275402   2.413   2.888  17.017 -0.6046 -0.1755 -0.7026
17971TIP3   OH275403   3.963   2.373   0.105  0.2373 -0.1093  0.3898
17971TIP3    H175404   4.047   2.398   0.145 -0.1961  1.7773  0.2153
17971TIP3    H275405   3.987   2.331   0.023  1.0357  0.5593  0.2641
17972TIP3   OH275406   3.728   3.402   5.846  0.0645  0.6610  0.2140
17972TIP3    H175407   3.787   3.467   5.884  0.0710  1.0777 -0.5061
17972TIP3    H275408   3.768   3.380   5.762 -0.1912  0.0775  0.2466
17973TIP3   OH275409   0.126   2.064  16.397 -0.7134  0.6577  0.0978
17973TIP3    H175410   0.165   1.977  16.395 -1.8443  0.1601 -1.0349
17973TIP3    H275411   0.164   2.105  16.475 -0.7326 -1.0935  1.0787
17974TIP3   OH275412   4.104   2.972   6.579 -0.6578 -0.1816  0.0681
17974TIP3    H175413   4.030   3.020   6.541 -1.9853 -1.5845  0.7680
17974TIP3    H275414   4.085   2.880   6.560 -0.7606 -0.8552  2.9920
17975TIP3   OH275415   1.081   6.331   5.604 -0.3222 -0.1913  0.0546
17975TIP3    H175416   1.127   6.318   5.521  0.0867  1.2440  0.0179
17975TIP3    H275417   1.056   6.424   5.603 -5.0609 -1.1773 -0.8478
17976TIP3   OH275418   2.297   5.069   4.694 -0.3105  0.8259  0.0022
17976TIP3    H175419   2.228   5.135   4.686 -0.0720  0.9775 -0.9163
17976TIP3    H275420   2.352   5.083   4.617  1.0104  1.0070  0.9445
17977TIP3   OH275421   2.790   3.479  12.101 -0.1128 -0.0365 -0.6809
17977TIP3    H175422   2.705   3.444  12.075 -0.1151  0.2472 -1.0589
17977TIP3    H275423   2.778   3.504  12.193 -0.0625 -1.1561 -0.3591
17978TIP3   OH275424   1.227   0.933   2.209  0.6853 -0.0462 -0.2684
17978TIP3    H175425   1.145   0.884   2.214 -0.1673  1.2631 -0.8058
17978TIP3    H275426   1.202   1.018   2.174  1.4504  2.2041  3.9236
17979TIP3   OH275427   0.417   6.462  11.073 -0.4540 -0.0878 -0.5777
17979TIP3    H175428   0.441   6.520  11.001 -0.0113 -1.4529 -1.5678
17979TIP3    H275429   0.321   6.467  11.077 -0.5323 -0.5300 -1.7259
17980TIP3   OH275430   4.036   1.754  15.545 -0.2809 -0.0574 -0.4638
17980TIP3    H175431   3.941   1.761  15.558  0.0118  0.7493  1.6137
17980TIP3    H275432   4.062   1.678  15.597  0.2602 -0.0577 -0.7232
17981TIP3   OH275433   3.638   1.955  16.227 -0.0301  0.0282 -0.3078
17981TIP3    H175434   3.652   1.886  16.291 -0.6482 -1.7232 -1.9648
17981TIP3    H275435   3.705   1.940  16.161  0.5226  1.7215 -0.1717
17982TIP3   OH275436   2.252   0.283   3.510 -0.4450  0.1040  0.9858
17982TIP3    H175437   2.253   0.223   3.435  1.6333 -0.9572  1.7568
17982TIP3    H275438   2.320   0.347   3.490  0.3359 -0.3608  2.0493
17983TIP3   OH275439   3.282   6.421   4.205 -0.0688 -0.4973 -0.4432
17983TIP3    H175440   3.282   6.506   4.161  0.7367  2.0526  3.8323
17983TIP3    H275441   3.338   6.365   4.150  0.9682  2.3293 -2.4962
17984TIP3   OH275442   6.083   6.656   6.583  0.1935 -0.1764  0.3548
17984TIP3    H175443   6.158   6.628   6.634  0.9968 -1.0425 -1.2285
17984TIP3    H275444   6.027   6.579   6.576 -0.4643  0.2413  0.8380
17985TIP3   OH275445   4.996   1.713  16.855  0.3717  0.2548  0.1845
17985TIP3    H175446   4.960   1.626  16.873  2.1041 -0.3473  0.9005
17985TIP3    H275447   4.923   1.760  16.814 -1.1692 -0.9510  1.3620
17986TIP3   OH275448   5.669   2.965   2.418  0.1072 -0.1762  0.1204
17986TIP3    H175449   5.626   2.888   2.455 -0.2787 -1.0132 -1.8919
17986TIP3    H275450   5.655   3.034   2.482 -0.6780 -1.4568  1.3908
17987TIP3   OH275451   5.772   1.231   3.105  0.3084 -0.2303  0.5432
17987TIP3    H175452   5.729   1.160   3.152  1.0004 -1.8832 -1.1965
17987TIP3    H275453   5.866   1.216   3.119  0.4832 -0.1022 -0.4556
17988TIP3   OH275454   5.093   0.834   0.951  0.9806  0.0487 -0.3551
17988TIP3    H175455   5.056   0.913   0.913  0.1459  0.3077  0.9480
17988TIP3    H275456   5.179   0.861   0.983  0.9002  0.3094 -0.3561
17989TIP3   OH275457   6.339   2.675   4.701 -0.0004  0.1805 -0.1708
17989TIP3    H175458   6.248   2.654   4.680 -0.0649 -0.0480  0.3015
17989TIP3    H275459   6.386   2.671   4.618 -0.4398  0.3799 -0.4259
17990TIP3   OH275460   1.598   2.739  14.717 -0.4018  0.2277 -0.6930
17990TIP3    H175461   1.636   2.826  14.702  0.1587 -0.0054 -0.6433
17990TIP3    H275462   1.673   2.681  14.723 -0.6939 -0.0501  0.7366
17991TIP3   OH275463   0.256   6.031   5.383 -0.2029 -0.1209  0.4893
17991TIP3    H175464   0.321   5.978   5.430  1.0744  1.6458  0.8303
17991TIP3    H275465   0.277   6.018   5.290 -0.5670 -0.9970  0.5233
17992TIP3   OH275466   2.166   6.496  15.372 -1.0157  0.2698  0.1820
17992TIP3    H175467   2.233   6.560  15.393  2.0666 -1.8005 -2.4772
17992TIP3    H275468   2.109   6.540  15.309 -0.9493  1.3999  0.8854
17993TIP3   OH275469   5.938   5.411  16.907  0.9662 -0.0498  0.4803
17993TIP3    H175470   5.978   5.495  16.886  1.0448 -0.1808  0.0829
17993TIP3    H275471   5.854   5.412  16.861  0.8499 -0.0800  0.6911
17994TIP3   OH275472   3.872   0.396   1.696  0.0685 -0.1174 -0.4124
17994TIP3    H175473   3.790   0.437   1.724  0.4431 -0.4508  1.2722
17994TIP3    H275474   3.933   0.413   1.768  0.8292 -1.8204 -0.6068
17995TIP3   OH275475   2.084   1.033   5.052 -0.1879  0.6214 -0.3752
17995TIP3    H175476   2.099   0.984   5.133 -1.2123  0.1403 -0.4682
17995TIP3    H275477   2.169   1.032   5.007  0.2478  0.4353  0.4390
17996TIP3   OH275478   4.440   5.995   0.739  0.3164 -0.0659 -0.2786
17996TIP3    H175479   4.523   5.987   0.787 -0.4950 -0.7660  1.0578
17996TIP3    H275480   4.422   5.906   0.708  0.0584  0.0931 -0.5902
17997TIP3   OH275481   4.269   4.106  13.188  0.7346 -0.3259 -0.0476
17997TIP3    H175482   4.218   4.075  13.113 -0.2798 -0.3978  0.6419
17997TIP3    H275483   4.230   4.060  13.263  2.0486 -0.6316  0.4690
17998TIP3   OH275484   4.405   4.753  11.073  0.1473 -0.6191 -0.2834
17998TIP3    H175485   4.402   4.748  11.168 -0.3750 -0.0592 -0.2653
17998TIP3    H275486   4.359   4.674  11.044 -0.2779 -0.4567 -0.0636
17999TIP3   OH275487   5.214   6.734  15.955 -0.2519  0.6328 -0.5561
17999TIP3    H175488   5.253   6.648  15.943 -0.2913  0.5648 -0.1858
17999TIP3    H275489   5.288   6.791  15.979 -0.1350  0.8178 -1.3117
18000TIP3   OH275490   0.705   4.144   0.799 -0.2572  0.1342  0.6984
18000TIP3    H175491   0.784   4.188   0.832  1.1992 -1.7859 -0.0577
18000TIP3    H275492   0.710   4.154   0.704  0.1008 -1.5550  0.5060
18001TIP3   OH275493   2.598   3.019  14.751  0.0009  0.1824  0.3690
18001TIP3    H175494   2.679   3.058  14.783 -0.3842  2.2214 -0.9714
18001TIP3    H275495   2.528   3.072  14.791 -0.5885 -0.0713 -0.3051
18002TIP3   OH275496   5.951   0.223   0.953  0.1266  0.2373  0.4275
18002TIP3    H175497   5.865   0.200   0.987 -0.0859 -0.7434 -0.7108
18002TIP3    H275498   5.976   0.149   0.897  2.1452  0.0385  1.4969
18003TIP3   OH275499   1.277   5.450  13.548 -0.2415  0.2057 -0.0912
18003TIP3    H175500   1.304   5.413  13.631  0.4421 -1.2627 -0.9236
18003TIP3    H275501   1.319   5.395  13.482  0.8325  2.4723 -1.4397
18004TIP3   OH275502   1.343   0.279   4.190  0.1552  0.6127 -0.3068
18004TIP3    H175503   1.423   0.317   4.154 -0.1924  0.1690 -1.6097
18004TIP3    H275504   1.291   0.355   4.216  1.0310  0.9008  0.6796
18005TIP3   OH275505   1.305   4.947   1.417  0.1670 -0.0895 -0.6814
18005TIP3    H175506   1.232   4.908   1.465 -1.6087  4.1977  0.5463
18005TIP3    H275507   1.373   4.959   1.483  0.3336 -0.2547 -0.8235
18006TIP3   OH275508   1.793   6.053  16.340  0.1901 -0.1816  0.0543
18006TIP3    H175509   1.701   6.028  16.348  0.1546  0.2967  1.5263
18006TIP3    H275510   1.795   6.144  16.370  1.1265 -0.1535 -0.0819
18007TIP3   OH275511   1.929   4.207   4.109 -0.4953 -0.4150 -0.6182
18007TIP3    H175512   1.869   4.281   4.102 -0.0500  0.0051 -0.0485
18007TIP3    H275513   2.003   4.230   4.052  0.0806  0.0215  0.2822
18008TIP3   OH275514   2.136   4.318   0.043 -0.4828 -0.9731 -0.5410
18008TIP3    H175515   2.177   4.234   0.062  1.2500 -0.0841 -0.1596
18008TIP3    H275516   2.193   4.360  -0.021 -0.4448  0.5456  0.4211
18009TIP3   OH275517   5.296   2.636   0.790  0.2375  0.7879  0.0972
18009TIP3    H175518   5.241   2.687   0.730  0.5813  0.5754 -0.3952
18009TIP3    H275519   5.267   2.664   0.877 -1.0340  0.2912 -0.1343
18010TIP3   OH275520   5.781   6.361  12.020  0.3457 -0.5910  0.5907
18010TIP3    H175521   5.711   6.334  11.960  1.3744 -1.5560 -0.2112
18010TIP3    H275522   5.830   6.281  12.037  2.4124  0.4036 -0.3883
18011TIP3   OH275523   5.043   4.642   0.681 -0.1800 -0.0310  0.0877
18011TIP3    H175524   5.080   4.555   0.701 -0.7895 -0.6180 -1.2344
18011TIP3    H275525   5.085   4.667   0.599 -2.0783 -0.3517 -1.0308
18012TIP3   OH275526   1.542   4.585   1.743  0.1310 -0.0552 -0.1671
18012TIP3    H175527   1.601   4.510   1.747 -0.1552 -0.2544  0.5931
18012TIP3    H275528   1.574   4.637   1.670  1.3080 -0.1045  0.2882
18013TIP3   OH275529   2.903   3.934  11.930 -0.1816  0.9684 -0.2235
18013TIP3    H175530   2.981   3.945  11.875 -0.0301 -1.8329 -0.7186
18013TIP3    H275531   2.923   3.982  12.010  1.3934  1.5849 -0.9450
18014TIP3   OH275532   3.758   0.179   3.781  0.5681  0.5273  0.4758
18014TIP3    H175533   3.789   0.092   3.758 -0.6885 -0.3837  2.0661
18014TIP3    H275534   3.685   0.195   3.722  0.0937  0.0226  0.9194
18015TIP3   OH275535   2.367   0.812  16.548  0.2350  0.6761 -0.0690
18015TIP3    H175536   2.383   0.902  16.519  0.3477  1.3471  1.9699
18015TIP3    H275537   2.449   0.785  16.590 -0.5235  0.4526  1.3268
18016TIP3   OH275538   5.556   6.723   4.901 -0.0507  0.1477 -0.0721
18016TIP3    H175539   5.557   6.712   4.996  1.0495 -0.2585 -0.1174
18016TIP3    H275540   5.629   6.781   4.883 -1.1392  1.4269 -0.5557
18017TIP3   OH275541   2.543   1.533   6.124 -0.9960 -0.2433 -0.6667
18017TIP3    H175542   2.449   1.554   6.128 -1.2680 -1.4976 -0.1385
18017TIP3    H275543   2.552   1.452   6.174  0.7075  0.9294  1.0780
18018TIP3   OH275544   5.525   3.724   3.273 -0.1750 -0.6149  0.6006
18018TIP3    H175545   5.543   3.780   3.199 -1.5517 -0.4336  0.3868
18018TIP3    H275546   5.596   3.742   3.335  0.6839 -0.3827 -0.4357
18019TIP3   OH275547   5.354   0.108  11.820 -0.4075  0.4046 -0.0876
18019TIP3    H175548   5.283   0.112  11.883 -1.9236  0.8021 -1.7273
18019TIP3    H275549   5.355   0.017  11.791  1.7578 -0.3339  2.0224
18020TIP3   OH275550   3.075   6.799   2.079  0.1857  0.0692 -0.3237
18020TIP3    H175551   3.019   6.794   2.157  0.0681  1.3128 -0.3069
18020TIP3    H275552   3.162   6.818   2.113  0.3701 -0.5527 -0.4350
18021TIP3   OH275553   2.661   0.625   2.674  0.1321  0.2809  0.0773
18021TIP3    H175554   2.639   0.533   2.656  4.5501 -0.9893  0.0936
18021TIP3    H275555   2.643   0.670   2.591 -0.7371 -0.8762 -0.3935
18022TIP3   OH275556   3.954   3.957  11.260 -0.6745 -0.6035  0.7162
18022TIP3    H175557   3.879   3.987  11.312  0.2496 -0.3131  1.9129
18022TIP3    H275558   4.025   3.948  11.323  0.5965  0.1507 -0.5551
18023TIP3   OH275559   0.997   3.072  15.444  0.8081 -0.6449  0.6982
18023TIP3    H175560   0.904   3.086  15.459  1.0350  0.3081  1.2402
18023TIP3    H275561   1.037   3.075  15.531  1.0165 -3.8805  0.8333
18024TIP3   OH275562   5.957   3.604  16.594 -0.0666 -0.6069  0.1388
18024TIP3    H175563   5.956   3.561  16.680 -0.3075  1.5467  1.2853
18024TIP3    H275564   5.959   3.697  16.615  0.6617 -0.0464 -2.2300
18025TIP3   OH275565   5.793   1.815   6.446  0.3563  0.2456 -0.2568
18025TIP3    H175566   5.709   1.815   6.400  0.7943  0.5507 -1.0975
18025TIP3    H275567   5.776   1.770   6.528 -0.1670 -1.4872 -1.2655
18026TIP3   OH275568   1.288   0.410  15.462  0.0707 -0.2300 -0.9930
18026TIP3    H175569   1.307   0.492  15.417  0.6311 -0.0869 -0.5140
18026TIP3    H275570   1.326   0.342  15.407  2.7390  0.0902  0.2740
18027TIP3   OH275571   2.342   3.839   4.560  0.0456  0.2199  0.3291
18027TIP3    H175572   2.407   3.887   4.508  2.3947 -1.0453  1.9262
18027TIP3    H275573   2.347   3.749   4.528 -1.0859  0.1228  0.3816
18028TIP3   OH275574   1.466   5.000   1.970  0.2566 -0.1043  1.0929
18028TIP3    H175575   1.436   4.943   2.041  0.9850  0.6125  2.0135
18028TIP3    H275576   1.520   4.944   1.914 -1.2019 -0.9435  0.4730
18029TIP3   OH275577   1.782   3.806  15.481 -0.3619 -0.7368  0.1303
18029TIP3    H175578   1.753   3.764  15.400  0.0313  0.7552 -0.8230
18029TIP3    H275579   1.756   3.745  15.550 -1.5502 -1.6034 -1.0349
18030TIP3   OH275580   0.714   0.914  15.553 -0.7943  0.3665  0.2858
18030TIP3    H175581   0.627   0.892  15.520 -0.4967  0.7869 -0.8319
18030TIP3    H275582   0.718   0.874  15.640 -2.3013  0.8040  0.5791
18031TIP3   OH275583   0.432   4.962  13.504 -0.3833 -0.4168  0.2989
18031TIP3    H175584   0.481   5.009  13.571  0.6658 -2.2695  0.8998
18031TIP3    H275585   0.345   5.002  13.505 -1.0420 -1.6228  4.1579
18032TIP3   OH275586   2.108   6.796  13.915 -0.0155  0.2360  0.0003
18032TIP3    H175587   2.068   6.857  13.978 -1.2634 -1.0949  0.5390
18032TIP3    H275588   2.035   6.743  13.883  1.1003 -1.3359 -0.0535
18033TIP3   OH275589   5.360   1.831  14.909  0.6683  0.2034  0.2656
18033TIP3    H175590   5.348   1.895  14.979  0.0040  1.8781 -1.2965
18033TIP3    H275591   5.271   1.809  14.882  0.8922 -1.3058  0.6576
18034TIP3   OH275592   0.606   5.915   1.298 -0.6089  0.5541  0.1148
18034TIP3    H175593   0.653   5.994   1.274 -0.5757 -0.0975 -2.1667
18034TIP3    H275594   0.520   5.924   1.258 -0.9293 -0.1653  0.6026
18035TIP3   OH275595   0.603   4.948  12.076  0.3503 -0.0786 -0.2116
18035TIP3    H175596   0.518   4.985  12.100 -1.7121 -3.0158 -2.2601
18035TIP3    H275597   0.627   4.894  12.151  0.3910  0.6947  0.3466
18036TIP3   OH275598   1.900   2.698   3.256  0.3095 -0.0926  1.0334
18036TIP3    H175599   1.825   2.653   3.217  0.6238 -0.2896  0.6513
18036TIP3    H275600   1.977   2.655   3.218  0.6761  2.4835 -1.4626
18037TIP3   OH275601   4.411   3.812   5.650 -0.3351 -0.1015 -0.4040
18037TIP3    H175602   4.496   3.791   5.689  0.5448 -0.5320 -2.4227
18037TIP3    H275603   4.388   3.897   5.687  0.5535 -0.3859  0.8404
18038TIP3   OH275604   1.099   0.109   4.245 -0.0103 -0.3201 -1.0250
18038TIP3    H175605   1.109   0.035   4.305 -0.5063 -0.9898 -1.7454
18038TIP3    H275606   1.181   0.110   4.196  0.1251 -0.1916 -0.7978
18039TIP3   OH275607   4.950   4.918   1.104 -0.6446 -0.4195 -0.1481
18039TIP3    H175608   4.941   5.011   1.123 -0.3604 -0.7259  1.6583
18039TIP3    H275609   4.867   4.880   1.132  0.4727 -1.1531  2.4769
18040TIP3   OH275610   1.280   3.424  11.763  0.1996 -0.1382 -0.5866
18040TIP3    H175611   1.215   3.488  11.791 -0.2342 -0.3924 -0.9954
18040TIP3    H275612   1.239   3.378  11.690  1.1271  0.1816 -1.3215
18041TIP3   OH275613   3.001   4.631   2.350  0.1569  0.0736 -0.3010
18041TIP3    H175614   2.933   4.564   2.355  0.3694 -0.0910  0.4269
18041TIP3    H275615   3.006   4.667   2.438 -0.0075  1.1069 -0.6919
18042TIP3   OH275616   0.201   4.860  15.579  0.1162 -0.1222  0.3842
18042TIP3    H175617   0.216   4.954  15.570 -1.5722  0.0721 -0.8179
18042TIP3    H275618   0.176   4.831  15.491 -3.7148 -0.8357  1.5421
18043TIP3   OH275619   6.728   5.728   4.269 -0.6176 -0.2512  0.1244
18043TIP3    H175620   6.803   5.763   4.315 -0.4436  0.5378 -0.7205
18043TIP3    H275621   6.727   5.775   4.185 -0.8720 -1.6706 -0.7115
18044TIP3   OH275622   5.172   3.753   1.852 -1.1482 -0.1396 -0.1634
18044TIP3    H175623   5.223   3.706   1.919 -1.0175 -0.3518 -0.4118
18044TIP3    H275624   5.194   3.845   1.867  1.2626 -0.3379 -1.7921
18045TIP3   OH275625   1.237   6.767   1.886  0.0432  0.5619 -0.5335
18045TIP3    H175626   1.269   6.852   1.916 -1.2560  1.2383 -0.9896
18045TIP3    H275627   1.238   6.774   1.791  2.6042 -0.9878 -0.7341
18046TIP3   OH275628   1.367   4.981   4.152  0.4045  0.5052  0.0969
18046TIP3    H175629   1.329   4.982   4.064  3.8182  1.1019 -1.5612
18046TIP3    H275630   1.344   4.895   4.187  1.6526 -1.1757 -2.7990
18047TIP3   OH275631   3.551   0.131  11.634 -0.7686 -0.2238  0.1577
18047TIP3    H175632   3.541   0.061  11.698 -1.8495  0.1096  0.3709
18047TIP3    H275633   3.486   0.111  11.566 -1.5566  0.9161  0.5446
18048TIP3   OH275634   6.016   3.725   3.571 -0.6269  0.4267  0.0232
18048TIP3    H175635   6.001   3.705   3.479 -0.6632  1.7066 -0.2669
18048TIP3    H275636   6.086   3.665   3.598  1.4837  1.9664 -1.6372
18049TIP3   OH275637   0.905   1.603   2.026  0.1395 -0.4399 -0.8420
18049TIP3    H175638   0.908   1.613   2.121 -0.1457 -1.6807 -0.6848
18049TIP3    H275639   0.831   1.657   1.998 -0.1670 -0.5654 -0.2876
18050TIP3   OH275640   1.510   6.051   0.747 -0.0957 -0.1374 -0.1942
18050TIP3    H175641   1.568   6.121   0.716  0.1394  1.2431  3.0247
18050TIP3    H275642   1.570   5.985   0.782 -0.4119 -0.6456 -0.5924
18051TIP3   OH275643   3.386   4.363  15.525 -0.3865  0.3663 -0.4040
18051TIP3    H175644   3.391   4.322  15.611  1.0435 -1.0651 -1.1134
18051TIP3    H275645   3.296   4.397  15.520 -0.0620  1.8576  2.1890
18052TIP3   OH275646   1.276   0.366  15.928 -0.0250 -0.4622  0.1798
18052TIP3    H175647   1.359   0.404  15.954 -0.4644 -1.1729  2.9873
18052TIP3    H275648   1.213   0.401  15.991 -1.9905  0.3740 -2.1159
18053TIP3   OH275649   5.815   5.096  11.259  0.1897  0.1905  0.3296
18053TIP3    H175650   5.854   5.061  11.179  0.2422 -0.3150  0.5714
18053TIP3    H275651   5.862   5.178  11.274  3.2186 -1.6707  2.1404
18054TIP3   OH275652   4.867   1.626   1.622 -0.5310 -0.0868 -0.6072
18054TIP3    H175653   4.858   1.572   1.543  2.5096 -1.4084 -0.1885
18054TIP3    H275654   4.856   1.564   1.695 -0.1613  0.4807 -0.0622
18055TIP3   OH275655   6.782   4.905  15.088 -0.1561  0.2153 -0.0228
18055TIP3    H175656   6.732   4.849  15.028  1.1299  1.0474 -1.9611
18055TIP3    H275657   6.845   4.847  15.129 -1.1940 -0.4054  0.7470
18056TIP3   OH275658   0.633   4.162  11.160  0.0862  0.3706 -0.6678
18056TIP3    H175659   0.543   4.171  11.191  0.3645  0.4570  0.1416
18056TIP3    H275660   0.678   4.115  11.231  0.6051  0.0535 -1.1970
18057TIP3   OH275661   1.155   6.173  16.833 -0.0220  0.1888  0.3917
18057TIP3    H175662   1.187   6.252  16.788  0.0593 -0.1509 -0.1621
18057TIP3    H275663   1.138   6.201  16.923 -1.6853  1.2895 -0.2213
18058TIP3   OH275664   3.388   4.325  15.799  0.3322 -0.1468  0.4721
18058TIP3    H175665   3.431   4.293  15.878 -1.0139  1.1224  1.7796
18058TIP3    H275666   3.311   4.373  15.831  0.6240  1.7894 -1.5095
18059TIP3   OH275667   5.344   6.772   2.791  0.7287  0.0438 -0.0505
18059TIP3    H175668   5.266   6.717   2.781 -0.0873  0.7433  1.8805
18059TIP3    H275669   5.410   6.714   2.829 -0.4068  0.4961  2.8194
18060TIP3   OH275670   5.615   5.997  11.531  0.5782 -0.3781  0.1655
18060TIP3    H175671   5.563   5.958  11.601  1.0581  0.8894  1.2637
18060TIP3    H275672   5.632   5.924  11.471 -2.7606 -0.7849 -0.4912
18061TIP3   OH275673   4.723   2.088  11.113 -0.2293 -0.0986  0.3697
18061TIP3    H175674   4.768   2.008  11.140 -2.7958 -0.9195  2.6925
18061TIP3    H275675   4.716   2.081  11.018  1.6064 -1.4751  0.2849
18062TIP3   OH275676   4.425   4.876  12.516 -0.5206 -0.1100  0.0232
18062TIP3    H175677   4.427   4.794  12.565 -0.6610 -0.8628 -1.2190
18062TIP3    H275678   4.486   4.933  12.563 -1.0352 -0.6325  1.3723
18063TIP3   OH275679   4.815   6.543   1.476 -0.1870  0.5771  0.0281
18063TIP3    H175680   4.754   6.477   1.507 -1.2304  0.9777 -1.0754
18063TIP3    H275681   4.881   6.494   1.427  0.3723  0.1452  1.1837
18064TIP3   OH275682   0.771   5.344   0.263 -0.1248  0.5823  0.2876
18064TIP3    H175683   0.829   5.335   0.339 -1.3537  2.6966  1.5892
18064TIP3    H275684   0.707   5.409   0.291 -2.7030 -1.1111 -1.3600
18065TIP3   OH275685   5.763   1.801  17.275  0.2692 -0.3762 -0.2499
18065TIP3    H175686   5.798   1.759  17.197 -0.1824 -0.7780 -0.2430
18065TIP3    H275687   5.836   1.851  17.311  0.1830  0.7159 -1.5314
18066TIP3   OH275688   3.667   1.876   5.134 -0.2363  0.3055 -0.0092
18066TIP3    H175689   3.618   1.875   5.052  0.4077  0.3333 -0.4059
18066TIP3    H275690   3.624   1.812   5.190 -0.7930  0.4204 -0.3028
18067TIP3   OH275691   2.154   5.269  13.577  0.0363  0.4397  0.1774
18067TIP3    H175692   2.120   5.186  13.612 -0.8527 -0.7030 -3.0658
18067TIP3    H275693   2.247   5.254  13.565  0.6586  1.3183  2.9805
18068TIP3   OH275694   0.794   1.276  14.236  0.0932  0.0626  0.4693
18068TIP3    H175695   0.765   1.197  14.280 -0.9616  0.3839  0.3795
18068TIP3    H275696   0.761   1.347  14.291  1.4028  0.4503  0.7883
18069TIP3   OH275697   3.087   1.395  17.117  0.2713  0.3778  0.7796
18069TIP3    H175698   3.091   1.318  17.174 -1.5049 -2.3162 -2.3683
18069TIP3    H275699   3.012   1.444  17.149  0.0217 -0.4149  1.4578
18070TIP3   OH275700   1.970   0.683   2.566  0.2171  0.2147  0.2553
18070TIP3    H175701   1.925   0.605   2.596 -0.6017  0.6332  0.1344
18070TIP3    H275702   2.033   0.703   2.636 -0.4436  0.1723  0.8678
18071TIP3   OH275703   0.214   6.023   3.678  0.6328  0.0602 -0.2486
18071TIP3    H175704   0.164   6.101   3.701 -1.3809 -0.6248 -1.9360
18071TIP3    H275705   0.230   6.031   3.585  2.9560 -0.2117  0.0795
18072TIP3   OH275706   2.539   2.526   0.638 -0.2587  0.0422  0.6914
18072TIP3    H175707   2.618   2.508   0.689 -0.6737  0.1655  1.3951
18072TIP3    H275708   2.531   2.450   0.580  1.8484  1.2436 -1.3528
18073TIP3   OH275709   3.837   6.500   4.726 -0.1148 -0.5723 -0.1138
18073TIP3    H175710   3.907   6.536   4.671  0.9192 -1.1493  0.7902
18073TIP3    H275711   3.881   6.477   4.808 -1.3777 -0.9354  0.4763
18074TIP3   OH275712   4.826   3.080  12.063  0.1684  0.0713 -0.7165
18074TIP3    H175713   4.882   3.138  12.116 -1.1009  2.4551 -1.8530
18074TIP3    H275714   4.737   3.102  12.090 -0.3878 -0.6007 -1.9534
18075TIP3   OH275715   5.027   2.713  11.574  0.0722 -0.3369  0.5787
18075TIP3    H175716   5.083   2.742  11.502  0.1874  0.3591  0.9430
18075TIP3    H275717   5.040   2.619  11.578  3.1349  0.0098  2.2105
18076TIP3   OH275718   1.504   1.230   3.511  0.3019 -0.0024 -0.3603
18076TIP3    H175719   1.419   1.241   3.553  0.1410 -1.3901 -0.2570
18076TIP3    H275720   1.550   1.312   3.527 -0.0955 -0.1306  1.7363
18077TIP3   OH275721   2.398   3.447   0.422 -0.0126 -0.3297  0.6257
18077TIP3    H175722   2.490   3.473   0.420  0.8494 -3.0651 -1.1671
18077TIP3    H275723   2.397   3.366   0.471 -1.6185  0.0186  1.2263
18078TIP3   OH275724   1.517   2.946  10.713  0.1373  0.1690  0.2047
18078TIP3    H175725   1.480   2.865  10.750 -0.9094  1.3656  1.9431
18078TIP3    H275726   1.480   2.951  10.625 -4.5777  1.5154  1.9265
18079TIP3   OH275727   6.733   5.314   3.198  0.1903 -0.1638  0.0312
18079TIP3    H175728   6.703   5.295   3.110 -3.2933  0.7052  0.8716
18079TIP3    H275729   6.741   5.229   3.240  0.8770 -0.5231 -0.7973
18080TIP3   OH275730   3.630   5.348   2.971 -0.3670  0.5184 -0.7460
18080TIP3    H175731   3.700   5.412   2.954  0.8883 -0.4888  0.3960
18080TIP3    H275732   3.673   5.278   3.020 -1.9182 -0.7619 -1.1327
18081TIP3   OH275733   1.797   2.258  12.919  0.2283  0.2073  0.4390
18081TIP3    H175734   1.831   2.197  12.854 -1.1131 -0.2937  0.1724
18081TIP3    H275735   1.760   2.330  12.868  1.2232  0.9454  0.7338
18082TIP3   OH275736   2.834   3.747   0.751  0.6645  0.0615  0.1321
18082TIP3    H175737   2.850   3.721   0.661  0.2582 -0.9599  0.3424
18082TIP3    H275738   2.812   3.666   0.797  0.1790  0.6557  0.9968
18083TIP3   OH275739   0.161   5.089  13.483 -0.6072  0.0115 -0.0732
18083TIP3    H175740   0.076   5.048  13.470 -1.3718  1.8113 -0.9115
18083TIP3    H275741   0.160   5.117  13.575 -1.3060  0.8755 -0.3383
18084TIP3   OH275742   3.092   3.689  15.508  0.1805  0.9305 -0.1309
18084TIP3    H175743   3.046   3.662  15.587 -1.0248 -1.0974 -1.4325
18084TIP3    H275744   3.023   3.722  15.450  0.5358 -0.6203 -1.4996
18085TIP3   OH275745   6.355   5.948  16.089 -0.5285 -0.3169 -0.0878
18085TIP3    H175746   6.384   6.037  16.070 -0.2874 -0.4875 -0.5213
18085TIP3    H275747   6.353   5.943  16.185  0.8274 -0.2833 -0.0431
18086TIP3   OH275748   3.707   3.086  15.095  0.3904  0.0536  0.0564
18086TIP3    H175749   3.717   2.991  15.090  1.7634  0.0247  2.1062
18086TIP3    H275750   3.614   3.100  15.113 -0.4754 -0.6590 -3.1795
18087TIP3   OH275751   0.344   6.038  14.421 -0.0238 -0.4783 -0.4148
18087TIP3    H175752   0.255   6.007  14.434  0.1121 -2.0493 -2.7313
18087TIP3    H275753   0.390   6.010  14.500 -1.2162 -1.0533  0.1044
18088TIP3   OH275754   0.874   2.963  13.006  0.6335  0.0392 -0.1001
18088TIP3    H175755   0.871   2.974  12.911 -1.3588 -0.3888 -0.1309
18088TIP3    H275756   0.895   3.050  13.040 -1.9964  1.0603 -0.8406
18089TIP3   OH275757   1.823   0.254  15.986 -0.1156 -0.1784  0.1994
18089TIP3    H175758   1.844   0.322  16.050 -1.5870  0.5181 -0.0140
18089TIP3    H275759   1.812   0.175  16.039 -1.1756  0.3584  0.8288
18090TIP3   OH275760   1.911   5.788   5.107 -0.0242  0.2514  0.2650
18090TIP3    H175761   1.996   5.829   5.088 -1.0427  0.8212 -4.0288
18090TIP3    H275762   1.850   5.861   5.116 -0.6957 -0.2107 -0.4859
18091TIP3   OH275763   5.370   1.810   3.767 -0.1202  0.1003 -0.0473
18091TIP3    H175764   5.318   1.828   3.688 -0.3370 -1.3587 -0.2674
18091TIP3    H275765   5.461   1.809   3.736 -0.1195  0.6110 -0.0635
18092TIP3   OH275766   4.633   4.782   4.493  0.0504  0.2779 -0.4502
18092TIP3    H175767   4.595   4.801   4.579 -1.0218 -0.8908 -0.6329
18092TIP3    H275768   4.712   4.733   4.511  1.4975  2.6002 -0.0636
18093TIP3   OH275769   4.155   2.047  13.927  0.4407  0.1984  0.2068
18093TIP3    H175770   4.158   2.131  13.881  1.6693  0.2514  0.3526
18093TIP3    H275771   4.067   2.044  13.965 -0.0913  0.8055 -0.9149
18094TIP3   OH275772   3.964   0.343   1.428  0.2350 -0.0627 -0.3085
18094TIP3    H175773   3.974   0.333   1.523  4.4723 -1.2203 -0.6354
18094TIP3    H275774   3.992   0.433   1.411 -0.4692  0.1253 -0.4934
18095TIP3   OH275775   1.693   0.752   0.246  0.1004  0.5974 -0.2747
18095TIP3    H175776   1.662   0.748   0.156  0.1504  0.6531 -0.2941
18095TIP3    H275777   1.672   0.666   0.283 -0.6064  0.8328 -0.1162
18096TIP3   OH275778   3.184   4.466  11.983  0.2576  0.3343  0.3255
18096TIP3    H175779   3.139   4.455  11.899 -1.7141 -0.3904  1.3969
18096TIP3    H275780   3.177   4.560  12.002  1.5281  0.6636 -0.7054
18097TIP3   OH275781   6.350   0.835   1.454 -0.0512 -0.3099  0.0265
18097TIP3    H175782   6.388   0.880   1.378  1.5707 -2.0860 -0.2950
18097TIP3    H275783   6.412   0.851   1.525  0.6064 -2.0302 -0.1155
18098TIP3   OH275784   2.569   4.774   2.175 -0.4371  0.2255 -0.6687
18098TIP3    H175785   2.534   4.862   2.162  0.4029  0.6322 -0.1944
18098TIP3    H275786   2.662   4.780   2.153 -0.6788 -0.9263 -2.2315
18099TIP3   OH275787   0.530   5.024  16.647 -0.4647  0.3524  0.0328
18099TIP3    H175788   0.601   5.038  16.585 -2.2948  0.5284 -2.1441
18099TIP3    H275789   0.574   5.014  16.732  2.0399  1.8936 -0.9565
18100TIP3   OH275790   6.213   2.018  11.325 -0.2387 -0.0288  0.6970
18100TIP3    H175791   6.250   2.087  11.270 -1.7880 -0.5439 -1.0791
18100TIP3    H275792   6.229   1.937  11.277 -0.1704 -0.7123  1.8178
18101TIP3   OH275793   3.853   3.732  12.815 -0.1241 -0.1464  0.6523
18101TIP3    H175794   3.910   3.701  12.745 -1.7491 -0.3369 -0.6545
18101TIP3    H275795   3.765   3.729  12.778 -1.4275 -2.5552  3.4526
18102TIP3   OH275796   6.732   3.139   5.271 -0.1181  0.1540 -0.1847
18102TIP3    H175797   6.780   3.222   5.274  2.2446 -1.1196  0.5832
18102TIP3    H275798   6.678   3.145   5.193  0.5335  2.1205 -0.5527
18103TIP3   OH275799   3.537   1.662  15.418 -0.5790 -0.1046 -0.5543
18103TIP3    H175800   3.530   1.637  15.511  0.7052 -0.4396 -0.5143
18103TIP3    H275801   3.477   1.735  15.408 -0.6481  0.0235  0.5829
18104TIP3   OH275802   1.318   0.457  13.235 -0.3790  0.0695 -0.2708
18104TIP3    H175803   1.286   0.494  13.152  0.7898  1.4446 -0.1617
18104TIP3    H275804   1.353   0.533  13.282 -0.5200 -0.7797  1.2474
18105TIP3   OH275805   1.095   1.789  11.038  0.2778 -0.5005  0.2993
18105TIP3    H175806   1.147   1.763  11.114 -1.2724 -1.1495  1.1786
18105TIP3    H275807   1.137   1.869  11.006  1.8282 -1.0246  0.9273
18106TIP3   OH275808   4.854   1.215   5.047  0.7284 -0.0841  0.0119
18106TIP3    H175809   4.803   1.167   5.112  0.3641 -0.0151 -0.2208
18106TIP3    H275810   4.944   1.210   5.079  0.3289  1.6605  1.6026
18107TIP3   OH275811   3.914   0.600   1.265 -0.0327 -0.0509 -0.0914
18107TIP3    H175812   3.876   0.515   1.243  0.8071 -0.4277 -0.1048
18107TIP3    H275813   3.862   0.663   1.215  0.8370 -0.7495 -1.9392
18108TIP3   OH275814   6.409   6.572  11.631 -0.6469  0.5989 -0.3122
18108TIP3    H175815   6.407   6.513  11.706  0.9976  0.4294 -0.3681
18108TIP3    H275816   6.448   6.520  11.561 -0.1987  1.4057 -0.6751
18109TIP3   OH275817   4.451   6.681  14.182  0.2705 -0.4160 -0.1050
18109TIP3    H175818   4.416   6.597  14.152  0.0920 -0.3426 -0.1058
18109TIP3    H275819   4.374   6.737  14.190  0.2154 -0.6333  1.1309
18110TIP3   OH275820   0.690   6.300  12.842  0.3830  0.5049  0.1825
18110TIP3    H175821   0.659   6.238  12.908  0.1122  1.1985  0.7105
18110TIP3    H275822   0.614   6.319  12.788  0.0103  1.7267  1.0997
18111TIP3   OH275823   4.972   0.884  16.190 -0.5184 -0.3725  0.9609
18111TIP3    H175824   4.968   0.978  16.175 -0.7260 -0.2098  1.9484
18111TIP3    H275825   4.880   0.857  16.197 -0.5135 -0.9112 -0.7747
18112TIP3   OH275826   2.319   1.873   5.183 -0.7445  0.4638 -0.0656
18112TIP3    H175827   2.225   1.854   5.182 -0.8221  0.1356 -3.9737
18112TIP3    H275828   2.324   1.968   5.190 -1.2515  0.3953  1.5467
18113TIP3   OH275829   0.681   6.017  16.221 -0.3708  0.0041  0.4647
18113TIP3    H175830   0.740   5.946  16.196  0.6173  1.2252 -0.8875
18113TIP3    H275831   0.631   6.035  16.141 -1.3449  0.1392  1.0960
18114TIP3   OH275832   4.195   4.561   0.509  0.2360 -0.5934 -0.3726
18114TIP3    H175833   4.168   4.608   0.431  3.0385 -0.7051 -1.5098
18114TIP3    H275834   4.117   4.511   0.535 -1.2830  0.7850 -2.0311
18115TIP3   OH275835   6.690   5.607   1.313  0.1888 -0.5845  0.6386
18115TIP3    H175836   6.605   5.564   1.322 -0.6004  0.3788 -1.5341
18115TIP3    H275837   6.670   5.690   1.271  2.4346 -1.5597 -2.7553
18116TIP3   OH275838   3.733   2.844  13.593 -0.5223  0.1583 -0.0768
18116TIP3    H175839   3.721   2.938  13.581 -1.0213  0.1298  0.1634
18116TIP3    H275840   3.717   2.807  13.506  0.6634  0.3717 -0.4086
18117TIP3   OH275841   4.159   0.350  13.462  0.0930  0.2330  0.0241
18117TIP3    H175842   4.198   0.351  13.374  0.0958  2.5381 -0.0193
18117TIP3    H275843   4.077   0.398  13.453  0.2634  0.8253  1.3370
18118TIP3   OH275844   4.688   4.571  11.718 -0.0704  0.3933 -0.1299
18118TIP3    H175845   4.641   4.550  11.799  0.5348 -0.8504 -0.0851
18118TIP3    H275846   4.759   4.628  11.746  0.3903 -0.3714  0.2876
18119TIP3   OH275847   2.811   3.534  15.447  0.4814 -0.2738  0.2707
18119TIP3    H175848   2.822   3.627  15.425 -0.1492 -0.1479  0.4766
18119TIP3    H275849   2.893   3.493  15.419 -0.2423 -0.1399 -2.3264
18120TIP3   OH275850   1.967   0.194   3.141 -0.0395  0.3090  0.1791
18120TIP3    H175851   1.910   0.156   3.075  0.9355 -0.6577 -0.1368
18120TIP3    H275852   1.979   0.124   3.206  0.8752  0.4447  0.1703
18121TIP3   OH275853   0.836   3.591  10.483 -0.7705 -0.3317 -0.0686
18121TIP3    H175854   0.897   3.520  10.500 -1.6667 -0.8173  1.2732
18121TIP3    H275855   0.830   3.596  10.387  2.8414  1.0436 -0.3796
18122TIP3   OH275856   1.099   2.048  13.005  0.0958  0.8635 -0.3896
18122TIP3    H175857   1.018   2.051  12.954 -0.4035 -0.2667  0.2939
18122TIP3    H275858   1.135   1.962  12.987  0.7560  1.0741 -0.0980
18123TIP3   OH275859   6.047   0.050   3.635  0.1368  0.0621  0.5624
18123TIP3    H175860   5.977  -0.015   3.624 -2.6928  2.6496  1.8599
18123TIP3    H275861   6.049   0.066   3.729 -0.2069  2.7186  0.1757
18124TIP3   OH275862   0.975   5.874   2.122 -0.0753 -0.6322  0.1468
18124TIP3    H175863   1.009   5.962   2.106  0.2388 -0.5813  1.0273
18124TIP3    H275864   0.924   5.853   2.044 -1.3213  0.8905  0.4806
18125TIP3   OH275865   4.662   0.422   3.894 -0.3461 -0.7396 -0.5561
18125TIP3    H175866   4.641   0.440   3.986 -0.3818 -0.8736 -0.5373
18125TIP3    H275867   4.756   0.437   3.888 -0.2742 -1.1207 -0.4032
18126TIP3   OH275868   0.724   3.197  17.097  0.0789 -0.2513 -0.2690
18126TIP3    H175869   0.696   3.250  17.022  0.8551 -0.5596 -0.7902
18126TIP3    H275870   0.730   3.260  17.169 -0.3573  0.1120 -0.5413
18127TIP3   OH275871   4.507   1.537  12.716  0.2672  0.5349  0.0680
18127TIP3    H175872   4.449   1.461  12.721 -0.0619  0.7056 -0.9617
18127TIP3    H275873   4.516   1.555  12.623  0.9296  1.3183  0.2670
18128TIP3   OH275874   4.059   0.054  11.816 -0.2203 -0.0457  0.8091
18128TIP3    H175875   4.060   0.097  11.902  0.3310  2.0894 -0.1911
18128TIP3    H275876   3.967   0.059  11.788 -0.1732  0.4703  0.7279
18129TIP3   OH275877   1.136   2.233  13.215  0.4711  0.1103 -0.1290
18129TIP3    H175878   1.106   2.160  13.160 -0.3248 -1.1385  1.8653
18129TIP3    H275879   1.093   2.310  13.178 -0.6389 -0.8039 -0.8127
18130TIP3   OH275880   5.843   0.931  14.431  0.4527  0.3832  0.0412
18130TIP3    H175881   5.921   0.972  14.394  0.4203  1.3696  1.0031
18130TIP3    H275882   5.860   0.837  14.427  1.4533  0.5661 -0.2548
18131TIP3   OH275883   0.390   6.683  13.146 -0.7381 -0.3904  0.5567
18131TIP3    H175884   0.434   6.704  13.064 -1.5718 -0.7706  0.0025
18131TIP3    H275885   0.430   6.742  13.210 -2.6597  2.6088 -0.8283
18132TIP3   OH275886   2.626   2.234   1.307  0.4617  0.0511  0.0211
18132TIP3    H175887   2.562   2.165   1.287 -1.4972  0.9048  2.8521
18132TIP3    H275888   2.585   2.315   1.277  0.4351  0.5448  1.3302
18133TIP3   OH275889   1.591   6.671   0.193  0.1702 -0.5253 -0.3528
18133TIP3    H175890   1.687   6.677   0.193  0.1872  0.0205  1.9758
18133TIP3    H275891   1.561   6.760   0.213 -0.6790 -1.2272  1.8258
18134TIP3   OH275892   4.937   3.254  17.099  0.2102  0.5015  0.8307
18134TIP3    H175893   4.990   3.206  17.035  0.3892  0.8232  0.7322
18134TIP3    H275894   4.969   3.223  17.184 -0.7087 -0.6645  0.7775
18135TIP3   OH275895   2.787   3.166   4.948 -0.4993 -0.2378  0.0610
18135TIP3    H175896   2.732   3.178   5.025  0.9996  1.8232  0.8981
18135TIP3    H275897   2.734   3.199   4.876 -0.7055  0.9557  0.7299
18136TIP3   OH275898   3.920   3.302  13.776  0.1420 -0.1339  0.6242
18136TIP3    H175899   3.833   3.267  13.756 -0.5095  0.5609  2.0801
18136TIP3    H275900   3.931   3.375  13.715 -0.3594 -0.1421  0.5227
18137TIP3   OH275901   1.478   6.086  14.240  0.3791 -0.0544 -0.2386
18137TIP3    H175902   1.500   6.178  14.227  1.9090 -0.2857  0.5656
18137TIP3    H275903   1.459   6.079  14.334 -0.7931 -0.3635 -0.4795
18138TIP3   OH275904   1.345   5.042  12.070 -0.8971 -0.1759  0.0729
18138TIP3    H175905   1.415   5.010  12.127  1.6298  2.1347 -1.4332
18138TIP3    H275906   1.309   4.963  12.029  1.6036 -1.4463  0.1337
18139TIP3   OH275907   0.952   4.035  16.141 -0.3540 -0.5977  0.1927
18139TIP3    H175908   0.925   4.066  16.228  0.7238  0.1661  0.2705
18139TIP3    H275909   0.877   4.055  16.085 -2.0488 -3.2099  1.3237
18140TIP3   OH275910   2.527   1.028   4.457 -0.3135  0.2142  0.0115
18140TIP3    H175911   2.554   1.111   4.417 -0.5565  0.0379 -0.5238
18140TIP3    H275912   2.478   0.983   4.389  0.6522 -0.8081 -0.0339
18141TIP3   OH275913   2.151   2.918   0.052 -0.4563  0.8583  0.1697
18141TIP3    H175914   2.098   2.894   0.127 -0.8798  0.3375 -0.2916
18141TIP3    H275915   2.213   2.845   0.041 -1.0923  0.4236 -0.6260
18142TIP3   OH275916   5.906   4.335   3.429  0.5800 -0.5497  0.5202
18142TIP3    H175917   5.881   4.291   3.510 -0.1832  0.1839  0.7073
18142TIP3    H275918   5.962   4.273   3.383  1.5535 -0.7272  1.9047
18143TIP3   OH275919   0.913   3.143  11.523  0.2364 -0.0715  0.0954
18143TIP3    H175920   0.883   3.089  11.596  1.1245  0.2161  0.6859
18143TIP3    H275921   0.972   3.085  11.474 -1.7682 -0.9015 -1.5108
18144TIP3   OH275922   1.986   5.363  11.339  0.1136  0.0214 -0.1030
18144TIP3    H175923   1.956   5.391  11.253 -1.6943  0.6295  0.6727
18144TIP3    H275924   1.966   5.269  11.343 -2.0444  0.4497  0.4711
18145TIP3   OH275925   2.090   4.570   1.143  0.1449  0.2898 -0.4341
18145TIP3    H175926   2.077   4.658   1.178 -2.0258 -0.2563  0.2691
18145TIP3    H275927   2.087   4.513   1.219  1.6323 -0.4226 -0.8701
18146TIP3   OH275928   1.241   0.175  10.473 -0.6397  0.0137 -0.0938
18146TIP3    H175929   1.155   0.196  10.436  0.2059  1.4892 -1.3738
18146TIP3    H275930   1.303   0.195  10.402  1.0440  2.4369  1.8817
18147TIP3   OH275931   0.653   6.500   5.453  0.1599 -0.3590 -0.7467
18147TIP3    H175932   0.626   6.591   5.462  1.1672 -0.1489  0.5488
18147TIP3    H275933   0.577   6.455   5.417 -1.1738  0.5752  0.7513
18148TIP3   OH275934   0.761   1.725  14.621 -0.4796  0.4164  0.1564
18148TIP3    H175935   0.684   1.693  14.668 -0.1247  0.4422  0.7699
18148TIP3    H275936   0.802   1.646  14.586  0.4101  0.1739  1.6913
18149TIP3   OH275937   4.235   6.419   0.008 -0.1044 -0.2245 -0.1612
18149TIP3    H175938   4.142   6.415  -0.015 -0.2657  2.0634 -0.1437
18149TIP3    H275939   4.280   6.420  -0.076 -0.2329  0.5879 -0.2293
18150TIP3   OH275940   2.174   6.541   4.543 -0.2803 -0.0006 -0.0411
18150TIP3    H175941   2.166   6.469   4.604  1.7841  0.4988  0.9011
18150TIP3    H275942   2.264   6.535   4.510 -1.2582 -0.1786 -2.9755
18151TIP3   OH275943   1.213   1.916   0.845  0.3153  0.2751 -0.5221
18151TIP3    H175944   1.289   1.881   0.798  0.5749  0.7781 -0.4796
18151TIP3    H275945   1.164   1.965   0.778  0.1199  0.0969 -0.5097
18152TIP3   OH275946   5.063   1.077  16.487 -0.0362  0.5413  0.2045
18152TIP3    H175947   5.125   1.099  16.417  1.5794  1.5658  1.8677
18152TIP3    H275948   5.078   0.984  16.504  2.3078  1.0851  1.6366
18153TIP3   OH275949   0.832   5.320   4.880 -0.1472 -0.0290  0.1532
18153TIP3    H175950   0.879   5.354   4.956 -1.4220  0.7293  0.6391
18153TIP3    H275951   0.840   5.389   4.814  2.2072 -1.2887 -0.9870
18154TIP3   OH275952   2.550   3.376  11.985 -0.1333  0.1293 -0.1813
18154TIP3    H175953   2.459   3.401  11.970 -0.7285 -1.8352 -0.0062
18154TIP3    H275954   2.588   3.369  11.897  0.3695  2.5738 -0.2298
18155TIP3   OH275955   4.876   5.025  15.808 -0.5808 -0.2670 -0.4820
18155TIP3    H175956   4.906   5.054  15.895 -0.0351 -1.1114 -0.3725
18155TIP3    H275957   4.902   5.095  15.749 -0.2412 -0.0486 -0.0801
18156TIP3   OH275958   5.337   0.282  10.799  0.4281  0.5803 -0.0252
18156TIP3    H175959   5.242   0.268  10.797  0.6949 -1.4592 -1.1221
18156TIP3    H275960   5.365   0.247  10.884  0.6689 -3.2923 -1.4779
18157TIP3   OH275961   1.086   2.129   1.969 -0.0322 -0.7993 -0.3888
18157TIP3    H175962   1.079   2.200   1.904 -0.4993 -0.8877 -0.4413
18157TIP3    H275963   1.175   2.136   2.003 -0.4355  0.5703  0.4656
18158TIP3   OH275964   1.122   1.608   3.633  0.0287  0.3915 -0.5786
18158TIP3    H175965   1.153   1.669   3.566 -1.4732  1.7670 -0.0958
18158TIP3    H275966   1.070   1.544   3.585  2.4715 -1.2331 -1.2306
18159TIP3   OH275967   5.475   4.753  10.804 -0.6184 -0.0783  0.0060
18159TIP3    H175968   5.404   4.818  10.808 -1.3912 -0.7999 -1.2003
18159TIP3    H275969   5.505   4.757  10.714  0.3867 -0.3149  0.3240
18160TIP3   OH275970   5.514   2.215  14.079 -0.9152  0.2946  0.2927
18160TIP3    H175971   5.469   2.299  14.068 -1.1238  0.2406  0.7091
18160TIP3    H275972   5.459   2.152  14.033 -0.1974  0.5528 -0.9466
18161TIP3   OH275973   5.438   1.206  14.527  0.3229  0.7029 -0.0946
18161TIP3    H175974   5.460   1.113  14.519  0.4936  0.7328  0.0212
18161TIP3    H275975   5.509   1.243  14.580 -0.0358  0.7886  0.3400
18162TIP3   OH275976   0.230   4.938   0.475 -0.3501 -0.2218  0.4797
18162TIP3    H175977   0.239   4.987   0.557 -1.3903  1.6279 -0.4495
18162TIP3    H275978   0.315   4.949   0.432 -0.1386 -0.3565  0.8536
18163TIP3   OH275979   5.867   0.654  16.123 -0.7098  0.1634 -0.1334
18163TIP3    H175980   5.962   0.648  16.132 -0.8770 -0.8639  1.2964
18163TIP3    H275981   5.834   0.656  16.213 -2.0249  1.0193 -0.6067
18164TIP3   OH275982   0.023   3.901   0.844  0.3293 -0.0504  0.4315
18164TIP3    H175983  -0.055   3.955   0.827 -0.4816 -1.5052 -0.6601
18164TIP3    H275984   0.034   3.906   0.939 -0.8845  0.4746  0.5672
18165TIP3   OH275985   1.791   4.030   4.253 -0.6227  0.4862  0.1347
18165TIP3    H175986   1.757   3.966   4.191  2.7950 -2.1880  0.6686
18165TIP3    H275987   1.843   4.090   4.201  1.0451 -0.8793  0.1433
18166TIP3   OH275988   1.219   0.924   0.122  0.6488  0.3926 -0.8459
18166TIP3    H175989   1.146   0.879   0.165  1.4133  0.6712  0.8303
18166TIP3    H275990   1.199   0.920   0.029  0.1831 -2.5638 -0.7118
18167TIP3   OH275991   5.197   2.802  15.195 -0.5709  0.4619 -0.1581
18167TIP3    H175992   5.229   2.714  15.214 -1.1121  0.3963  0.5180
18167TIP3    H275993   5.248   2.859  15.253 -0.4799  0.5527 -0.3257
18168TIP3   OH275994   5.756   4.363  16.892  0.0241 -0.1198 -0.2165
18168TIP3    H175995   5.698   4.290  16.870  1.1061 -0.8025 -0.9295
18168TIP3    H275996   5.756   4.365  16.988  0.9753 -1.9497 -0.1238
18169TIP3   OH275997   1.198   1.870  13.831  0.1428  0.0289  0.1850
18169TIP3    H175998   1.262   1.811  13.871  0.5071  1.9487  2.7096
18169TIP3    H275999   1.251   1.940  13.792 -0.3513  0.0499 -0.4734
18170TIP3   OH276000   5.955   3.914  14.335  0.4576  0.5120 -0.2797
18170TIP3    H176001   5.873   3.962  14.345  0.0460 -0.5629  2.3141
18170TIP3    H276002   5.998   3.956  14.261 -1.6383  2.2332 -0.6358
18171TIP3   OH276003   4.245   5.583  13.155  0.4343  0.1529  0.1176
18171TIP3    H176004   4.257   5.573  13.249  0.3697 -0.7250  0.0394
18171TIP3    H276005   4.158   5.622  13.146  0.8458  1.1886  0.4482
18172TIP3   OH276006   6.272   4.705  16.028 -0.3358 -0.4966  0.2665
18172TIP3    H176007   6.212   4.713  16.102  0.9463  1.3655  1.2075
18172TIP3    H276008   6.342   4.648  16.060 -1.5404 -2.7031 -0.8418
18173TIP3   OH276009   3.089   3.045  12.886 -0.3755  0.4625 -0.0630
18173TIP3    H176010   3.039   2.968  12.912  0.7768 -0.1537  0.4348
18173TIP3    H276011   3.134   3.018  12.805 -1.0590  1.1058 -0.6708
18174TIP3   OH276012   4.548   1.081   5.502  0.2481 -0.1091 -0.0106
18174TIP3    H176013   4.550   0.999   5.552  2.4878 -0.5985 -0.7916
18174TIP3    H276014   4.570   1.148   5.567 -4.3935  0.4797  1.3468
18175TIP3   OH276015   5.801   5.175  17.071  0.4232  0.2585  0.6536
18175TIP3    H176016   5.845   5.244  17.021  0.3785  0.4274  0.8463
18175TIP3    H276017   5.850   5.170  17.153  1.7423 -1.3586 -0.1571
18176TIP3   OH276018   0.887   5.452  14.324  0.2111 -0.0014 -0.4922
18176TIP3    H176019   0.835   5.487  14.252  1.3745  1.7315 -0.5599
18176TIP3    H276020   0.927   5.529  14.364  1.6088 -1.1376  0.4065
18177TIP3   OH276021   0.382   2.426   2.837  0.7112 -0.9112  0.0019
18177TIP3    H176022   0.357   2.442   2.746 -1.0620 -1.2025  0.4042
18177TIP3    H276023   0.458   2.483   2.851 -1.0657  1.8392 -0.6722
18178TIP3   OH276024   1.196   5.734   2.510  0.3906 -0.1760  0.2757
18178TIP3    H176025   1.111   5.702   2.481  0.5934  1.6052 -2.6843
18178TIP3    H276026   1.258   5.666   2.483  0.1325 -0.4807  0.4458
18179TIP3   OH276027   6.331   0.248  16.991  0.5970  0.0134  0.2291
18179TIP3    H176028   6.399   0.182  17.000  0.9722 -0.0155 -2.1664
18179TIP3    H276029   6.249   0.199  17.002  0.9088 -0.1942  1.8063
18180TIP3   OH276030   1.008   4.433  16.576 -0.1693  0.0351 -0.5351
18180TIP3    H176031   0.986   4.501  16.513 -0.7555  1.4631  1.1374
18180TIP3    H276032   1.071   4.377  16.530 -1.4327  0.3116 -2.7675
18181TIP3   OH276033   1.818   2.621  14.459 -0.0564 -0.1817  0.3969
18181TIP3    H176034   1.836   2.677  14.534 -0.5595  0.6480 -0.0868
18181TIP3    H276035   1.766   2.676  14.400  1.5353 -0.3219 -1.2306
18182TIP3   OH276036   2.980   1.251   0.033 -0.6588 -0.0923  0.3652
18182TIP3    H176037   3.003   1.181   0.094 -0.6443 -0.3740  0.0359
18182TIP3    H276038   2.999   1.332   0.081 -1.5655 -0.3032  1.0908
18183TIP3   OH276039   2.217   0.204   3.833 -0.5520  0.6787 -0.0366
18183TIP3    H176040   2.306   0.191   3.799 -0.4207  1.9232 -0.2095
18183TIP3    H276041   2.165   0.224   3.755 -0.4790  2.3910  0.3248
18184TIP3   OH276042   4.018   0.069   0.229 -0.4738 -0.4705  0.3186
18184TIP3    H176043   4.051   0.060   0.139  1.1116 -0.9906  0.9260
18184TIP3    H276044   4.009  -0.022   0.260 -1.2861 -0.3025  0.6110
18185TIP3   OH276045   3.999   6.647  12.224 -0.3295 -0.6443 -0.1088
18185TIP3    H176046   3.958   6.586  12.286 -1.4590 -1.4460 -1.5936
18185TIP3    H276047   3.926   6.679  12.171  0.4878  0.7752 -0.4138
18186TIP3   OH276048   0.302   3.721  14.749  0.4964 -0.6549  0.4564
18186TIP3    H176049   0.355   3.699  14.825  1.5093  0.0315 -0.0360
18186TIP3    H276050   0.354   3.694  14.674  1.5522  2.6386 -0.1654
18187TIP3   OH276051   4.600   1.424  16.122  0.0660  0.8775  0.1687
18187TIP3    H176052   4.542   1.364  16.076  0.6018  1.1929 -0.9722
18187TIP3    H276053   4.679   1.373  16.139 -0.5303  0.4286  1.7774
18188TIP3   OH276054   0.860   1.557   1.636 -0.1642  0.8652 -0.1101
18188TIP3    H176055   0.880   1.558   1.729  3.2899  2.0886 -0.7180
18188TIP3    H276056   0.800   1.483   1.624  1.7734 -1.3297  2.6299
18189TIP3   OH276057   0.292   5.189   1.210  0.2747 -0.0250  0.1761
18189TIP3    H176058   0.387   5.196   1.214  0.2628  1.5905 -1.0637
18189TIP3    H276059   0.260   5.266   1.258 -0.3544  0.1536 -0.4958
18190TIP3   OH276060   1.903   3.300  11.344 -0.2186  0.1463 -0.7715
18190TIP3    H176061   1.854   3.321  11.424 -0.7614 -0.6191 -0.8921
18190TIP3    H276062   1.862   3.353  11.277 -0.5668 -0.1275 -0.7763
18191TIP3   OH276063   0.270   1.322   5.621 -0.4990  0.5156  0.0337
18191TIP3    H176064   0.192   1.372   5.597 -0.8476 -0.9954 -2.4406
18191TIP3    H276065   0.253   1.291   5.710 -3.2358 -0.5215 -0.7384
18192TIP3   OH276066   0.695   4.616  10.326  0.1485 -0.5866  0.0186
18192TIP3    H176067   0.666   4.545  10.269  0.3018 -0.2721 -0.4682
18192TIP3    H276068   0.789   4.600  10.338  0.0558 -0.8291  0.4495
18193TIP3   OH276069   5.375   4.192   0.048 -0.1125  0.6026  0.1431
18193TIP3    H176070   5.326   4.179  -0.033  1.4436  0.8168 -0.8597
18193TIP3    H276071   5.405   4.104   0.072 -0.3967  0.5695  0.3872
18194TIP3   OH276072   5.945   6.205   5.157 -0.4522  0.4542 -0.0037
18194TIP3    H176073   6.037   6.233   5.158 -0.0210 -0.8734  0.8918
18194TIP3    H276074   5.929   6.182   5.065 -0.3690  2.0801 -0.4627
18195TIP3   OH276075   0.962   4.544   3.667 -0.5716  0.6599 -0.1207
18195TIP3    H176076   0.974   4.637   3.651  0.2793  0.1691 -2.8908
18195TIP3    H276077   0.946   4.506   3.581 -1.8084 -1.6635  1.0245
18196TIP3   OH276078   6.818   3.509  14.370 -0.1801 -0.3451 -0.8527
18196TIP3    H176079   6.840   3.429  14.322 -0.9858 -1.6248  0.7903
18196TIP3    H276080   6.902   3.550  14.387  0.4584 -1.8965 -0.0403
18197TIP3   OH276081   4.056   4.386  15.085  0.2050 -0.0384 -0.0017
18197TIP3    H176082   4.095   4.456  15.032 -2.9257  0.1347 -2.3663
18197TIP3    H276083   4.058   4.310  15.027  0.2684 -0.9698  1.1952
18198TIP3   OH276084   2.530   6.461   3.401 -0.4590  0.2777 -0.1235
18198TIP3    H176085   2.508   6.373   3.431 -1.0075  0.2813 -0.4969
18198TIP3    H276086   2.559   6.448   3.311 -0.1129  0.4309 -0.0365
18199TIP3   OH276087   2.832   0.029   2.943  0.1715  0.0425  0.2721
18199TIP3    H176088   2.748  -0.004   2.974  0.7303 -1.9673 -0.1954
18199TIP3    H276089   2.836   0.001   2.851  1.6683 -0.6303  0.5053
18200TIP3   OH276090   3.758   1.983  13.803 -0.0688 -0.2178  0.3210
18200TIP3    H176091   3.828   1.925  13.772  2.1583  1.9794  0.9509
18200TIP3    H276092   3.779   1.998  13.895 -1.0680  0.8950  0.3816
18201TIP3   OH276093   3.746   5.136   2.113 -0.3486 -0.3540  0.2650
18201TIP3    H176094   3.722   5.197   2.183  0.4866 -0.3872  0.5883
18201TIP3    H276095   3.689   5.060   2.127 -0.1247 -0.3994  0.9737
18202TIP3   OH276096   5.992   5.294  14.457 -0.1130 -0.1253  0.4277
18202TIP3    H176097   5.907   5.329  14.429 -1.2083 -1.3844  1.9628
18202TIP3    H276098   6.027   5.252  14.379 -0.0819  1.8508 -0.6808
18203TIP3   OH276099   0.726   4.189  14.979 -0.4282  0.6002 -0.2685
18203TIP3    H176100   0.657   4.123  14.990 -0.6066  0.8938  0.4527
18203TIP3    H276101   0.682   4.272  14.992 -0.1100  0.8406 -0.7114
18204TIP3   OH276102   4.836   1.373   0.907  0.1515  0.8875  0.5820
18204TIP3    H176103   4.809   1.452   0.954  1.7766  0.6391  2.0690
18204TIP3    H276104   4.792   1.302   0.954 -0.4704  0.8216 -0.0891
18205TIP3   OH276105   1.043   5.169  15.596 -0.1976  0.2802  0.4343
18205TIP3    H176106   0.994   5.129  15.668  1.8940 -0.7090  1.3768
18205TIP3    H276107   0.975   5.196  15.534 -1.9755 -0.2718  2.0330
18206TIP3   OH276108   5.252   6.436  14.309 -0.0366 -1.3292  0.2466
18206TIP3    H176109   5.215   6.366  14.363 -0.9516 -1.0820 -0.0355
18206TIP3    H276110   5.206   6.427  14.225 -0.4058 -0.1882  0.3129
18207TIP3   OH276111   1.359   4.919  14.361  0.2812 -0.1891 -0.6383
18207TIP3    H176112   1.361   4.866  14.440 -0.7061 -0.9634 -1.1116
18207TIP3    H276113   1.267   4.943  14.350  0.6868  1.5883 -0.4846
18208TIP3   OH276114   0.066   5.065  16.716  0.5010 -0.0437 -0.6097
18208TIP3    H176115  -0.015   5.016  16.727  0.7381 -0.2562  0.3309
18208TIP3    H276116   0.047   5.128  16.647 -0.0004 -1.0525 -1.4223
18209TIP3   OH276117   3.024   5.258   0.005  0.3995  0.0411 -0.0112
18209TIP3    H176118   2.980   5.339  -0.021  0.0089 -0.5329 -1.1994
18209TIP3    H276119   3.059   5.222  -0.077 -0.2131 -1.4456  0.3429
18210TIP3   OH276120   3.973   5.681  13.122 -0.5977  0.0777  0.0168
18210TIP3    H176121   3.956   5.773  13.103 -1.5646 -0.0967 -0.0325
18210TIP3    H276122   3.896   5.653  13.173 -0.3946 -0.7424 -0.1136
18211TIP3   OH276123   4.692   6.465   3.791  0.5497  0.7271  0.3692
18211TIP3    H176124   4.653   6.515   3.719 -0.2819 -2.5772 -1.6827
18211TIP3    H276125   4.778   6.439   3.759 -0.3649 -1.9715 -0.1944
18212TIP3   OH276126   2.358   2.057  17.030  0.3948 -0.4035 -0.2084
18212TIP3    H176127   2.305   2.041  16.952 -1.4031 -2.2501  1.2863
18212TIP3    H276128   2.418   2.127  17.004 -4.0474  3.4241 -1.4313
18213TIP3   OH276129   4.478   1.318   0.869 -0.3877 -0.6049 -0.0254
18213TIP3    H176130   4.468   1.231   0.908 -0.5928 -0.4965  0.1618
18213TIP3    H276131   4.535   1.365   0.929  1.0555 -1.1271 -0.9442
18214TIP3   OH276132   4.728   2.714   3.654  0.2759  0.4944 -0.2043
18214TIP3    H176133   4.762   2.780   3.594  1.4218 -0.3473 -0.5142
18214TIP3    H276134   4.734   2.632   3.605 -0.1988  0.0121  0.5238
18215TIP3   OH276135   0.830   5.613  11.320 -0.4721 -0.5623  0.2721
18215TIP3    H176136   0.786   5.698  11.326  0.6387 -0.0212  1.3112
18215TIP3    H276137   0.759   5.549  11.314 -1.3647  0.3558  0.7533
18216TIP3   OH276138   1.499   6.716   5.720 -0.0117  0.3194 -0.1306
18216TIP3    H176139   1.452   6.633   5.710  2.1116 -1.1809  1.6252
18216TIP3    H276140   1.471   6.749   5.805  0.3443  0.5988 -0.1219
18217TIP3   OH276141   5.157   1.995  15.646  0.6972 -0.1023  0.2236
18217TIP3    H176142   5.180   2.087  15.661  0.3403 -0.0316  0.3633
18217TIP3    H276143   5.140   1.961  15.734  1.2006 -0.4074  0.2070
18218TIP3   OH276144   4.882   6.349  13.173 -0.2948  0.4196  0.3124
18218TIP3    H176145   4.951   6.307  13.223 -0.0711 -1.0544 -1.1499
18218TIP3    H276146   4.869   6.434  13.216 -0.8091 -1.1117  3.4288
18219TIP3   OH276147   1.372   4.013   3.955 -0.2923  0.6546  0.1244
18219TIP3    H176148   1.437   3.944   3.966 -0.1130  0.3565 -2.3935
18219TIP3    H276149   1.411   4.089   3.997  0.3879 -0.2191  1.1537
18220TIP3   OH276150   6.694   5.706  12.111 -0.8230 -0.1409  0.6698
18220TIP3    H176151   6.632   5.775  12.089 -0.6458  0.0124  0.6434
18220TIP3    H276152   6.693   5.703  12.207 -0.2908  0.4005  0.6957
18221TIP3   OH276153   3.018   3.002   3.683  0.5276  0.4542 -0.1782
18221TIP3    H176154   2.943   2.985   3.626  0.9207  0.8122 -0.8274
18221TIP3    H276155   2.984   3.058   3.753  0.1242  0.3714 -0.3079
18222TIP3   OH276156   6.365   5.852  15.808  0.3746 -0.3422  0.1977
18222TIP3    H176157   6.366   5.855  15.903 -0.8597  0.6457  0.2014
18222TIP3    H276158   6.422   5.778  15.786  1.4145 -0.0025  1.6527
18223TIP3   OH276159   4.530   3.529  14.714  0.0788  0.4010 -0.7187
18223TIP3    H176160   4.448   3.575  14.732  1.0699  1.4257  1.5738
18223TIP3    H276161   4.544   3.474  14.791  1.9648  0.9324 -0.6299
18224TIP3   OH276162   1.917   2.921   2.347 -0.0893  0.1577 -0.0968
18224TIP3    H176163   1.922   3.003   2.297 -0.5213 -0.5920 -1.4166
18224TIP3    H276164   2.006   2.885   2.341 -0.0434  0.2532  0.0039
18225TIP3   OH276165   1.541   3.066  11.832 -0.1139  0.2380  0.2569
18225TIP3    H176166   1.629   3.044  11.801  0.3658 -0.0579  1.7648
18225TIP3    H276167   1.554   3.138  11.893 -1.1417  1.4246 -0.8701
18226TIP3   OH276168   0.380   0.362   0.392  0.0719  0.0486  0.8728
18226TIP3    H176169   0.442   0.298   0.427 -0.6412 -1.4010 -0.4008
18226TIP3    H276170   0.317   0.375   0.463  0.8031  0.1401  1.5181
18227TIP3   OH276171   5.355   1.863  12.189 -0.1539 -0.0049  0.2805
18227TIP3    H176172   5.341   1.826  12.102 -3.3940 -0.5226  0.8746
18227TIP3    H276173   5.376   1.787  12.244  2.3087  0.3730 -0.0336
18228TIP3   OH276174   6.304   3.471   1.606  0.3848 -0.0475 -0.4501
18228TIP3    H176175   6.254   3.542   1.567 -0.3099 -0.5379 -0.4784
18228TIP3    H276176   6.297   3.486   1.701 -0.7474 -0.7074 -0.4064
18229TIP3   OH276177   6.007   5.130  12.809 -0.4376  0.3209  0.1409
18229TIP3    H176178   6.087   5.170  12.775 -0.8706  0.6286 -0.5221
18229TIP3    H276179   5.940   5.198  12.800 -0.4287  0.6887  2.2789
18230TIP3   OH276180   3.144   0.286   1.424 -0.3414 -0.1573 -0.1199
18230TIP3    H176181   3.232   0.294   1.459 -0.4937  0.5785  0.1274
18230TIP3    H276182   3.089   0.335   1.485 -0.7095  0.5621 -0.9891
18231TIP3   OH276183   2.885   3.217  15.690  0.3212 -0.1691  0.1065
18231TIP3    H176184   2.910   3.125  15.694  1.7767  0.2007  0.0971
18231TIP3    H276185   2.967   3.265  15.698 -0.5021  1.1616  1.1993
18232TIP3   OH276186   2.569   5.843   1.720  0.0434  0.4037  0.2600
18232TIP3    H176187   2.560   5.852   1.625  1.1130  0.4828  0.1539
18232TIP3    H276188   2.497   5.785   1.745 -1.7321  2.2459 -0.2461
18233TIP3   OH276189   2.096   4.535  16.939  0.4611  0.1801  0.0544
18233TIP3    H176190   2.180   4.519  16.982  0.6589  2.4071  0.6276
18233TIP3    H276191   2.119   4.551  16.847  0.6443  0.4183  0.1386
18234TIP3   OH276192   4.030   6.273  14.526 -0.1916  0.2483 -0.7486
18234TIP3    H176193   4.013   6.304  14.437  3.3192  2.0559 -0.9960
18234TIP3    H276194   4.039   6.352  14.578  1.1718 -0.6271  0.4430
18235TIP3   OH276195   3.945   2.233  15.101 -0.5321  0.5931 -0.0776
18235TIP3    H176196   3.892   2.198  15.029  0.6212  0.5872 -0.9612
18235TIP3    H276197   3.986   2.156  15.140 -1.0833  0.6066  0.5583
18236TIP3   OH276198   3.644   6.467  14.763  0.6435 -0.3044  0.0219
18236TIP3    H176199   3.621   6.403  14.830 -1.7897 -0.6839 -1.0616
18236TIP3    H276200   3.572   6.529  14.763 -0.1582 -1.0457 -3.0462
18237TIP3   OH276201   4.645   2.362  14.612  0.1632 -0.0132 -0.6252
18237TIP3    H176202   4.581   2.301  14.648  1.2423 -1.8304 -1.6132
18237TIP3    H276203   4.685   2.403  14.689 -0.1640 -1.0283  0.1042
18238TIP3   OH276204   3.876   4.570  14.540  0.6624 -0.1950  0.0063
18238TIP3    H176205   3.961   4.529  14.555  1.0302 -0.1082 -1.6353
18238TIP3    H276206   3.897   4.661  14.517 -0.0020  0.3212  1.3537
18239TIP3   OH276207   4.074   0.636  16.431 -0.4636  0.7010 -0.8462
18239TIP3    H176208   4.153   0.605  16.386 -0.2137 -1.1774  0.7288
18239TIP3    H276209   4.084   0.604  16.521 -0.7862  4.5751  0.7292
18240TIP3   OH276210   6.700   0.705   1.691  0.0628  0.0129  0.0379
18240TIP3    H176211   6.612   0.741   1.687  0.1355  0.6111  2.1690
18240TIP3    H276212   6.689   0.618   1.730  0.3415 -0.2174 -0.3942
18241TIP3   OH276213   0.838   5.557  10.850 -0.1392  0.3950 -0.3769
18241TIP3    H176214   0.763   5.511  10.810  0.9560 -2.0543  0.2080
18241TIP3    H276215   0.900   5.567  10.778  0.9795 -2.1407  0.1598
18242TIP3   OH276216   0.939   4.391   3.403  0.0520 -0.3191 -0.8273
18242TIP3    H176217   0.846   4.412   3.415  0.2704 -0.3563  1.2479
18242TIP3    H276218   0.940   4.297   3.385 -0.3230 -0.2491 -1.2414
18243TIP3   OH276219   0.183   2.872  16.336  0.4019 -0.4519 -0.5572
18243TIP3    H176220   0.270   2.905  16.359  0.7664 -1.7220  0.0260
18243TIP3    H276221   0.124   2.943  16.358  1.2577  0.3237 -0.6704
18244TIP3   OH276222   4.899   5.971   3.441 -0.3112 -0.0395 -0.0455
18244TIP3    H176223   4.919   6.049   3.389  1.4175 -0.5151 -0.1711
18244TIP3    H276224   4.917   5.897   3.383  1.9150 -0.5842  1.2116
18245TIP3   OH276225   6.674   5.021   1.274  0.0311 -0.0157 -0.4669
18245TIP3    H176226   6.605   4.964   1.240  0.6162 -0.0776 -1.5853
18245TIP3    H276227   6.741   5.021   1.206  2.5484 -2.3341  1.7903
18246TIP3   OH276228   2.921   2.820   0.095  0.9912 -0.3876  0.3479
18246TIP3    H176229   2.935   2.735   0.137  1.6971 -1.4168 -1.8244
18246TIP3    H276230   2.895   2.798   0.006 -0.2944  1.7039  0.1515
18247TIP3   OH276231   3.204   3.595   1.180 -0.5156 -0.6692 -0.0631
18247TIP3    H176232   3.140   3.618   1.114  0.4085 -1.5386 -1.3021
18247TIP3    H276233   3.166   3.521   1.227 -2.0083  1.0937  1.7125
18248TIP3   OH276234   3.557   1.998   3.568  0.1435  0.1410 -0.3777
18248TIP3    H176235   3.576   2.014   3.661  2.8004 -0.3734 -0.7629
18248TIP3    H276236   3.528   1.907   3.566  0.9795 -0.1414 -0.1352
18249TIP3   OH276237   3.167   0.290  11.969  0.1878 -0.0925 -0.4110
18249TIP3    H176238   3.194   0.281  11.878  0.4628  0.3122 -0.3753
18249TIP3    H276239   3.147   0.383  11.979  1.2724  0.0889  0.2317
18250TIP3   OH276240   4.470   2.267   1.436 -0.8101 -0.3120  0.7701
18250TIP3    H176241   4.516   2.273   1.353 -0.5114 -1.3983  0.8451
18250TIP3    H276242   4.377   2.266   1.411 -0.7052 -2.8298  0.2481
18251TIP3   OH276243   0.323   3.391   2.041  0.0307  0.0189 -0.1915
18251TIP3    H176244   0.261   3.462   2.025 -0.7250 -0.5717  0.0781
18251TIP3    H276245   0.269   3.313   2.053  0.8912 -0.8463 -1.6060
18252TIP3   OH276246   2.417   2.087   1.212 -0.4014  0.0118 -0.2780
18252TIP3    H176247   2.361   2.065   1.286  1.1641 -1.6903  0.4711
18252TIP3    H276248   2.399   2.020   1.146 -0.7707  0.7045 -0.8984
18253TIP3   OH276249   6.573   4.845   2.794  0.3546  0.3406 -0.7005
18253TIP3    H176250   6.527   4.926   2.817  1.2571  0.9526 -0.9915
18253TIP3    H276251   6.607   4.862   2.706  3.0708  0.8108  0.3590
18254TIP3   OH276252   4.041   6.243  11.579  0.1570 -0.1186  0.3353
18254TIP3    H176253   4.022   6.228  11.487 -0.5624 -2.5880  0.8276
18254TIP3    H276254   4.136   6.232  11.586  0.1868 -0.1282 -0.0725
18255TIP3   OH276255   3.504   0.700   5.958 -0.3837 -0.7648 -0.1170
18255TIP3    H176256   3.457   0.652   6.026 -0.0099 -0.6132  0.2479
18255TIP3    H276257   3.448   0.776   5.940 -0.3993 -0.7132  0.1412
18256TIP3   OH276258   2.422   0.872   3.903  0.0436  0.1176 -0.1944
18256TIP3    H176259   2.353   0.879   3.837 -0.0886 -1.8726 -0.3342
18256TIP3    H276260   2.375   0.870   3.987 -0.0379 -0.4389 -0.2456
18257TIP3   OH276261   3.054   1.540   3.515  0.2806 -0.1876 -0.3612
18257TIP3    H176262   3.095   1.565   3.432 -1.7871 -0.6637 -1.5885
18257TIP3    H276263   2.977   1.490   3.490 -1.5099  1.2789  1.7838
18258TIP3   OH276264   6.282   5.011   3.428 -0.2900  0.3164 -0.0163
18258TIP3    H176265   6.251   4.921   3.426  0.9473 -0.1171 -1.5665
18258TIP3    H276266   6.332   5.017   3.510  0.3329 -0.6821 -0.3004
18259TIP3   OH276267   3.476   4.644   4.676  0.2043 -0.1108  0.1701
18259TIP3    H176268   3.408   4.668   4.739  0.3004 -1.1974  0.7106
18259TIP3    H276269   3.445   4.681   4.592 -0.8376 -0.2305  0.4872
18260TIP3   OH276270   3.891   3.956  10.779 -0.1653  0.2816  0.2016
18260TIP3    H176271   3.813   3.908  10.752 -2.0934  3.5073 -0.6202
18260TIP3    H276272   3.864   4.002  10.858  1.5880  0.0074  1.0044
18261TIP3   OH276273   1.608   4.034   5.706  0.0286 -0.0280  0.3114
18261TIP3    H176274   1.565   4.087   5.773 -0.5440 -0.9256  0.6759
18261TIP3    H276275   1.588   4.078   5.623  1.1258  1.3528  0.7299
18262TIP3   OH276276   3.543   6.417   2.699  0.3867 -0.1798  0.0440
18262TIP3    H176277   3.606   6.388   2.764  1.3193  2.1186  0.2832
18262TIP3    H276278   3.597   6.445   2.624 -0.4580  0.1174 -0.4729
18263TIP3   OH276279   1.851   4.943   4.246  0.5085 -0.5199  0.4652
18263TIP3    H176280   1.939   4.939   4.209  0.0064  0.3699 -0.8932
18263TIP3    H276281   1.858   5.007   4.317  0.7912  0.1759 -0.1743
18264TIP3   OH276282   2.264   6.055  13.970  0.1296 -0.4786 -0.2864
18264TIP3    H176283   2.254   6.136  13.920  0.1717  0.4787  1.1743
18264TIP3    H276284   2.332   6.075  14.034 -1.9886 -0.5520  2.1593
18265TIP3   OH276285   5.862   4.462  15.199 -0.1236  0.3833  0.8421
18265TIP3    H176286   5.839   4.378  15.160  0.1353 -0.1184  1.7516
18265TIP3    H276287   5.955   4.455  15.221  0.1652  1.2880 -0.0070
18266TIP3   OH276288   4.169   0.406   3.885 -0.4105 -0.1136  0.3831
18266TIP3    H176289   4.230   0.472   3.918  0.9619 -1.0684 -0.1874
18266TIP3    H276290   4.217   0.360   3.816 -1.6524 -1.1313  0.1541
18267TIP3   OH276291   6.639   2.198   5.872 -0.2972  0.5125  0.0696
18267TIP3    H176292   6.620   2.118   5.920 -0.2504  1.3949  1.6132
18267TIP3    H276293   6.555   2.223   5.833 -0.8561  0.9074  1.4710
18268TIP3   OH276294   6.682   2.457  15.510 -0.3994 -0.3994 -0.4129
18268TIP3    H176295   6.768   2.429  15.540 -0.9226 -1.3329  0.2434
18268TIP3    H276296   6.693   2.550  15.488  0.3678 -0.0494  1.2819
18269TIP3   OH276297   2.362   4.699  15.265 -0.1284 -0.3984 -0.4920
18269TIP3    H176298   2.436   4.728  15.320 -0.2059 -1.5231  0.2236
18269TIP3    H276299   2.297   4.768  15.276  0.8123  0.6436 -1.1751
18270TIP3   OH276300   5.944   1.915  13.949  0.4595  0.3833 -0.4055
18270TIP3    H176301   6.039   1.912  13.941  0.3956 -1.3387 -0.8964
18270TIP3    H276302   5.921   1.834  13.995 -0.7655  0.7063 -0.4191
18271TIP3   OH276303   4.454   3.775   0.562  0.0659 -0.3443  0.6329
18271TIP3    H176304   4.400   3.705   0.598  0.2670 -2.2300 -2.4370
18271TIP3    H276305   4.538   3.767   0.609 -0.7888 -0.2339  2.2797
18272TIP3   OH276306   5.431   2.486  15.207  0.4527  0.0225 -0.4717
18272TIP3    H176307   5.513   2.510  15.163  0.3847  1.2697  0.0387
18272TIP3    H276308   5.364   2.494  15.138 -0.0211  4.2008  0.1874
18273TIP3   OH276309   5.396   5.709   3.121 -0.2792  0.5094 -0.0055
18273TIP3    H176310   5.460   5.665   3.065 -0.7869 -0.6218  0.2739
18273TIP3    H276311   5.317   5.714   3.068 -0.2468  1.0529 -0.0127
18274TIP3   OH276312   0.662   3.619  12.196 -0.3428  0.5948  0.1078
18274TIP3    H176313   0.619   3.601  12.113  0.3883  1.0041 -0.3680
18274TIP3    H276314   0.751   3.585  12.185  0.1642  1.8299  0.2445
18275TIP3   OH276315   1.698   0.825   4.455  0.1113 -0.2560  0.2808
18275TIP3    H176316   1.788   0.854   4.471  0.1184  0.1045 -0.3792
18275TIP3    H276317   1.667   0.794   4.540 -0.1107  2.3179  1.2414
18276TIP3   OH276318   6.673   2.925   3.427 -0.5687  0.1056  0.3478
18276TIP3    H176319   6.698   2.867   3.499 -0.1922 -0.4864 -0.2596
18276TIP3    H276320   6.706   3.011   3.454  1.9140 -0.5681 -0.2846
18277TIP3   OH276321   0.594   0.617  11.485  0.1483  0.0673  0.3003
18277TIP3    H176322   0.526   0.677  11.514  1.2867  0.7020  1.8737
18277TIP3    H276323   0.559   0.530  11.505 -1.2397  0.1943 -1.3786
18278TIP3   OH276324   4.637   0.342  13.891  0.1008  0.0306 -0.6059
18278TIP3    H176325   4.727   0.329  13.861 -0.4588 -0.0059 -2.4326
18278TIP3    H276326   4.633   0.434  13.917  0.8382 -0.1562  0.2234
18279TIP3   OH276327   6.547   0.667  15.872  0.3726  0.4425 -0.1592
18279TIP3    H176328   6.514   0.744  15.918 -1.5697  0.7972 -1.9307
18279TIP3    H276329   6.640   0.684  15.859  0.1375  2.1555  0.1472
18280TIP3   OH276330   4.537   4.904  11.816  0.5942 -0.2841 -0.4417
18280TIP3    H176331   4.513   4.917  11.725  0.3384  1.1705 -0.1978
18280TIP3    H276332   4.467   4.850  11.852 -1.5202  2.4096 -0.1821
18281TIP3   OH276333   2.955   4.089   2.765 -0.0323  0.1545 -0.1507
18281TIP3    H176334   2.954   4.012   2.710  1.9167 -1.1983  1.5481
18281TIP3    H276335   2.878   4.080   2.822 -1.3801  0.9662 -1.7568
18282TIP3   OH276336   6.276   0.093  14.114  0.0664  0.3804  0.2491
18282TIP3    H176337   6.189   0.102  14.074  0.4643  0.7326 -0.5793
18282TIP3    H276338   6.291  -0.001  14.119  1.1036  0.2207 -3.0540
18283TIP3   OH276339   2.799   0.911  15.491 -0.0257  0.1436  0.0384
18283TIP3    H176340   2.819   0.953  15.407  0.1134  1.9089  0.9094
18283TIP3    H276341   2.706   0.926  15.504 -0.1958 -0.7363 -0.1028
18284TIP3   OH276342   0.546   6.560   4.823 -0.0596  0.5620 -0.0905
18284TIP3    H176343   0.582   6.609   4.897 -0.1086 -0.4082  0.5975
18284TIP3    H276344   0.482   6.501   4.862  0.6256 -0.6659 -0.7716
18285TIP3   OH276345   2.794   6.647   4.583  0.3642  0.9198  0.0075
18285TIP3    H176346   2.836   6.663   4.498  0.6151 -1.0320 -0.2812
18285TIP3    H276347   2.758   6.559   4.575 -1.1788  1.3991  1.3290
18286TIP3   OH276348   6.216   5.657   0.424  0.0844 -0.9968 -0.1030
18286TIP3    H176349   6.279   5.612   0.367  0.7701  2.4291 -2.3552
18286TIP3    H276350   6.269   5.714   0.479 -0.8676 -0.1199 -0.0479
18287TIP3   OH276351   0.557   3.769   2.768  0.0484 -0.7054  0.1825
18287TIP3    H176352   0.581   3.862   2.776 -1.7613 -0.2581  0.7152
18287TIP3    H276353   0.512   3.764   2.683 -0.3242 -0.9831  0.3965
18288TIP3   OH276354   0.204   6.798   5.932 -0.1441 -0.4792  0.2245
18288TIP3    H176355   0.147   6.808   6.007  0.0953  1.4662  0.1921
18288TIP3    H276356   0.289   6.832   5.961 -0.5145  2.1488 -1.4152
18289TIP3   OH276357   4.047   1.108  11.466  0.0801 -0.1538  0.3293
18289TIP3    H176358   4.065   1.172  11.397 -0.1082  0.3745  0.7662
18289TIP3    H276359   4.112   1.128  11.534 -0.8048  0.4131  1.0205
18290TIP3   OH276360   2.606   3.763  17.187  0.3698 -0.2821 -0.0854
18290TIP3    H176361   2.659   3.841  17.167 -0.7797  1.2678  2.3768
18290TIP3    H276362   2.670   3.697  17.213  1.2794  1.0885  1.4033
18291TIP3   OH276363   3.759   6.345   4.135 -0.1110  0.4042 -0.1982
18291TIP3    H176364   3.802   6.325   4.218 -0.1471 -1.8298 -0.6650
18291TIP3    H276365   3.720   6.431   4.149 -0.8001 -0.2434  2.3749
18292TIP3   OH276366   1.470   1.855  14.946  0.2148  0.2720  0.0633
18292TIP3    H176367   1.523   1.792  14.897 -0.0521 -0.2060  0.3865
18292TIP3    H276368   1.444   1.808  15.025 -1.7485  0.0545 -0.6678
18293TIP3   OH276369   2.219   5.729   1.490  0.0108 -0.0546  0.3358
18293TIP3    H176370   2.246   5.810   1.447 -0.7582 -0.1363 -0.3284
18293TIP3    H276371   2.300   5.681   1.506  0.3603  0.2697 -0.4456
18294TIP3   OH276372   2.648   5.626   3.474  0.0002  0.0451  0.0654
18294TIP3    H176373   2.623   5.688   3.405  0.8786  2.2670  1.6244
18294TIP3    H276374   2.738   5.602   3.453  0.5383  1.3244  0.7825
18295TIP3   OH276375   5.676   0.121  12.980 -0.3542 -0.0468 -0.4478
18295TIP3    H176376   5.632   0.101  12.898  0.3253 -2.8389 -0.2530
18295TIP3    H276377   5.607   0.118  13.046 -0.3858 -1.3465 -0.5185
18296TIP3   OH276378   1.514   0.656   3.247  0.4219 -0.0351 -0.3219
18296TIP3    H176379   1.466   0.574   3.233 -2.1165  1.2157  0.5382
18296TIP3    H276380   1.554   0.675   3.162  0.0934 -1.5426 -0.8473
18297TIP3   OH276381   6.584   3.942  12.401 -0.4405  0.3786  0.2947
18297TIP3    H176382   6.614   4.021  12.356 -0.4490  0.9444  1.2511
18297TIP3    H276383   6.496   3.927  12.368 -0.4421  0.7824  0.1078
18298TIP3   OH276384   3.667   3.730   1.036  0.1300 -0.2345  0.2597
18298TIP3    H176385   3.603   3.669   1.074  1.7946 -0.5513  2.7921
18298TIP3    H276386   3.751   3.685   1.046  1.0828  1.3430 -0.3773
18299TIP3   OH276387   5.587   4.406   0.067 -0.4849  0.6336 -0.5575
18299TIP3    H176388   5.508   4.367   0.030 -0.3485 -0.9249  0.7058
18299TIP3    H276389   5.601   4.359   0.149  0.7605  2.1078  0.1210
18300TIP3   OH276390   4.552   2.427  14.361  0.5888  0.2576  0.2164
18300TIP3    H176391   4.599   2.406  14.442  0.0728 -0.3647  0.3665
18300TIP3    H276392   4.501   2.505  14.383  3.9869  3.0679 -0.9048
18301TIP3   OH276393   4.015   2.719  16.216  0.4302 -0.4494  0.8300
18301TIP3    H176394   3.923   2.733  16.194  0.4969 -2.3587 -0.9595
18301TIP3    H276395   4.062   2.779  16.158  0.3841 -0.9066  0.3193
18302TIP3   OH276396   0.926   2.205  14.113 -0.0026 -0.4011  0.3467
18302TIP3    H176397   0.912   2.133  14.175  0.1238 -0.6730  0.0611
18302TIP3    H276398   1.009   2.184  14.070  0.6591  0.5424  1.1168
18303TIP3   OH276399   1.196   2.350  15.816 -0.4508  0.4488 -0.5016
18303TIP3    H176400   1.282   2.325  15.850  0.5465  1.5881 -2.0289
18303TIP3    H276401   1.154   2.395  15.889 -0.8686 -2.3743  1.1253
18304TIP3   OH276402   5.950   3.923  13.400  0.3613 -0.5428 -0.6766
18304TIP3    H176403   5.944   3.861  13.328 -0.6557 -0.0146 -1.0706
18304TIP3    H276404   5.939   4.009  13.359  0.1648 -0.2070  0.0551
18305TIP3   OH276405   3.711   1.144  15.101  0.4794  0.3205 -0.2840
18305TIP3    H176406   3.784   1.192  15.061  2.1135 -1.9502 -0.2326
18305TIP3    H276407   3.733   1.142  15.195  0.3881 -0.3931 -0.2717
18306TIP3   OH276408   5.079   0.298  12.626 -0.0559 -0.1620  0.0628
18306TIP3    H176409   5.020   0.241  12.675  0.4480  0.6659  1.7177
18306TIP3    H276410   5.068   0.384  12.667  1.4470  0.2499 -0.3346
18307TIP3   OH276411   5.611   5.430  13.718  0.1351  0.2106 -0.0891
18307TIP3    H176412   5.635   5.442  13.810  1.2799 -0.5565 -0.2718
18307TIP3    H276413   5.679   5.373  13.683 -0.0901  0.7863 -1.5099
18308TIP3   OH276414   3.537   6.732  16.614 -0.1728  0.8540  0.3815
18308TIP3    H176415   3.604   6.663  16.610  0.4648  1.3432  1.9226
18308TIP3    H276416   3.577   6.806  16.567  1.1483  1.7108  2.6861
18309TIP3   OH276417   6.212   3.969   2.295 -0.2824 -0.1737  0.2159
18309TIP3    H176418   6.245   4.053   2.262 -0.3837 -0.4692 -0.6709
18309TIP3    H276419   6.179   3.989   2.382 -1.4681  0.9936 -0.4658
18310TIP3   OH276420   3.414   1.140   1.864 -0.0679  0.3664 -0.1761
18310TIP3    H176421   3.405   1.076   1.794  0.6150  0.2202 -0.1303
18310TIP3    H276422   3.430   1.088   1.942  2.0648  0.6293 -0.3909
18311TIP3   OH276423   0.173   6.503   6.129  0.1583  0.7019  0.2255
18311TIP3    H176424   0.190   6.412   6.150  2.6256  1.1294  0.3602
18311TIP3    H276425   0.124   6.536   6.205  0.4127 -0.1605  0.7751
18312TIP3   OH276426   4.196   1.330   1.110 -0.4709  0.0389 -0.1892
18312TIP3    H176427   4.194   1.235   1.103 -2.6090 -0.0120  0.1777
18312TIP3    H276428   4.251   1.348   1.186  0.0751 -0.8862 -0.3574
18313TIP3   OH276429   3.457   0.435  14.964 -0.0008 -0.0284 -0.3798
18313TIP3    H176430   3.525   0.374  14.992 -1.1934 -1.2755 -0.0669
18313TIP3    H276431   3.375   0.385  14.973 -1.0146  1.5842 -0.2185
18314TIP3   OH276432   0.960   1.711   0.169  0.0142  0.2229 -0.3377
18314TIP3    H176433   0.954   1.650   0.096 -1.0252 -1.2025  0.8716
18314TIP3    H276434   0.892   1.777   0.152 -0.1030 -0.0029 -0.7326
18315TIP3   OH276435   1.284   3.213   5.021  0.2269 -0.1114 -0.1132
18315TIP3    H176436   1.215   3.275   5.044 -0.3326 -0.7027 -0.1981
18315TIP3    H276437   1.239   3.140   4.979  0.9027 -0.4899 -0.1983
18316TIP3   OH276438   0.233   4.247  14.763 -0.1205  0.4342 -0.6381
18316TIP3    H176439   0.288   4.169  14.753  1.2052  1.2892 -0.3583
18316TIP3    H276440   0.258   4.283  14.848  2.3495  3.3362 -2.3576
18317TIP3   OH276441   6.020   6.647  12.975  0.1251 -0.2086  0.4686
18317TIP3    H176442   6.097   6.662  12.919 -0.3701  0.1363 -0.1332
18317TIP3    H276443   6.050   6.584  13.041  1.0438  0.2461  0.4966
18318TIP3   OH276444   3.470   1.821  11.455 -0.2646 -0.3280 -0.2856
18318TIP3    H176445   3.436   1.734  11.476  0.4937 -0.5303  0.1274
18318TIP3    H276446   3.399   1.881  11.478 -0.1364 -0.6953  1.1562
18319TIP3   OH276447   3.713   0.989   0.109  0.6417  0.3326  0.0206
18319TIP3    H176448   3.736   0.899   0.086 -2.2992 -0.6582  0.5044
18319TIP3    H276449   3.684   0.984   0.200 -1.4978  1.2844 -0.5260
18320TIP3   OH276450   6.186   0.404   1.232  0.0365  1.1215 -0.0308
18320TIP3    H176451   6.255   0.456   1.273  1.5188 -1.0686  0.4130
18320TIP3    H276452   6.150   0.352   1.303 -0.1511  0.2195 -0.7712
18321TIP3   OH276453   5.994   3.648  14.436 -0.0374  0.0474  0.1250
18321TIP3    H176454   5.995   3.741  14.413  1.1124 -0.4525 -2.1602
18321TIP3    H276455   5.909   3.616  14.407 -0.3736  0.3415  0.7753
18322TIP3   OH276456   0.870   4.591   3.151  0.5749  0.2922 -0.3685
18322TIP3    H176457   0.914   4.521   3.199  0.0236  0.3312  0.2069
18322TIP3    H276458   0.781   4.592   3.186 -0.5411 -1.1262 -2.8914
18323TIP3   OH276459   0.381   5.996   3.977 -0.4451  0.3201 -0.0577
18323TIP3    H176460   0.361   6.052   3.902 -1.9216 -1.1391 -0.8304
18323TIP3    H276461   0.373   6.054   4.053  1.6745  1.9879 -0.9979
18324TIP3   OH276462   4.422   0.835   3.865 -0.1136  0.1826 -0.4295
18324TIP3    H176463   4.330   0.853   3.882 -0.1131 -0.0809 -0.1272
18324TIP3    H276464   4.454   0.913   3.820 -0.4362  0.3581 -0.3581
18325TIP3   OH276465   5.251   0.760  17.048 -0.3402 -0.2146  0.0581
18325TIP3    H176466   5.165   0.783  17.013  0.3642  0.7243 -1.1518
18325TIP3    H276467   5.275   0.679  17.003 -0.1489  0.0968 -0.4092
18326TIP3   OH276468   0.382   4.005  14.783  0.2162  0.3766 -0.3771
18326TIP3    H176469   0.463   3.992  14.831  0.6473 -1.2877 -1.4799
18326TIP3    H276470   0.323   3.937  14.815  0.2972 -0.3462 -1.6595
18327TIP3   OH276471   2.142   2.339  11.833 -0.1031 -0.0652  0.0848
18327TIP3    H176472   2.162   2.357  11.741 -0.0023 -0.4779  0.0254
18327TIP3    H276473   2.048   2.359  11.842  0.1553  1.1701  0.1925
18328TIP3   OH276474   3.421   0.382   2.622  0.5152  0.3355 -0.2132
18328TIP3    H176475   3.404   0.420   2.708  2.3322 -1.7245  1.1698
18328TIP3    H276476   3.490   0.438   2.586  1.9438 -0.5185  1.0590
18329TIP3   OH276477   4.188   2.511   0.222  0.6320 -0.5084  0.1227
18329TIP3    H176478   4.241   2.553   0.289  1.3336 -0.7540 -0.2718
18329TIP3    H276479   4.236   2.524   0.140 -0.0298 -0.5270 -0.2812
18330TIP3   OH276480   5.648   5.334   2.388 -0.2103 -0.2790 -0.1062
18330TIP3    H176481   5.601   5.252   2.371  0.3157 -0.6522  0.2320
18330TIP3    H276482   5.590   5.402   2.354 -2.2184 -0.4995  2.5856
18331TIP3   OH276483   0.212   1.936  10.286 -0.6569  0.3565  0.2834
18331TIP3    H176484   0.117   1.944  10.290 -0.6776  0.1690  0.2166
18331TIP3    H276485   0.229   1.895  10.201 -0.4913  0.7230  0.1384
18332TIP3   OH276486   4.277   0.545  16.291 -1.0079  0.2109 -0.2607
18332TIP3    H176487   4.328   0.503  16.360 -0.7388  0.1756 -0.4832
18332TIP3    H276488   4.293   0.492  16.213  0.3210  1.4324 -0.8478
18333TIP3   OH276489   4.256   3.007   6.047  0.1698 -0.1356  0.5397
18333TIP3    H176490   4.333   3.062   6.062  0.3740 -0.2146 -0.1611
18333TIP3    H276491   4.290   2.931   6.000 -0.5781  0.7045 -1.4969
18334TIP3   OH276492   4.747   5.984  12.967  0.7743 -0.0337  0.5129
18334TIP3    H176493   4.698   5.919  13.018  2.1566 -0.9640  0.6957
18334TIP3    H276494   4.685   6.057  12.956 -0.3172 -0.7590  1.5607
18335TIP3   OH276495   5.081   2.513  15.607 -0.4459  0.1220  0.5374
18335TIP3    H176496   5.010   2.570  15.579 -0.2922  0.6805  1.2295
18335TIP3    H276497   5.149   2.526  15.541 -1.1651 -0.8014 -0.3978
18336TIP3   OH276498   0.120   2.415  15.562 -0.4463 -0.6852 -0.1340
18336TIP3    H176499   0.182   2.364  15.615 -0.2483 -1.8403 -1.4130
18336TIP3    H276500   0.158   2.414  15.474 -0.0150  2.4383 -0.0755
18337TIP3   OH276501   6.760   6.066  13.887 -0.1957  0.3555  0.1004
18337TIP3    H176502   6.674   6.024  13.885 -0.2307  0.4031 -2.0140
18337TIP3    H276503   6.806   6.024  13.959 -1.8809  0.1415  1.1153
18338TIP3   OH276504   4.483   0.335   1.909  0.5302  0.1156 -0.0106
18338TIP3    H176505   4.535   0.303   1.835 -0.8431 -0.5557 -0.7318
18338TIP3    H276506   4.393   0.318   1.883 -0.1278  2.1009  0.7744
18339TIP3   OH276507   5.812   3.729   3.768 -0.0797  0.2744  0.1497
18339TIP3    H176508   5.890   3.725   3.714 -0.1258 -1.8914  0.1514
18339TIP3    H276509   5.833   3.675   3.844 -1.7457 -0.8333 -0.1283
18340TIP3   OH276510   6.174   1.717   3.200  0.1414  0.3728 -0.6547
18340TIP3    H176511   6.209   1.773   3.270  0.4024  0.2353 -0.6735
18340TIP3    H276512   6.094   1.761   3.172  0.8873  1.2990 -1.3941
18341TIP3   OH276513   5.002   5.336   5.890 -0.4437  0.0703  0.2245
18341TIP3    H176514   4.978   5.245   5.911 -1.4131  0.6661  1.8791
18341TIP3    H276515   5.095   5.341   5.909 -0.2175 -0.7455 -0.5814
18342TIP3   OH276516   6.454   3.891  15.618 -0.2404  0.0419  0.7665
18342TIP3    H176517   6.391   3.903  15.548  0.5348  0.9704  0.2014
18342TIP3    H276518   6.475   3.797  15.616  0.0497  0.1278 -0.4880
18343TIP3   OH276519   2.198   2.487  12.949  0.1084 -0.1951 -0.2164
18343TIP3    H176520   2.207   2.499  12.855  0.2422  0.1645 -0.1615
18343TIP3    H276521   2.126   2.545  12.974 -1.8583 -2.3952 -0.5158
18344TIP3   OH276522   2.827   4.021  11.202 -0.0527 -0.3220 -0.0512
18344TIP3    H176523   2.838   4.111  11.170  1.0585 -1.1714 -2.2464
18344TIP3    H276524   2.733   4.006  11.199 -0.1212  0.1944 -1.4499
18345TIP3   OH276525   6.443   3.749   4.524  0.3374  0.1017  0.0502
18345TIP3    H176526   6.531   3.775   4.498  0.4841  0.7609  1.1194
18345TIP3    H276527   6.385   3.798   4.467  0.6578  0.4430  0.0144
18346TIP3   OH276528   4.991   5.373   0.739  0.7801  0.6756 -0.5121
18346TIP3    H176529   5.021   5.324   0.663  0.0628 -0.1160 -0.2898
18346TIP3    H276530   5.010   5.316   0.813  1.0170  1.2327 -0.1367
18347TIP3   OH276531   5.952   3.331  10.836 -0.2091  0.2979  1.1091
18347TIP3    H176532   5.967   3.414  10.790  0.1323  0.3148  1.2478
18347TIP3    H276533   5.987   3.264  10.776  1.2944  0.4033  1.8169
18348TIP3   OH276534   6.262   5.829  14.156 -0.0333 -0.8282 -0.4931
18348TIP3    H176535   6.319   5.841  14.080 -1.3165 -0.7632 -1.4764
18348TIP3    H276536   6.287   5.900  14.215  1.6661 -1.4638 -0.3810
18349TIP3   OH276537   3.684   4.069  16.393 -0.2378  0.4866  0.0879
18349TIP3    H176538   3.735   4.011  16.337  0.2676 -0.7646  1.7582
18349TIP3    H276539   3.613   4.014  16.426  0.5890  0.5661  2.1751
18350TIP3   OH276540   1.610   5.673  17.015  0.2334  0.7731 -0.2555
18350TIP3    H176541   1.542   5.663  16.948  0.0852  0.3678 -0.0529
18350TIP3    H276542   1.677   5.610  16.990 -0.9325 -1.2490  1.3155
18351TIP3   OH276543   6.554   5.935  12.183 -0.0873 -0.5743  0.6389
18351TIP3    H176544   6.482   5.985  12.147  0.3779 -1.2410 -1.3617
18351TIP3    H276545   6.620   6.000  12.208 -0.9211 -0.0326  1.4803
18352TIP3   OH276546   5.488   2.356   2.557  0.2226  0.6740 -0.1842
18352TIP3    H176547   5.561   2.296   2.574 -1.3737 -1.0183  1.0106
18352TIP3    H276548   5.430   2.307   2.499  0.2191  2.2093 -1.5808
18353TIP3   OH276549   6.377   6.532   3.701  0.5492  0.0165 -0.2703
18353TIP3    H176550   6.364   6.453   3.753  1.7952 -0.0728 -0.0617
18353TIP3    H276551   6.470   6.553   3.713  0.3945  1.1025 -0.8978
18354TIP3   OH276552   1.711   3.531  13.020  0.4067 -0.3258  0.8967
18354TIP3    H176553   1.719   3.614  13.067 -0.5389  0.6089 -0.5009
18354TIP3    H276554   1.624   3.499  13.041  1.4048 -1.9217  2.8419
18355TIP3   OH276555   4.785   3.695  16.743 -0.3482 -0.2158  0.2610
18355TIP3    H176556   4.704   3.747  16.748 -0.4540 -0.2732 -0.7248
18355TIP3    H276557   4.853   3.755  16.775 -0.6311  0.1678  0.1583
18356TIP3   OH276558   4.614   1.936  17.030 -0.1995 -0.1331 -0.2077
18356TIP3    H176559   4.524   1.953  17.001 -0.7974 -1.2537  0.8588
18356TIP3    H276560   4.668   1.949  16.952 -1.4018 -0.3141 -1.0961
18357TIP3   OH276561   1.623   0.565   1.321  0.2220 -0.0441  0.1575
18357TIP3    H176562   1.554   0.632   1.326 -0.1051 -0.3458 -0.2399
18357TIP3    H276563   1.583   0.487   1.358  0.5250 -0.0839  0.3998
18358TIP3   OH276564   2.035   0.613  13.068  0.1634 -0.0455 -0.3661
18358TIP3    H176565   1.962   0.671  13.091  0.1321  1.1874 -3.2069
18358TIP3    H276566   2.019   0.534  13.119 -2.4089  0.6965  0.1323
18359TIP3   OH276567   1.232   5.521   3.114  0.4490 -0.0729  0.3917
18359TIP3    H176568   1.197   5.475   3.190  0.3370  0.5981  0.7590
18359TIP3    H276569   1.160   5.578   3.085  0.2583 -0.7990 -0.6297
18360TIP3   OH276570   2.960   5.935   4.555 -0.0562 -0.0885  0.1696
18360TIP3    H176571   2.966   6.019   4.601 -0.1126 -0.9361  1.8186
18360TIP3    H276572   3.048   5.920   4.519  0.4487 -0.1071  1.3644
18361TIP3   OH276573   1.899   1.860   2.491  0.4611 -0.2464 -0.1415
18361TIP3    H176574   1.900   1.904   2.576 -0.9507 -1.3142  0.4546
18361TIP3    H276575   1.991   1.846   2.470  0.8497  0.7416  0.8230
18362TIP3   OH276576   5.198   4.763  15.712  0.3661 -0.8795 -0.1459
18362TIP3    H176577   5.106   4.753  15.740  0.2170 -1.6895 -0.8989
18362TIP3    H276578   5.249   4.726  15.784  0.0178 -2.1191 -0.5089
18363TIP3   OH276579   4.470   4.949   1.752  0.3917  1.1620 -0.5283
18363TIP3    H176580   4.538   4.886   1.730 -0.0961  0.2353  0.5005
18363TIP3    H276581   4.428   4.970   1.669  0.0116 -0.5304 -0.7922
18364TIP3   OH276582   2.167   3.552  14.976  0.0745  0.5571  0.5691
18364TIP3    H176583   2.207   3.597  14.902 -1.0907  1.0352  0.2098
18364TIP3    H276584   2.129   3.622  15.030 -2.5347  0.0451 -0.4518
18365TIP3   OH276585   6.435   2.148  14.381  0.0495  0.5522  0.3142
18365TIP3    H176586   6.449   2.149  14.476  0.5192  1.2919  0.2418
18365TIP3    H276587   6.408   2.237  14.360  0.0674  0.4227 -0.2730
18366TIP3   OH276588   0.839   6.468   1.103 -0.1900  0.0289 -0.6044
18366TIP3    H176589   0.926   6.434   1.124 -0.2945 -0.1665 -0.4793
18366TIP3    H276590   0.854   6.558   1.075  0.0917 -0.1234 -0.9490
18367TIP3   OH276591   0.675   0.934   4.236  0.8350  0.4762 -0.4539
18367TIP3    H176592   0.719   0.941   4.152  0.0735  0.2614 -0.8820
18367TIP3    H276593   0.640   1.022   4.252 -0.3655  0.1510 -1.1358
18368TIP3   OH276594   1.274   3.982   5.715  0.4354  0.5989  0.4566
18368TIP3    H176595   1.193   3.992   5.765  1.5198  0.3186  2.3524
18368TIP3    H276596   1.280   3.889   5.696 -0.7498  0.8858 -1.6604
18369TIP3   OH276597   6.544   3.382   0.950 -0.7656 -0.3124 -0.3499
18369TIP3    H176598   6.529   3.464   0.997 -1.9056 -1.1190  0.7519
18369TIP3    H276599   6.474   3.324   0.980 -1.6282 -0.8566 -3.1202
18370TIP3   OH276600   6.548   5.470  12.150 -0.0945  0.0371  0.1313
18370TIP3    H176601   6.617   5.536  12.156  0.0237 -0.1316  0.7496
18370TIP3    H276602   6.499   5.493  12.071 -0.4867  1.2719  0.7103
18371TIP3   OH276603   0.266   3.015   5.722  0.1282 -0.2748  0.6833
18371TIP3    H176604   0.325   2.941   5.742  1.0010  0.6233  1.5795
18371TIP3    H276605   0.303   3.054   5.643  1.0156  0.5228  1.4613
18372TIP3   OH276606   1.330   3.259  13.544  0.0048 -0.3714 -0.4073
18372TIP3    H176607   1.375   3.215  13.472 -0.1624 -1.0949 -0.0852
18372TIP3    H276608   1.375   3.228  13.623  0.1160  0.3259 -0.1892
18373TIP3   OH276609   5.144   4.162  16.424 -0.7031 -0.1092 -0.0303
18373TIP3    H176610   5.105   4.083  16.388 -0.7136  0.0023 -0.2715
18373TIP3    H276611   5.074   4.206  16.471 -0.3518 -0.9462  1.3175
18374TIP3   OH276612   3.286   2.344  13.098 -0.0219 -0.3086 -0.0470
18374TIP3    H176613   3.268   2.428  13.055 -1.7088 -0.9704 -0.7161
18374TIP3    H276614   3.242   2.279  13.042  2.2096 -1.7953 -0.1867
18375TIP3   OH276615   1.123   3.959  15.493 -0.9092 -0.3399  0.4931
18375TIP3    H176616   1.108   3.872  15.532  2.2399 -0.9596  0.5981
18375TIP3    H276617   1.182   4.002  15.554  0.1584  0.6091 -1.1439
18376TIP3   OH276618   2.759   4.275  11.360 -0.0067 -0.3335 -0.3835
18376TIP3    H176619   2.700   4.217  11.408 -1.3812  2.8745  2.1267
18376TIP3    H276620   2.846   4.255  11.396 -0.5588 -0.3487  1.0037
18377TIP3   OH276621   5.303   3.477  13.531 -0.0004 -0.3183  0.3178
18377TIP3    H176622   5.231   3.526  13.570  0.1389 -0.0662  0.2612
18377TIP3    H276623   5.303   3.394  13.578  0.1754 -0.0090  0.8808
18378TIP3   OH276624   3.126   2.637  16.328 -0.5432  0.0698 -0.3432
18378TIP3    H176625   3.197   2.698  16.347 -1.1084  1.4017 -2.2281
18378TIP3    H276626   3.099   2.603  16.414 -0.7610  3.1094  0.9076
18379TIP3   OH276627   6.238   6.743   5.772 -0.1062  0.0727  0.1049
18379TIP3    H176628   6.298   6.807   5.734  1.2553 -0.6504  0.9714
18379TIP3    H276629   6.226   6.773   5.862 -1.4093  0.4400 -0.1702
18380TIP3   OH276630   5.285   4.631   3.651  0.1016 -0.4735  0.1485
18380TIP3    H176631   5.237   4.548   3.643 -0.1228 -0.3439  0.1343
18380TIP3    H276632   5.217   4.697   3.659  0.2818 -0.2951  0.2173
18381TIP3   OH276633   3.587   1.293  15.572  0.2093 -0.4939 -0.0587
18381TIP3    H176634   3.528   1.268  15.501  0.3890  0.0672 -0.4097
18381TIP3    H276635   3.628   1.211  15.598 -1.5415 -1.0989  0.9630
18382TIP3   OH276636   2.734   1.645  10.672  0.7337 -0.0253 -0.1775
18382TIP3    H176637   2.797   1.594  10.621  1.9418  1.3926 -0.1886
18382TIP3    H276638   2.771   1.734  10.673 -0.8227  0.6494  0.5939
18383TIP3   OH276639   3.872   3.674   5.348 -0.2379  0.3860 -0.1889
18383TIP3    H176640   3.918   3.596   5.317  0.1237  0.4842  0.0885
18383TIP3    H276641   3.780   3.656   5.331 -0.4754 -1.3403  2.4318
18384TIP3   OH276642   3.457   6.096   3.665  0.7751  0.3094  0.1697
18384TIP3    H176643   3.416   6.012   3.646  2.0057  0.2763 -2.9816
18384TIP3    H276644   3.537   6.073   3.713  0.3739 -0.1837  0.6083
18385TIP3   OH276645   6.336   0.568   5.586 -0.1801  0.0530 -0.4870
18385TIP3    H176646   6.357   0.644   5.531  0.9865  0.7353  0.8381
18385TIP3    H276647   6.417   0.517   5.587 -0.6046 -0.6273 -0.4413
18386TIP3   OH276648   2.920   3.742   2.242 -0.5928 -0.0503 -0.0091
18386TIP3    H176649   2.829   3.763   2.266 -0.0443  0.7359  1.5817
18386TIP3    H276650   2.913   3.665   2.186 -2.2989  0.5560 -0.7181
18387TIP3   OH276651   6.378   1.841  14.986 -0.1228  0.0999  0.1836
18387TIP3    H176652   6.461   1.821  15.028 -1.7382 -2.6317  2.4571
18387TIP3    H276653   6.369   1.936  14.995  2.2531  0.3220  0.8083
18388TIP3   OH276654   0.422   4.800   3.074 -0.7413  0.6445  0.2366
18388TIP3    H176655   0.484   4.741   3.031 -1.7320  0.6302 -1.2561
18388TIP3    H276656   0.395   4.752   3.153  1.7508  1.0310  1.4126
18389TIP3   OH276657   2.201   4.895  17.149  0.0397 -0.4548  0.4103
18389TIP3    H176658   2.134   4.844  17.194  0.9378 -3.5110 -1.3780
18389TIP3    H276659   2.283   4.848  17.165  1.4909  2.0156  0.8495
18390TIP3   OH276660   5.880   1.645   3.233  0.0678 -0.2381 -0.4738
18390TIP3    H176661   5.915   1.560   3.261  1.0377  0.5443  0.7997
18390TIP3    H276662   5.899   1.649   3.139  1.0280 -0.9529 -0.3217
18391TIP3   OH276663   1.603   3.756   5.127 -0.0871  0.6413  0.4075
18391TIP3    H176664   1.654   3.686   5.086 -1.7010 -0.2765 -0.1505
18391TIP3    H276665   1.640   3.764   5.215  1.1265  0.1624 -0.0343
18392TIP3   OH276666   5.710   6.270   6.377 -0.3776  0.2876 -0.1361
18392TIP3    H176667   5.724   6.196   6.437 -1.8503  0.3721  0.3565
18392TIP3    H276668   5.640   6.321   6.418 -0.0871  1.4075 -0.9827
18393TIP3   OH276669   0.609   4.272  14.693 -0.0772 -0.0367 -0.5217
18393TIP3    H176670   0.625   4.257  14.786  0.5387  0.6723 -0.5041
18393TIP3    H276671   0.531   4.327  14.690  0.6558  1.0330 -0.3547
18394TIP3   OH276672   1.920   0.417   1.558  0.3353 -0.3401  0.1126
18394TIP3    H176673   1.895   0.464   1.478 -0.9960  0.3822  0.9150
18394TIP3    H276674   1.964   0.338   1.526  0.5608  0.3250 -1.3099
18395TIP3   OH276675   1.771   2.473  11.402 -0.2119  0.3800  0.2965
18395TIP3    H176676   1.731   2.415  11.467  1.0396 -3.3445 -1.9856
18395TIP3    H276677   1.727   2.452  11.320  2.0042  0.8297 -1.0902
18396TIP3   OH276678   4.608   5.921  11.785  0.4701  0.5582  0.1068
18396TIP3    H176679   4.525   5.963  11.762  1.1386  1.8025 -0.1335
18396TIP3    H276680   4.626   5.861  11.713 -0.0866  0.4922  0.0221
18397TIP3   OH276681   4.081   4.763   4.036 -0.2289  0.4597 -0.1769
18397TIP3    H176682   4.150   4.805   4.088 -0.1084 -0.5694  0.5103
18397TIP3    H276683   4.009   4.750   4.097 -0.3254 -0.1781 -0.4177
18398TIP3   OH276684   3.587   1.373  13.858  0.1147 -0.6599  0.2761
18398TIP3    H176685   3.561   1.282  13.847 -1.4251 -0.0611 -1.5376
18398TIP3    H276686   3.677   1.377  13.826 -0.6250 -1.1196 -2.0374
18399TIP3   OH276687   4.521   3.779  11.737  0.1403  0.4838 -0.5345
18399TIP3    H176688   4.454   3.711  11.747 -1.0952  1.5941 -0.9443
18399TIP3    H276689   4.585   3.741  11.678  0.1069 -0.7697  0.1970
18400TIP3   OH276690   2.129   3.311  14.817  0.7919 -0.1482  0.2106
18400TIP3    H176691   2.119   3.404  14.838  2.6192 -0.0636  0.9578
18400TIP3    H276692   2.060   3.267  14.867  1.2265  0.6391  1.5697
18401TIP3   OH276693   6.575   2.238  15.337 -0.4004 -0.2646  0.5038
18401TIP3    H176694   6.597   2.321  15.379 -0.9232  0.1870 -0.0972
18401TIP3    H276695   6.579   2.173  15.407  2.0376 -0.0963  0.6135
18402TIP3   OH276696   0.563   0.444  11.813 -0.2363  0.1196 -0.4979
18402TIP3    H176697   0.574   0.407  11.726  0.7590 -0.3815 -0.1816
18402TIP3    H276698   0.586   0.373  11.873  3.0172  1.4962  0.1253
18403TIP3   OH276699   5.150   4.085  14.899  0.1751  0.1750  1.0936
18403TIP3    H176700   5.066   4.129  14.885  0.2926  1.5137  3.7953
18403TIP3    H276701   5.132   3.992  14.885 -1.0193  0.6845 -1.1398
18404TIP3   OH276702   0.305   4.276  15.678  0.1693 -0.1398  0.2237
18404TIP3    H176703   0.349   4.196  15.651  0.3890 -0.0572  0.3353
18404TIP3    H276704   0.367   4.319  15.737  0.1317  0.2100  0.0118
18405TIP3   OH276705   0.076   4.829  16.214  0.1962  0.3524  0.3596
18405TIP3    H176706   0.117   4.889  16.152  2.9929 -1.7097  0.0315
18405TIP3    H276707   0.058   4.750  16.164 -1.7879  0.2166  1.1789
18406TIP3   OH276708   1.178   4.255  16.151  0.3795 -0.1359  0.4150
18406TIP3    H176709   1.122   4.184  16.121  0.9262 -0.0469 -0.8625
18406TIP3    H276710   1.117   4.322  16.182 -0.2063 -0.2968 -0.3536
18407TIP3   OH276711   3.607   2.488   1.505  0.7859  0.1666  0.0786
18407TIP3    H176712   3.574   2.433   1.576  0.7610  1.4591  1.0870
18407TIP3    H276713   3.672   2.433   1.461 -1.8964 -2.1154 -1.3803
18408TIP3   OH276714   5.466   4.851   5.335 -0.0362 -1.2697  0.5877
18408TIP3    H176715   5.428   4.819   5.416  0.4676 -0.9414  0.9622
18408TIP3    H276716   5.528   4.919   5.363 -0.1774 -0.8477 -0.0958
18409TIP3   OH276717   6.663   0.019  16.087  0.5153  0.5969 -0.4985
18409TIP3    H176718   6.610   0.090  16.122  1.2230  0.2224  1.4527
18409TIP3    H276719   6.709   0.058  16.013  0.0919  1.8739 -0.1156
18410TIP3   OH276720   4.056   1.866  11.587 -0.0013  0.6173 -0.4610
18410TIP3    H176721   4.050   1.960  11.572  1.2218  0.9851  1.0603
18410TIP3    H276722   4.067   1.828  11.499 -1.6274  1.7539 -1.1909
18411TIP3   OH276723   2.160   3.006   4.824  0.3874  0.2779 -0.2491
18411TIP3    H176724   2.152   2.936   4.760 -0.5971  1.6116 -1.6377
18411TIP3    H276725   2.092   2.988   4.889  0.4679 -0.3063 -0.3234
18412TIP3   OH276726   5.052   5.657  14.230 -0.2597  0.2414  0.4512
18412TIP3    H176727   5.140   5.622  14.218 -1.0783 -1.7089 -0.1952
18412TIP3    H276728   5.058   5.710  14.310  1.3784 -0.1673  0.6391
18413TIP3   OH276729   3.274   4.646   2.258  0.3292 -0.0882  0.8451
18413TIP3    H176730   3.256   4.735   2.227  0.8448 -0.3785 -0.3307
18413TIP3    H276731   3.189   4.611   2.283 -0.1824  0.0342 -0.6320
18414TIP3   OH276732   3.786   6.576  14.549  0.3994 -0.0732 -0.3390
18414TIP3    H176733   3.724   6.505  14.567  0.5193 -0.2023 -0.4368
18414TIP3    H276734   3.840   6.543  14.478 -0.2785  0.5518 -1.1683
18415TIP3   OH276735   2.677   0.172  14.921  0.0258 -0.4823 -0.5522
18415TIP3    H176736   2.592   0.216  14.924  0.1729  0.0128 -2.3399
18415TIP3    H276737   2.667   0.108  14.850  0.9007 -0.9557 -0.2577
18416TIP3   OH276738   4.743   6.021   4.469 -0.1064  0.1752  0.0943
18416TIP3    H176739   4.698   6.027   4.385  1.5855  0.3762 -0.8405
18416TIP3    H276740   4.739   5.928   4.491 -0.1026  0.0353 -0.4784
18417TIP3   OH276741   1.378   5.927   3.202  0.4596 -0.1976 -0.3707
18417TIP3    H176742   1.456   5.937   3.257  0.0549  0.1582  0.1553
18417TIP3    H276743   1.409   5.881   3.124  0.8994 -1.4044  0.4827
18418TIP3   OH276744   2.427   6.406  14.112 -0.2299 -0.0571  0.4027
18418TIP3    H176745   2.396   6.431  14.025 -1.8945  0.4591  1.0990
18418TIP3    H276746   2.511   6.362  14.096  0.5089  1.8180 -1.2762
18419TIP3   OH276747   3.710   1.480   4.239  0.8525 -0.0064  0.1149
18419TIP3    H176748   3.765   1.402   4.230 -1.0735 -1.4754  0.5382
18419TIP3    H276749   3.653   1.479   4.162  1.6847  1.7998 -0.6044
18420TIP3   OH276750   5.735   3.929   2.147  0.0894  0.2279 -0.2718
18420TIP3    H176751   5.646   3.966   2.144 -0.1878 -0.2422  1.1885
18420TIP3    H276752   5.792   4.006   2.153 -0.3780  0.4999  1.0461
18421TIP3   OH276753   5.086   6.794  12.655 -0.1618  0.2392 -0.1819
18421TIP3    H176754   5.125   6.807  12.741  0.2219  1.0358 -0.4621
18421TIP3    H276755   5.014   6.733  12.670  0.3951 -0.2425  0.5614
18422TIP3   OH276756   5.901   3.602   2.703 -0.6308 -0.6939  0.7889
18422TIP3    H176757   5.925   3.648   2.783  1.7731 -1.2040  0.4330
18422TIP3    H276758   5.928   3.660   2.632  0.0328 -1.5005  0.3549
18423TIP3   OH276759   0.736   4.833   2.182 -0.5394 -0.5252  0.1151
18423TIP3    H176760   0.651   4.876   2.169 -0.5265 -0.7027 -0.5527
18423TIP3    H276761   0.715   4.740   2.189 -0.4937 -0.4893  0.9170
18424TIP3   OH276762   2.170   6.256  15.905 -0.6232  0.1494 -0.9032
18424TIP3    H176763   2.218   6.176  15.881  1.0463  0.5056  1.0003
18424TIP3    H276764   2.238   6.320  15.925 -1.9314  1.4404 -0.4156
18425TIP3   OH276765   6.241   5.152  10.459  0.2152 -0.7662  0.0388
18425TIP3    H176766   6.265   5.126  10.548 -2.1283 -1.2951  0.5922
18425TIP3    H276767   6.295   5.229  10.442 -0.9811  0.8990  2.9301
18426TIP3   OH276768   5.937   6.378   4.434  0.1073  0.2994 -0.2056
18426TIP3    H176769   5.879   6.308   4.402  1.3773 -0.0744 -1.8503
18426TIP3    H276770   5.882   6.429   4.493 -0.7326 -2.3944  1.5351
18427TIP3   OH276771   0.705   2.158  10.908 -0.0736  0.2573  0.1947
18427TIP3    H176772   0.675   2.070  10.886 -0.3325 -0.2635  2.4630
18427TIP3    H276773   0.695   2.208  10.827 -0.8347 -1.5440 -0.8626
18428TIP3   OH276774   5.977   2.519   0.851 -0.1491  0.3858 -0.5888
18428TIP3    H176775   6.043   2.455   0.877 -0.5863  0.0019 -0.4058
18428TIP3    H276776   5.936   2.548   0.933 -0.0125  0.8361 -0.6774
18429TIP3   OH276777   0.024   5.683   0.087  0.0631  0.0741  0.2186
18429TIP3    H176778  -0.044   5.650   0.145  0.3555  0.0462  0.5461
18429TIP3    H276779   0.069   5.604   0.056 -0.0381  0.0940  0.0168
18430TIP3   OH276780   1.777   1.732  12.653 -0.3195 -0.1617 -0.5785
18430TIP3    H176781   1.783   1.793  12.579 -0.3384  0.1310 -0.3419
18430TIP3    H276782   1.868   1.706  12.670 -0.5106 -2.5279 -2.5705
18431TIP3   OH276783   6.239   1.425   0.224 -0.4251 -0.0176  0.6459
18431TIP3    H176784   6.177   1.494   0.202 -1.0648 -1.0161 -0.8968
18431TIP3    H276785   6.293   1.462   0.294 -1.5123  1.5762  0.6960
18432TIP3   OH276786   3.169   3.764  13.886 -0.2364 -0.2670  0.0767
18432TIP3    H176787   3.233   3.704  13.925  0.1792  0.7429  1.0154
18432TIP3    H276788   3.221   3.829  13.840 -0.6606 -0.3694 -0.5578
18433TIP3   OH276789   4.103   2.757   5.155  0.2006 -0.0612  0.1508
18433TIP3    H176790   4.013   2.788   5.145  1.3925  3.2813 -1.7109
18433TIP3    H276791   4.129   2.730   5.067  0.1388 -4.3324  1.2095
18434TIP3   OH276792   1.563   2.777  12.033 -0.3662 -0.6533  0.4124
18434TIP3    H176793   1.569   2.694  11.987 -0.8810  0.1575 -1.1902
18434TIP3    H276794   1.652   2.813  12.029 -0.0638 -1.2547  1.4076
18435TIP3   OH276795   4.960   3.472   5.720  0.1405  0.4457 -0.5526
18435TIP3    H176796   5.047   3.505   5.745 -0.2379  0.2654  1.1795
18435TIP3    H276797   4.978   3.386   5.680  0.7385  0.0710  0.4753
18436TIP3   OH276798   1.417   5.152   3.041 -0.4945  0.0969 -0.2464
18436TIP3    H176799   1.384   5.084   3.100  0.3673 -0.3198 -0.2306
18436TIP3    H276800   1.511   5.139   3.040 -0.6241 -1.5305 -3.6313
18437TIP3   OH276801   5.485   4.244   1.848  0.1002 -0.0780 -0.0784
18437TIP3    H176802   5.429   4.170   1.824 -0.5819  1.1387 -2.5329
18437TIP3    H276803   5.564   4.231   1.797  1.3154 -0.6874  1.8396
18438TIP3   OH276804   0.690   4.394  12.032 -0.1304 -0.0343  0.2170
18438TIP3    H176805   0.723   4.337  11.963 -0.1874 -1.0475  1.0072
18438TIP3    H276806   0.596   4.379  12.033 -0.1194 -0.0951  0.5762
18439TIP3   OH276807   4.313   0.997  11.915  0.1614 -0.7696 -0.1300
18439TIP3    H176808   4.260   0.919  11.906 -0.9687  0.1037 -1.4217
18439TIP3    H276809   4.250   1.068  11.929  1.0133  0.1528 -0.7575
18440TIP3   OH276810   2.633   4.205   1.017  0.5746  0.7428  0.2245
18440TIP3    H176811   2.659   4.258   0.942 -3.6182  1.2001 -1.2091
18440TIP3    H276812   2.563   4.255   1.059 -0.8198 -1.8045  1.2042
18441TIP3   OH276813   4.310   0.955   0.692  0.3683  0.0397 -0.5829
18441TIP3    H176814   4.347   1.001   0.617  1.7789 -1.0059 -0.5615
18441TIP3    H276815   4.385   0.914   0.735  0.1270  2.8095  3.0636
18442TIP3   OH276816   0.986   4.993   2.163 -0.0478 -0.2964  0.0163
18442TIP3    H176817   0.933   5.055   2.113 -0.7513 -0.1956  0.8620
18442TIP3    H276818   0.926   4.921   2.183  0.0557 -0.1007  1.1417
18443TIP3   OH276819   5.183   0.751  16.643 -0.5317  0.6628 -0.3420
18443TIP3    H176820   5.245   0.679  16.655 -0.4721  0.8719  0.7780
18443TIP3    H276821   5.127   0.723  16.571  0.2527  0.0372 -0.7148
18444TIP3   OH276822   0.425   5.085   3.604 -0.0779 -0.2661  0.1860
18444TIP3    H176823   0.433   5.155   3.540 -2.1891 -0.0050  0.1372
18444TIP3    H276824   0.353   5.030   3.571 -1.0910 -0.2311  2.1801
18445TIP3   OH276825   5.513   1.004   1.514  0.3181 -0.2617 -0.2626
18445TIP3    H176826   5.487   1.001   1.606 -2.3335  0.8381 -0.8727
18445TIP3    H276827   5.603   0.974   1.513  0.8588  0.9211  2.8542
18446TIP3   OH276828   0.923   3.827  11.589  0.0028 -0.3123  0.2788
18446TIP3    H176829   0.906   3.812  11.496 -0.6964  0.6767  0.2379
18446TIP3    H276830   0.838   3.810  11.631  0.6460 -2.1817  0.9359
18447TIP3   OH276831   2.246   2.953  14.114  0.3750  0.2693 -0.0610
18447TIP3    H176832   2.299   2.899  14.056 -0.8011 -1.9162  0.7671
18447TIP3    H276833   2.199   2.890  14.169 -2.8378  2.0014 -0.5358
18448TIP3   OH276834   5.534   3.160  16.587 -0.3469  0.2858 -0.6346
18448TIP3    H176835   5.629   3.174  16.581 -0.2517 -0.2136 -0.3891
18448TIP3    H276836   5.525   3.080  16.640 -0.8653 -0.4030 -1.7307
18449TIP3   OH276837   1.519   6.560   2.955  0.3081 -0.5342 -0.3590
18449TIP3    H176838   1.506   6.652   2.932 -1.6585 -0.7781 -0.3993
18449TIP3    H276839   1.592   6.561   3.017  0.7749  0.9607 -0.8930
18450TIP3   OH276840   1.457   4.740  16.428 -0.0069  0.0889  0.1798
18450TIP3    H176841   1.466   4.655  16.470  0.1137  0.2481  0.4748
18450TIP3    H276842   1.489   4.726  16.339 -3.5300 -1.1724 -1.0642
18451TIP3   OH276843   6.288   1.583  10.838  0.4398 -0.0143 -0.0901
18451TIP3    H176844   6.215   1.644  10.829  1.4206  1.9887  3.2784
18451TIP3    H276845   6.356   1.620  10.782  0.4073  1.0117  0.5114
18452TIP3   OH276846   4.435   5.883   3.988  0.0589  0.8521 -0.1835
18452TIP3    H176847   4.488   5.844   4.058 -0.1143  0.1633 -0.4213
18452TIP3    H276848   4.436   5.817   3.918 -3.0252 -0.2869  0.6907
18453TIP3   OH276849   3.560   0.316  12.351 -0.1715  0.1397 -0.2863
18453TIP3    H176850   3.471   0.300  12.319 -0.2885 -1.5355  0.7133
18453TIP3    H276851   3.548   0.373  12.427 -0.4289 -0.1510 -0.1014
18454TIP3   OH276852   6.562   2.623   6.166 -0.0263  0.0581  0.4238
18454TIP3    H176853   6.509   2.552   6.131 -1.1583  1.2395 -0.3120
18454TIP3    H276854   6.501   2.678   6.214  0.3552  1.8078 -0.9830
18455TIP3   OH276855   3.085   0.966   2.988 -0.3560  0.2225  0.0245
18455TIP3    H176856   3.089   0.871   2.977 -0.2578  0.2051  0.2003
18455TIP3    H276857   3.149   0.985   3.057 -1.1930  0.2721  0.8179
18456TIP3   OH276858   3.540   1.935   2.399  0.0901 -0.1429 -1.0275
18456TIP3    H176859   3.498   1.957   2.316  0.5118 -2.7648 -2.0336
18456TIP3    H276860   3.488   1.863   2.434 -1.3173  2.1424  2.1228
18457TIP3   OH276861   6.094   3.487   6.427  0.0167  0.8400  0.3284
18457TIP3    H176862   6.098   3.578   6.398 -2.2835  0.2856 -2.1206
18457TIP3    H276863   6.001   3.471   6.444  0.1695 -1.3668 -0.5470
18458TIP3   OH276864   0.505   1.825   5.119  0.0672 -0.3872  0.2155
18458TIP3    H176865   0.588   1.779   5.133 -0.1486 -0.5916  0.8461
18458TIP3    H276866   0.438   1.761   5.141 -0.2306  0.6784  2.6745
18459TIP3   OH276867   3.750   0.882  10.945  0.1583 -0.1672 -0.5011
18459TIP3    H176868   3.789   0.969  10.950 -1.3736  0.6662 -1.9343
18459TIP3    H276869   3.661   0.898  10.914  0.0455 -2.3023 -1.4157
18460TIP3   OH276870   6.732   5.017   5.168  0.3197  0.3975  0.2264
18460TIP3    H176871   6.775   4.966   5.235 -2.1432 -0.6224  1.1346
18460TIP3    H276872   6.719   4.956   5.095  1.0719  0.9172 -0.3649
18461TIP3   OH276873   6.377   2.572  13.474  0.7833  0.3326 -0.0242
18461TIP3    H176874   6.303   2.606  13.525 -0.4416 -0.4242 -1.2055
18461TIP3    H276875   6.374   2.621  13.392  0.6244 -0.7497 -0.6863
18462TIP3   OH276876   2.684   5.188   5.292  0.2067  0.6061  0.0853
18462TIP3    H176877   2.657   5.195   5.200 -1.5768 -1.4164  0.3818
18462TIP3    H276878   2.647   5.105   5.322 -0.4213  1.8208  3.0191
18463TIP3   OH276879   4.494   5.231   1.424  0.0368  0.0611  0.2276
18463TIP3    H176880   4.417   5.283   1.401 -0.7653 -0.8753  0.7017
18463TIP3    H276881   4.568   5.281   1.389 -0.6169  1.8962  1.3288
18464TIP3   OH276882   1.919   4.761  15.133  0.6193 -0.8835 -0.3075
18464TIP3    H176883   1.944   4.717  15.214  2.0263 -0.4947 -0.5082
18464TIP3    H276884   1.856   4.702  15.092 -1.4960 -0.3039  1.8668
18465TIP3   OH276885   0.039   2.599  11.465  0.4124 -0.2506 -0.3719
18465TIP3    H176886   0.001   2.687  11.472  1.7833  0.2658  0.9618
18465TIP3    H276887  -0.022   2.543  11.514  0.3444  0.2315  0.1067
18466TIP3   OH276888   1.460   3.441   1.942  0.1009 -0.8991  0.1346
18466TIP3    H176889   1.431   3.433   1.852 -1.9383 -2.4276  0.8700
18466TIP3    H276890   1.555   3.431   1.938  0.0386 -0.9022 -1.8135
18467TIP3   OH276891   4.957   3.933   5.728  0.0654  0.1690 -0.5921
18467TIP3    H176892   4.984   3.981   5.807 -0.2416 -0.4135 -0.1249
18467TIP3    H276893   5.035   3.884   5.702  0.1340  0.2728 -0.5829
18468TIP3   OH276894   0.651   4.434   4.878 -0.2450  0.2090 -0.0800
18468TIP3    H176895   0.657   4.476   4.964 -0.6826  0.3740 -0.1291
18468TIP3    H276896   0.736   4.451   4.837  0.3114 -0.6427  0.6699
18469TIP3   OH276897   0.060   3.935   4.822  0.2806  0.5607 -0.1733
18469TIP3    H176898   0.098   3.890   4.747 -0.5430  1.9543 -1.5069
18469TIP3    H276899   0.135   3.965   4.873  0.8802  0.2111 -0.8341
18470TIP3   OH276900   4.571   3.431   6.079 -0.5554  0.0155  0.3145
18470TIP3    H176901   4.523   3.449   6.159 -0.5562  1.0377  0.0908
18470TIP3    H276902   4.635   3.364   6.104  0.9782  1.9009  1.7568
18471TIP3   OH276903   0.051   1.152  15.434 -0.3100  0.1854  0.3671
18471TIP3    H176904   0.058   1.228  15.492 -0.8486  0.3181  0.2624
18471TIP3    H276905  -0.043   1.134  15.429 -0.1189 -1.5267  1.7334
18472TIP3   OH276906   1.080   0.055   2.530  0.0237 -0.0713 -0.1662
18472TIP3    H176907   1.010   0.032   2.468  2.1104 -0.7784 -2.4465
18472TIP3    H276908   1.092   0.149   2.519 -1.1122  0.2237  0.9084
18473TIP3   OH276909   2.398   2.265   2.010  0.1285  0.6476  0.2639
18473TIP3    H176910   2.369   2.179   1.979  2.0871 -0.4061  1.1602
18473TIP3    H276911   2.361   2.272   2.098  3.6660 -1.4908  2.1468
18474TIP3   OH276912   5.338   3.751  11.391  0.2579 -0.7269 -0.0528
18474TIP3    H176913   5.356   3.767  11.298  0.2008 -0.1250  0.0376
18474TIP3    H276914   5.246   3.725  11.393  0.0051  0.1387 -0.0703
18475TIP3   OH276915   3.381   2.010   4.053  0.4657 -0.0251 -0.1963
18475TIP3    H176916   3.316   1.986   3.987  0.3171  1.3644 -0.5828
18475TIP3    H276917   3.371   1.945   4.122 -1.0868 -0.0392 -0.4143
18476TIP3   OH276918   6.478   2.622   3.636  0.0791 -0.1096 -0.5419
18476TIP3    H176919   6.385   2.639   3.650  0.1177 -0.8232  0.6487
18476TIP3    H276920   6.522   2.662   3.711  0.7693  0.4702 -1.2346
18477TIP3   OH276921   5.471   5.632   3.686  0.1658 -0.2737  0.0778
18477TIP3    H176922   5.488   5.713   3.637 -0.2830 -1.5410 -2.3383
18477TIP3    H276923   5.402   5.655   3.747  0.0443  1.1862 -0.5589
18478TIP3   OH276924   1.592   2.275   1.061  0.5592 -0.6711 -0.0456
18478TIP3    H176925   1.558   2.314   1.141  0.6822  0.7916 -0.6542
18478TIP3    H276926   1.566   2.183   1.064 -1.3754 -0.1410  0.6169
18479TIP3   OH276927   1.477   3.981   6.251  0.0322 -0.0857  0.7621
18479TIP3    H176928   1.412   4.009   6.315 -1.2492 -1.8827  0.3486
18479TIP3    H276929   1.425   3.954   6.175  1.3654 -0.1709 -0.1550
18480TIP3   OH276930   1.821   0.011  16.139  0.1849  0.3270 -0.7484
18480TIP3    H176931   1.888  -0.045  16.179 -0.1115  0.8053  0.4729
18480TIP3    H276932   1.739  -0.035  16.156 -0.0072  0.8595 -0.1894
18481TIP3   OH276933   5.387   6.501   0.004 -0.4496  0.0930  0.3513
18481TIP3    H176934   5.353   6.590  -0.007 -0.0085  0.0548 -1.8880
18481TIP3    H276935   5.478   6.506  -0.028  0.3192 -0.7138  2.2686
18482TIP3   OH276936   2.667   1.203   5.430  0.3690 -0.0742 -0.1469
18482TIP3    H176937   2.760   1.215   5.412  0.4919 -1.1535 -0.3536
18482TIP3    H276938   2.628   1.190   5.343 -0.2667  1.9977 -0.2161
18483TIP3   OH276939   1.926   6.649  16.955 -0.1437  0.4386  0.2732
18483TIP3    H176940   1.875   6.572  16.931  0.8900 -0.1439 -0.1258
18483TIP3    H276941   1.904   6.713  16.887  0.4856 -0.1911 -0.5512
18484TIP3   OH276942   1.854   6.699   0.237  0.3423  0.7168 -0.5676
18484TIP3    H176943   1.924   6.747   0.193  0.4405  0.2568 -0.9280
18484TIP3    H276944   1.883   6.692   0.328  0.2033  1.5571 -0.4493
18485TIP3   OH276945   1.253   6.449  13.032  0.0499  1.2089 -0.5480
18485TIP3    H176946   1.245   6.543  13.052  2.0536  1.1254  0.9267
18485TIP3    H276947   1.324   6.444  12.968  1.6516  0.5812  1.1789
18486TIP3   OH276948   4.999   4.895   0.277  0.5682  0.0127  0.3322
18486TIP3    H176949   4.944   4.940   0.341  0.6033  2.4619 -1.2247
18486TIP3    H276950   5.003   4.955   0.202  2.8747 -1.4370 -0.8234
18487TIP3   OH276951   1.188   1.435  13.953 -0.1309  0.1076 -0.3555
18487TIP3    H176952   1.180   1.488  14.032  0.6145  0.0375 -0.2283
18487TIP3    H276953   1.231   1.355  13.981  0.9610  0.4530 -0.9754
18488TIP3   OH276954   1.888   1.273   5.018  0.8144  0.8035 -0.0499
18488TIP3    H176955   1.943   1.196   5.008 -1.2829 -1.6624  4.4522
18488TIP3    H276956   1.917   1.314   5.099 -0.5283  2.6103 -0.4068
18489TIP3   OH276957   1.362   2.644   5.042  0.2259 -0.1520  0.0159
18489TIP3    H176958   1.416   2.568   5.021  0.9384  0.0509  0.9963
18489TIP3    H276959   1.407   2.685   5.117 -1.2852  0.0339  0.8605
18490TIP3   OH276960   4.066   2.634   6.213  0.1217  0.3998 -0.4313
18490TIP3    H176961   4.104   2.575   6.148 -1.9600 -1.4383 -0.0921
18490TIP3    H276962   4.096   2.600   6.297  1.1882  1.5713 -0.3105
18491TIP3   OH276963   5.767   0.685  16.373  0.5652  0.0750 -0.2288
18491TIP3    H176964   5.701   0.618  16.358  1.2035 -0.7095  0.3823
18491TIP3    H276965   5.717   0.767  16.378 -0.1637 -0.2552 -1.5758
18492TIP3   OH276966   5.688   0.676   2.414  0.0010  0.1445 -0.3801
18492TIP3    H176967   5.725   0.757   2.377 -0.1661  0.8265  0.9023
18492TIP3    H276968   5.679   0.694   2.507 -2.8359 -0.2706 -0.4901
18493TIP3   OH276969   6.677   3.961   2.205  0.4609  0.1880 -0.0782
18493TIP3    H176970   6.725   4.043   2.203  1.0017 -0.0903  0.8162
18493TIP3    H276971   6.653   3.949   2.297 -0.6186 -0.0876 -0.3815
18494TIP3   OH276972   2.144   1.599  12.143  0.4763  0.5991  0.1576
18494TIP3    H176973   2.127   1.693  12.141 -1.1468  0.5370  3.6538
18494TIP3    H276974   2.224   1.590  12.194  0.5385  0.0774 -0.0237
18495TIP3   OH276975   1.815   4.595   5.194  0.2415  0.1232 -0.0567
18495TIP3    H176976   1.893   4.647   5.212  0.5562  0.5799 -2.4354
18495TIP3    H276977   1.748   4.633   5.251  1.4249  0.5408  1.1045
18496TIP3   OH276978   5.806   1.160   5.058  0.0942 -0.4538  0.5761
18496TIP3    H176979   5.869   1.107   5.009  0.8962 -1.4427  2.5673
18496TIP3    H276980   5.829   1.145   5.149 -0.6382  2.1580  1.2698
18497TIP3   OH276981   6.546   6.290  14.416 -0.1778 -0.2468  0.1054
18497TIP3    H176982   6.598   6.240  14.353 -0.8810 -0.6703 -0.1521
18497TIP3    H276983   6.456   6.261  14.400 -0.5241  0.6876  0.3476
18498TIP3   OH276984   5.405   0.334   4.038  0.5978 -0.2833  0.3008
18498TIP3    H176985   5.493   0.357   4.010  0.8248 -1.3167  0.1180
18498TIP3    H276986   5.406   0.239   4.045 -0.3886 -0.2801  0.6944
18499TIP3   OH276987   1.748   4.842  17.235  0.0404 -0.0233  1.1176
18499TIP3    H176988   1.790   4.928  17.226 -0.2140  0.0742  0.8483
18499TIP3    H276989   1.669   4.849  17.182  0.5036 -0.7509  0.3132
18500TIP3   OH276990   4.031   2.833   2.649 -0.4424 -0.1793  0.6806
18500TIP3    H176991   4.054   2.744   2.677 -0.5001 -0.2379  0.5412
18500TIP3    H276992   4.070   2.890   2.715  0.2775 -0.2664  0.3403
18501TIP3   OH276993   0.365   1.213  16.680 -0.2514  0.0490  0.1351
18501TIP3    H176994   0.338   1.305  16.679 -1.1594 -0.1826  1.0537
18501TIP3    H276995   0.416   1.201  16.600  1.8637  1.9253  1.1091
18502TIP3   OH276996   4.278   1.357  12.196 -0.9908  0.5527 -0.2235
18502TIP3    H176997   4.342   1.415  12.238 -3.0153  2.0627  0.9231
18502TIP3    H276998   4.292   1.272  12.238  0.8425  0.5778 -0.6767
18503TIP3   OH276999   3.942   5.490  15.688 -0.8015  0.2094  0.0781
18503TIP3    H177000   3.990   5.543  15.751 -0.1207  0.1657 -0.3967
18503TIP3    H277001   3.995   5.411  15.677 -1.4597 -0.2630  0.2629
18504TIP3   OH277002   0.182   3.453   0.001  0.2799  0.1060 -0.0783
18504TIP3    H177003   0.267   3.461   0.043 -0.3548  0.6849  1.1328
18504TIP3    H277004   0.200   3.462  -0.093  1.9563 -2.8260 -0.1598
18505TIP3   OH277005   4.895   5.985  13.913  0.3076  1.0399 -0.3140
18505TIP3    H177006   4.829   5.943  13.857 -0.2917  0.8772  0.4899
18505TIP3    H277007   4.929   6.057  13.861  0.3575  0.3832 -1.1974
18506TIP3   OH277008   4.866   1.355  11.433  0.5735  0.1601  0.3693
18506TIP3    H177009   4.958   1.362  11.457  1.3563 -1.9928 -1.6229
18506TIP3    H277010   4.831   1.289  11.493  0.5744  0.2496  0.4697
18507TIP3   OH277011   2.943   0.250   4.249 -0.4620 -0.0809  0.3089
18507TIP3    H177012   2.960   0.340   4.218 -1.8669 -0.8222 -3.0867
18507TIP3    H277013   2.872   0.260   4.312 -1.5763  1.1156 -1.0645
18508TIP3   OH277014   0.475   3.569   4.059 -0.4613 -0.2892 -0.3224
18508TIP3    H177015   0.402   3.540   4.005 -0.6782 -1.9061  0.7551
18508TIP3    H277016   0.553   3.541   4.011 -0.6499 -1.4685  0.0137
18509TIP3   OH277017   6.240   0.176   2.921 -0.3156  0.3108 -0.5845
18509TIP3    H177018   6.229   0.230   2.999 -0.4084  0.3454 -0.6210
18509TIP3    H277019   6.244   0.086   2.953  1.7285  0.4394 -0.3291
18510TIP3   OH277020   5.875   4.107   2.515 -0.2582  0.1369 -0.0937
18510TIP3    H177021   5.840   4.146   2.435 -0.4066 -0.4237 -0.3111
18510TIP3    H277022   5.939   4.170   2.547  0.7851 -0.2184 -1.3887
18511TIP3   OH277023   3.875   2.385  12.757  0.0431 -0.0550  0.0107
18511TIP3    H177024   3.954   2.386  12.702 -0.4507  0.1838 -0.7016
18511TIP3    H277025   3.875   2.297  12.795  0.0767 -0.4331 -0.8385
18512TIP3   OH277026   6.223   2.367  14.171  0.2586 -0.1166  0.1183
18512TIP3    H177027   6.196   2.275  14.166 -3.9213  0.8658  0.6791
18512TIP3    H277028   6.195   2.405  14.088  0.4553  0.9690  0.5358
18513TIP3   OH277029   1.211   5.249   0.930 -0.3654  0.2455 -0.0560
18513TIP3    H177030   1.231   5.275   1.020  3.9532  0.5876 -0.9010
18513TIP3    H277031   1.244   5.160   0.923 -1.6748 -0.1843 -1.0501
18514TIP3   OH277032   6.643   5.665   3.463  0.0411 -0.2027  0.1242
18514TIP3    H177033   6.559   5.710   3.472  0.1164 -0.1703  0.7558
18514TIP3    H277034   6.681   5.669   3.551 -0.5063 -2.5842  0.5272
18515TIP3   OH277035   1.119   6.220  15.771 -0.2221 -0.0702  0.0194
18515TIP3    H177036   1.129   6.129  15.798  0.7244 -0.4151 -1.4033
18515TIP3    H277037   1.177   6.269  15.829  0.1334 -0.5148  0.0436
18516TIP3   OH277038   4.959   6.714  16.615 -0.1732  0.9405 -0.6101
18516TIP3    H177039   4.962   6.716  16.710  2.2839  1.3021 -0.6222
18516TIP3    H277040   4.977   6.623  16.592  1.5120  1.2481 -0.6814
18517TIP3   OH277041   6.641   0.314   1.684  0.6368  0.4371 -0.3974
18517TIP3    H177042   6.687   0.352   1.759 -1.0359  1.7516  0.0117
18517TIP3    H277043   6.679   0.227   1.675  0.4916 -0.0004  2.3499
18518TIP3   OH277044   6.803   2.863  11.470 -0.3631 -1.0245  0.0414
18518TIP3    H177045   6.764   2.948  11.452 -2.0436 -1.7363  0.1456
18518TIP3    H277046   6.894   2.871  11.442 -1.1338 -0.0070 -2.3841
18519TIP3   OH277047   1.011   5.259  12.227 -0.3769  0.5108 -0.8524
18519TIP3    H177048   1.054   5.275  12.143  0.8855  0.4389 -0.2499
18519TIP3    H277049   0.957   5.336  12.242  3.3115  3.0775  0.6340
18520TIP3   OH277050   2.898   4.944   3.068  0.0248  0.1417  0.2709
18520TIP3    H177051   2.831   4.970   3.004 -0.3880  0.6530  0.8945
18520TIP3    H277052   2.940   5.026   3.093 -0.3246  0.0492  1.1995
18521TIP3   OH277053   3.099   3.977  11.181  0.2822  0.0184  0.2373
18521TIP3    H177054   3.121   3.957  11.090  0.0975 -0.0234  0.2016
18521TIP3    H277055   3.006   4.001  11.179  0.4467  0.6742  0.3157
18522TIP3   OH277056   4.061   3.916   4.029 -0.0612  0.5201  0.4491
18522TIP3    H177057   4.030   3.871   4.108 -0.7178  0.5215  0.1942
18522TIP3    H277058   4.013   3.998   4.027  0.2184  0.6800  0.2363
18523TIP3   OH277059   0.006   0.320  10.960 -0.4094  0.4561  0.1128
18523TIP3    H177060   0.025   0.355  10.873  1.3120 -2.6806 -0.8994
18523TIP3    H277061  -0.070   0.263  10.948 -1.0888  1.1281  1.0233
18524TIP3   OH277062   4.037   1.104  15.708 -0.2356 -0.4383 -0.4069
18524TIP3    H177063   4.032   1.188  15.663  1.6149 -0.3026 -0.4356
18524TIP3    H277064   4.043   1.128  15.801 -1.0209 -0.6047 -0.3063
18525TIP3   OH277065   3.950   0.435   0.233 -0.6029  0.0827 -0.4598
18525TIP3    H177066   3.856   0.445   0.218 -0.5623 -0.9358 -1.5841
18525TIP3    H277067   3.983   0.398   0.151  0.5181 -1.1016  0.4791
18526TIP3   OH277068   5.184   6.820   6.308  0.2743  0.2645  0.6805
18526TIP3    H177069   5.268   6.844   6.347 -0.2212  0.5943  1.5735
18526TIP3    H277070   5.148   6.903   6.276 -0.2193  0.3128  1.3364
18527TIP3   OH277071   0.253   5.377  15.008 -0.2658 -0.1280 -0.2392
18527TIP3    H177072   0.171   5.329  15.021 -0.5544  0.7344  1.4363
18527TIP3    H277073   0.313   5.313  14.970 -1.7906 -0.6834 -1.8210
18528TIP3   OH277074   3.356   5.511  14.359  0.0482 -0.6709  0.4709
18528TIP3    H177075   3.341   5.441  14.296  0.5510  0.0269 -0.4402
18528TIP3    H277076   3.443   5.493  14.394  1.0042  0.5364 -1.1731
18529TIP3   OH277077   4.248   2.633  16.767  0.1071  0.0218  0.7009
18529TIP3    H177078   4.214   2.589  16.689  2.6781  0.7126 -0.9475
18529TIP3    H277079   4.170   2.654  16.819 -1.6315 -1.3722 -1.1694
18530TIP3   OH277080   1.074   1.929   5.071 -0.1916  0.9802  0.0925
18530TIP3    H177081   1.093   2.023   5.072 -0.1669  0.9737  0.7938
18530TIP3    H277082   1.009   1.917   5.140  0.5166  0.3501  0.6765
18531TIP3   OH277083   5.437   6.414   1.554  0.0782  0.1274 -0.4323
18531TIP3    H177084   5.385   6.355   1.609 -0.5526  2.2217  1.3629
18531TIP3    H277085   5.509   6.443   1.611  1.2997 -0.0917 -1.7974
18532TIP3   OH277086   4.489   2.125  12.892 -0.0820  0.5268  0.2036
18532TIP3    H177087   4.429   2.053  12.873 -0.8245  0.7041  1.6491
18532TIP3    H277088   4.468   2.192  12.827 -2.3971  1.0684  1.3631
18533TIP3   OH277089   4.182   6.521  14.364 -0.4209  0.1827 -0.3344
18533TIP3    H177090   4.197   6.606  14.324 -1.9829  0.1875 -0.9785
18533TIP3    H277091   4.132   6.539  14.444 -3.2513 -0.2240 -1.8737
18534TIP3   OH277092   5.061   5.866   5.379  0.0280 -0.4270  0.2651
18534TIP3    H177093   4.986   5.908   5.338  0.2554 -0.5634 -0.2997
18534TIP3    H277094   5.069   5.781   5.334  0.1894 -0.6445  0.6946
18535TIP3   OH277095   5.924   0.912  12.255  0.5415 -0.9198  0.8646
18535TIP3    H177096   5.918   0.832  12.308 -0.5501 -1.4354  0.0166
18535TIP3    H277097   5.950   0.881  12.168 -0.7767 -0.4835  0.2866
18536TIP3   OH277098   1.377   2.140   2.736 -0.8828 -0.8700  0.5011
18536TIP3    H177099   1.300   2.083   2.729 -2.5174  1.2781 -0.2023
18536TIP3    H277100   1.440   2.102   2.675 -1.9788 -1.8313 -0.0815
18537TIP3   OH277101   1.408   3.518  16.718 -0.2134 -0.3353  0.0921
18537TIP3    H177102   1.347   3.481  16.654  1.1341 -1.8012 -0.4164
18537TIP3    H277103   1.494   3.486  16.691  1.2960  3.8454 -0.8984
18538TIP3   OH277104   6.731   6.771  11.436  0.1330 -0.5507 -0.3847
18538TIP3    H177105   6.688   6.826  11.370  0.2157  1.9006  1.4342
18538TIP3    H277106   6.676   6.694  11.443 -0.6420 -0.2374 -2.2850
18539TIP3   OH277107   0.939   1.787  13.892  0.6035  0.1715  0.0853
18539TIP3    H177108   1.026   1.811  13.861  0.3457 -0.3472 -1.0677
18539TIP3    H277109   0.955   1.736  13.971  1.3051  0.7700  0.3409
18540TIP3   OH277110   6.601   1.149  17.271  0.2926  0.4944 -0.3940
18540TIP3    H177111   6.621   1.230  17.225 -1.0677  0.8479 -0.3814
18540TIP3    H277112   6.687   1.117  17.301  0.8486  1.8729 -0.4523
18541TIP3   OH277113   4.700   6.655  15.090  0.0496 -0.0985 -0.1169
18541TIP3    H177114   4.782   6.616  15.121 -0.0939 -0.0250  0.3599
18541TIP3    H277115   4.645   6.663  15.169 -1.7503 -3.2808 -0.8750
18542TIP3   OH277116   0.004   1.635  11.886 -0.1434 -0.4176 -0.0895
18542TIP3    H177117  -0.055   1.698  11.846  0.2048 -0.1599 -0.1984
18542TIP3    H277118   0.021   1.670  11.974  0.9319  0.2324 -0.5375
18543TIP3   OH277119   4.371   4.783   0.646  0.3286  0.0376  0.2688
18543TIP3    H177120   4.355   4.709   0.588  0.9229  0.1531 -0.0471
18543TIP3    H277121   4.296   4.784   0.705  0.2774 -0.7604  0.2197
18544TIP3   OH277122   5.807   2.154   0.996 -0.2838  0.3014 -0.1362
18544TIP3    H177123   5.770   2.189   1.077 -1.6459 -0.7022 -0.2841
18544TIP3    H277124   5.888   2.111   1.023 -0.7359 -0.0420  0.7084
18545TIP3   OH277125   0.121   4.346   1.488 -1.0615 -0.6826  0.4576
18545TIP3    H177126   0.108   4.407   1.415 -0.0781  0.0655  0.8885
18545TIP3    H277127   0.041   4.294   1.490 -1.4776 -0.1154 -0.5889
18546TIP3   OH277128   3.476   0.320   3.409 -0.4439 -1.0113  0.2458
18546TIP3    H177129   3.488   0.328   3.314 -0.8431 -2.9388 -0.0143
18546TIP3    H277130   3.391   0.361   3.426  0.1724  0.4341 -0.0091
18547TIP3   OH277131   0.991   1.155  14.492  0.1166  0.0511  0.1276
18547TIP3    H177132   1.017   1.238  14.452 -0.9374  0.5006  0.3589
18547TIP3    H277133   0.950   1.180  14.575 -0.3124 -0.6952  0.1463
18548TIP3   OH277134   3.380   3.086  14.200  0.4264  0.0403  0.0191
18548TIP3    H177135   3.430   3.032  14.138  1.5441 -0.6368  1.4700
18548TIP3    H277136   3.311   3.126  14.146  0.9721 -1.0207 -1.5372
18549TIP3   OH277137   6.411   0.040  14.500 -0.0509  0.4476  0.4945
18549TIP3    H177138   6.392   0.121  14.546 -0.6362  0.1543  0.7748
18549TIP3    H277139   6.459   0.067  14.421 -0.1762  1.0526  0.6259
18550TIP3   OH277140   0.607   4.783  13.404 -0.1027  0.0122  0.1047
18550TIP3    H177141   0.568   4.736  13.330 -2.0060  0.0255  1.0428
18550TIP3    H277142   0.536   4.838  13.437 -0.3157 -2.1386  3.7349
18551TIP3   OH277143   0.671   1.517   0.559  0.3105 -0.6452 -0.1224
18551TIP3    H177144   0.749   1.463   0.570 -1.0924 -2.6766  0.5868
18551TIP3    H277145   0.673   1.579   0.631  0.4005 -1.8626  0.9574
18552TIP3   OH277146   2.279   3.647   2.984 -0.1783  0.2242  0.1916
18552TIP3    H177147   2.366   3.607   2.988 -0.2353  0.0670 -0.1222
18552TIP3    H277148   2.296   3.738   2.959 -0.0156  0.5213  1.3471
18553TIP3   OH277149   3.336   2.254   2.505  0.0503 -0.0581  0.3048
18553TIP3    H177150   3.390   2.273   2.581  0.5745 -1.4622  0.3168
18553TIP3    H277151   3.371   2.310   2.436  0.1587  0.5527  0.8468
18554TIP3   OH277152   1.313   1.550  12.274  0.3225  0.0896  0.0866
18554TIP3    H177153   1.341   1.484  12.337  0.0678  0.5620  0.7104
18554TIP3    H277154   1.372   1.624  12.290  1.1017 -0.2457 -1.1156
18555TIP3   OH277155   1.471   1.000  17.262 -0.3643  0.2995 -0.6230
18555TIP3    H177156   1.440   0.999  17.171  0.2481 -2.0172 -0.8690
18555TIP3    H277157   1.393   0.981  17.314 -0.0531 -2.5808 -1.0377
18556TIP3   OH277158   4.642   6.668   0.734  0.4787 -0.4999 -1.2442
18556TIP3    H177159   4.651   6.745   0.679  3.3286  0.1127 -0.1414
18556TIP3    H277160   4.570   6.618   0.696 -0.2701  1.8125 -3.0538
18557TIP3   OH277161   2.252   3.933   0.928  0.1793  0.1572 -0.2225
18557TIP3    H177162   2.256   3.866   0.996  0.8917 -0.5016 -0.8961
18557TIP3    H277163   2.336   3.927   0.883  0.4545  1.8395  0.0023
18558TIP3   OH277164   1.906   4.433  11.054  0.7713  0.1219 -0.2926
18558TIP3    H177165   1.859   4.470  10.979  0.9301  1.3174  0.1669
18558TIP3    H277166   1.954   4.508  11.090 -0.5170 -0.0636  1.9288
18559TIP3   OH277167   0.608   2.110  15.689 -0.0430 -0.0265  0.1939
18559TIP3    H177168   0.626   2.189  15.638 -0.2643 -0.1529 -0.0863
18559TIP3    H277169   0.602   2.140  15.779  0.1016  0.2416  0.1149
18560TIP3   OH277170   1.129   5.288   0.051 -0.0938  0.5310  0.1144
18560TIP3    H177171   1.153   5.375   0.017 -0.9757  0.2518 -1.2877
18560TIP3    H277172   1.127   5.232  -0.026  0.4114 -0.7468  0.9993
18561TIP3   OH277173   1.046   6.032  15.556  0.2301 -0.3727  0.1812
18561TIP3    H177174   1.074   5.968  15.622  1.0836 -0.3833 -0.1762
18561TIP3    H277175   1.062   6.117  15.597  0.5811 -0.3811  0.0665
18562TIP3   OH277176   6.518   1.924   5.639  0.2948 -0.2918 -0.0802
18562TIP3    H177177   6.599   1.960   5.675  0.2846  0.8427 -1.1125
18562TIP3    H277178   6.534   1.919   5.544 -0.1039 -2.0453 -0.0916
18563TIP3   OH277179   0.878   1.824  14.932  0.4268 -0.2612 -0.1801
18563TIP3    H177180   0.959   1.818  14.983  1.8949  2.1983 -2.0287
18563TIP3    H277181   0.865   1.736  14.897  0.0024 -1.7462  3.2898
18564TIP3   OH277182   6.528   6.558  16.566  0.5467  0.8603  0.7289
18564TIP3    H177183   6.547   6.630  16.507 -0.8650  0.5227 -0.1911
18564TIP3    H277184   6.598   6.495  16.551 -0.0893  0.5265 -1.0519
18565TIP3   OH277185   4.963   0.971  11.952 -0.5434 -0.5385 -1.3557
18565TIP3    H177186   4.897   0.902  11.950 -1.3200  0.1469 -0.3622
18565TIP3    H277187   4.924   1.041  12.004  1.8051 -1.0093  1.2932
18566TIP3   OH277188   5.781   2.641   1.603  0.4680  0.9906  0.1741
18566TIP3    H177189   5.708   2.653   1.663  0.3831  2.1873 -0.1520
18566TIP3    H277190   5.809   2.551   1.618 -2.0273 -0.0231 -0.7544
18567TIP3   OH277191   3.247   3.350  15.372 -0.2745  1.2636  0.5058
18567TIP3    H177192   3.330   3.392  15.350  0.2336  0.4604  0.8525
18567TIP3    H277193   3.210   3.324  15.288 -0.7120  2.5968  0.2672
18568TIP3   OH277194   4.264   2.066   5.180  0.0445 -0.5307  0.0980
18568TIP3    H177195   4.341   2.010   5.172  0.6267  0.1903  0.4977
18568TIP3    H277196   4.293   2.140   5.234 -1.0578 -0.4634  0.6285
18569TIP3   OH277197   4.270   4.695   1.842 -0.1435  0.5576 -0.1518
18569TIP3    H177198   4.256   4.789   1.850 -1.4608  0.4449 -0.8156
18569TIP3    H277199   4.338   4.687   1.775 -0.4425  1.0409 -0.5248
18570TIP3   OH277200   4.985   6.512   5.396 -0.1792  0.1125  0.6294
18570TIP3    H177201   5.065   6.487   5.444  0.5148  0.2960 -0.4037
18570TIP3    H277202   5.010   6.591   5.347 -1.3022  0.7725  1.0731
18571TIP3   OH277203   0.986   5.530  15.436  0.2103  0.3963 -0.0728
18571TIP3    H177204   0.955   5.442  15.415  1.0708  0.5491 -2.2043
18571TIP3    H277205   1.022   5.521  15.525  0.7703 -1.5545 -0.4298
18572TIP3   OH277206   5.531   5.848  15.823 -0.5888  0.6209  0.2452
18572TIP3    H177207   5.439   5.834  15.844 -0.2219 -0.7769  1.0618
18572TIP3    H277208   5.578   5.819  15.901  0.4920  3.5104  0.7893
18573TIP3   OH277209   6.732   5.992   0.235  0.0884  0.5324 -0.5554
18573TIP3    H177210   6.716   6.081   0.266  1.8549  0.0400  2.1203
18573TIP3    H277211   6.806   6.001   0.174  0.6104  0.8419  0.1176
18574TIP3   OH277212   5.902   1.705   2.344  0.1990  0.2987  0.5295
18574TIP3    H177213   5.904   1.745   2.257 -0.7805  0.3870  0.5358
18574TIP3    H277214   5.837   1.636   2.337 -0.4467  0.8034  1.3906
18575TIP3   OH277215   4.044   5.503   1.091 -0.2488  0.0679 -0.1207
18575TIP3    H177216   3.974   5.549   1.044 -1.0203 -1.7685 -0.8604
18575TIP3    H277217   4.010   5.415   1.103  1.8315 -0.7966 -0.2239
18576TIP3   OH277218   3.514   0.244   3.653  0.3004 -0.3208 -0.1249
18576TIP3    H177219   3.486   0.224   3.563 -0.4188 -1.1894  0.2659
18576TIP3    H277220   3.482   0.333   3.668  0.2053 -0.2597 -0.6389
18577TIP3   OH277221   3.545   1.462  13.404 -0.0652  0.1648  0.2018
18577TIP3    H177222   3.513   1.530  13.346  2.3815  0.0854 -1.3447
18577TIP3    H277223   3.575   1.508  13.482  0.5586  0.7573 -0.3807
18578TIP3   OH277224   2.888   5.707   4.784 -0.1409 -0.3936 -0.3769
18578TIP3    H177225   2.927   5.773   4.726  2.4234  0.4930  2.1541
18578TIP3    H277226   2.904   5.624   4.740  1.1634  0.2859 -1.2530
18579TIP3   OH277227   6.046   4.770  16.249 -0.4190 -0.5321  0.1751
18579TIP3    H177228   6.130   4.815  16.260  0.1813 -1.4008 -0.6047
18579TIP3    H277229   5.992   4.802  16.320  0.0512  1.2251 -0.2158
18580TIP3   OH277230   4.231   2.887  11.970 -0.0624 -0.2506  0.0804
18580TIP3    H177231   4.300   2.897  12.035  0.4551 -0.2274 -0.4707
18580TIP3    H277232   4.203   2.796  11.979  1.5634 -0.9103 -1.1896
18581TIP3   OH277233   1.219   0.054  12.543 -0.3431 -0.1998 -0.5004
18581TIP3    H177234   1.155   0.071  12.474 -1.2330 -2.2714 -0.2799
18581TIP3    H277235   1.226   0.137  12.590 -1.4391  0.6137 -1.6930
18582TIP3   OH277236   3.443   3.149  16.562 -0.0303  0.3161 -0.4144
18582TIP3    H177237   3.534   3.178  16.557  0.4273 -0.9975  0.0057
18582TIP3    H277238   3.411   3.185  16.645 -0.1644  1.4677 -0.9441
18583TIP3   OH277239   3.494   0.122  13.742  0.4979  0.4539 -0.2686
18583TIP3    H177240   3.529   0.043  13.784 -0.7914  0.1737  0.3233
18583TIP3    H277241   3.440   0.163  13.809  0.0648  1.1185 -1.0129
18584TIP3   OH277242   6.512   0.462  16.965  0.1152  0.0352  0.5633
18584TIP3    H177243   6.458   0.540  16.950 -0.6397 -0.0387  2.4813
18584TIP3    H277244   6.448   0.391  16.975  0.7108 -0.5192  0.4686
18585TIP3   OH277245   5.392   2.179   2.066  0.5435 -0.3506 -0.0725
18585TIP3    H177246   5.336   2.102   2.051  0.6397 -0.3963 -0.1997
18585TIP3    H277247   5.481   2.144   2.060  0.5876 -0.2157 -0.1910
18586TIP3   OH277248   1.314   2.643  15.662  0.3883  0.1620  0.1261
18586TIP3    H177249   1.296   2.625  15.754 -1.1198 -2.8465 -0.6231
18586TIP3    H277250   1.409   2.639  15.654  0.7218  2.6446  1.8528
18587TIP3   OH277251   2.581   5.123   1.883 -0.4486 -0.1063  0.1598
18587TIP3    H177252   2.547   5.069   1.954 -1.0581 -0.5693 -0.4634
18587TIP3    H277253   2.661   5.162   1.918 -1.0103  0.0883  1.2720
18588TIP3   OH277254   6.050   0.345   4.401  0.2739  0.1124  0.2475
18588TIP3    H177255   6.119   0.404   4.430  0.4098 -0.2597  0.6892
18588TIP3    H277256   6.025   0.377   4.314 -0.5796  1.6353  1.0199
18589TIP3   OH277257   1.851   4.420   2.620  0.5268 -0.5687  0.0156
18589TIP3    H177258   1.794   4.346   2.642 -1.0035  0.4599 -0.2931
18589TIP3    H277259   1.897   4.393   2.541 -1.2562 -0.5996 -1.0608
18590TIP3   OH277260   5.731   2.948   1.848  0.4640 -0.4308  0.5974
18590TIP3    H177261   5.636   2.949   1.860  0.5486  1.7039  1.6178
18590TIP3    H277262   5.764   2.901   1.925  0.2859  0.1929  1.0635
18591TIP3   OH277263   3.992   1.590  16.017 -0.5491 -0.1183  0.5729
18591TIP3    H177264   3.920   1.569  16.076 -0.1578 -0.2076  1.0288
18591TIP3    H277265   4.070   1.586  16.073 -0.1432 -0.4773 -0.0142
18592TIP3   OH277266   6.241   4.788  14.501 -0.2243  0.0146 -0.0015
18592TIP3    H177267   6.290   4.841  14.563  0.7846 -1.7216  0.7676
18592TIP3    H277268   6.292   4.791  14.421  1.0037 -1.4565  0.6763
18593TIP3   OH277269   3.981   6.609   2.795 -0.3991 -0.2254  0.5649
18593TIP3    H177270   3.893   6.572   2.800  0.0541 -1.3738  0.3434
18593TIP3    H277271   3.968   6.698   2.763 -1.4711 -0.4078  0.4566
18594TIP3   OH277272   1.078   1.387  14.392 -0.1617 -0.0492  0.3964
18594TIP3    H177273   1.067   1.332  14.315 -1.7229  1.4459 -0.5383
18594TIP3    H277274   1.157   1.438  14.375  1.5971 -2.2475  1.5071
18595TIP3   OH277275   4.824   2.147  11.697 -0.5100  0.0516  0.1977
18595TIP3    H177276   4.756   2.140  11.631 -1.1863 -1.0761  0.9647
18595TIP3    H277277   4.902   2.109  11.655 -0.5509  0.6382 -0.4193
18596TIP3   OH277278   2.632   6.804  14.713 -0.4195 -0.2212  0.1448
18596TIP3    H177279   2.641   6.710  14.727 -0.0477 -0.1926  0.0997
18596TIP3    H277280   2.653   6.817  14.621  0.1576 -0.0175  0.2980
18597TIP3   OH277281   1.682   5.980  14.733  0.0140  0.5837 -0.0200
18597TIP3    H177282   1.731   6.044  14.683 -0.7813  1.4270  0.2522
18597TIP3    H277283   1.749   5.929  14.780  0.8398 -0.7931 -2.5196
18598TIP3   OH277284   2.704   3.556  10.588 -0.5211 -0.1346  0.3744
18598TIP3    H177285   2.732   3.607  10.512 -0.7574  0.1143  0.4511
18598TIP3    H277286   2.682   3.470  10.552  0.2758 -0.3199  0.3060
18599TIP3   OH277287   5.870   1.166  15.518  0.3332  0.2918 -0.0054
18599TIP3    H177288   5.952   1.139  15.560  0.9557  1.1699 -0.6196
18599TIP3    H277289   5.891   1.249  15.477 -1.3672  1.4175  1.2953
18600TIP3   OH277290   1.805   0.652  15.390  0.0092  0.3786  0.0643
18600TIP3    H177291   1.724   0.624  15.434  0.8967  0.4214  1.8526
18600TIP3    H277292   1.839   0.573  15.350 -1.2553  0.5044 -1.3232
18601TIP3   OH277293   0.682   4.055   0.483 -0.1729  0.2549 -0.2183
18601TIP3    H177294   0.634   3.977   0.512  0.4043 -0.5958 -1.4611
18601TIP3    H277295   0.617   4.105   0.434 -0.8671  1.1829  1.5611
18602TIP3   OH277296   3.822   1.052  12.850  0.4471 -0.0824 -0.0847
18602TIP3    H177297   3.867   1.086  12.928  0.9191  0.5923 -0.6446
18602TIP3    H277298   3.729   1.053  12.874  0.6281 -0.3804  0.6610
18603TIP3   OH277299   0.694   3.029  16.681 -0.1094 -0.4867 -0.0363
18603TIP3    H177300   0.759   3.056  16.616  0.1416 -1.2354 -0.1024
18603TIP3    H277301   0.717   2.939  16.703 -2.5965 -1.7224 -1.9501
18604TIP3   OH277302   5.437   4.086  16.154 -0.1351 -0.6069  0.0176
18604TIP3    H177303   5.469   4.168  16.118  0.2395 -0.8137 -0.1224
18604TIP3    H277304   5.515   4.032  16.167 -0.5913 -2.3178 -3.2459
18605TIP3   OH277305   5.125   3.354  11.233  0.3901 -0.2845  0.2673
18605TIP3    H177306   5.083   3.319  11.155  0.1710 -0.6998  0.5697
18605TIP3    H277307   5.190   3.417  11.200  0.7068 -0.8858 -0.2680
18606TIP3   OH277308   5.196   2.072   4.297 -0.2017 -0.3105  0.3567
18606TIP3    H177309   5.224   2.016   4.369 -1.1508 -0.0568  0.9387
18606TIP3    H277310   5.276   2.092   4.250  0.6692  0.6086  2.1179
18607TIP3   OH277311   1.578   0.091  15.978  0.5155 -0.1695 -0.5668
18607TIP3    H177312   1.598   0.015  16.033 -0.6619 -1.9760 -2.4974
18607TIP3    H277313   1.625   0.075  15.896  0.3939  1.2965 -0.9521
18608TIP3   OH277314   0.968   0.207  16.430 -0.0705 -0.0849 -0.4598
18608TIP3    H177315   1.039   0.148  16.456 -1.4816 -1.1812  1.0752
18608TIP3    H277316   0.960   0.194  16.335  2.2797  0.6938 -0.8397
18609TIP3   OH277317   3.967   2.814  17.246  0.6526 -0.2800 -0.2383
18609TIP3    H177318   3.993   2.765  17.168  0.5705  1.7975 -1.6712
18609TIP3    H277319   3.940   2.900  17.212  0.0784  0.5150  2.0384
18610TIP3   OH277320   4.550   2.860   5.588  0.0515  0.6696 -0.1284
18610TIP3    H177321   4.630   2.848   5.537 -0.6356 -1.3876 -0.8214
18610TIP3    H277322   4.479   2.849   5.525 -0.8609  3.4491  0.2579
18611TIP3   OH277323   5.455   6.341  12.046 -0.3396 -0.2549 -0.6590
18611TIP3    H177324   5.463   6.334  11.951  1.2850 -2.1136 -0.4636
18611TIP3    H277325   5.389   6.276  12.070 -2.2914  1.6238 -0.6075
18612TIP3   OH277326   6.688   3.441   5.027 -0.4808  0.3562  0.3879
18612TIP3    H177327   6.718   3.532   5.022  0.0577  0.1805  0.3525
18612TIP3    H277328   6.749   3.399   5.088  0.9380 -0.6143 -1.5819
18613TIP3   OH277329   4.213   2.381  11.681  0.3348  0.5046 -0.4707
18613TIP3    H177330   4.248   2.438  11.749 -0.0116 -1.3513  1.3542
18613TIP3    H277331   4.118   2.390  11.687  0.2882  0.0216 -0.4151
18614TIP3   OH277332   5.760   3.246  11.272 -0.0958  0.4415  0.1579
18614TIP3    H177333   5.832   3.205  11.321  0.2829 -0.9112 -1.4409
18614TIP3    H277334   5.801   3.320  11.228  0.6675 -0.9514 -1.6194
18615TIP3   OH277335   5.846   3.547   5.470 -0.4151  0.1388 -0.4315
18615TIP3    H177336   5.796   3.490   5.413  0.0134 -0.0273 -0.6419
18615TIP3    H277337   5.853   3.499   5.552 -0.0689 -0.1072 -0.6028
18616TIP3   OH277338   2.298   5.272  16.398 -0.2431  0.1360  0.0973
18616TIP3    H177339   2.217   5.301  16.440 -1.1087 -1.5894 -0.3304
18616TIP3    H277340   2.341   5.218  16.464  1.2810  2.0687  0.8197
18617TIP3   OH277341   4.305   1.428   5.451 -0.3009 -0.2670  0.2265
18617TIP3    H177342   4.249   1.479   5.511  0.5014 -0.0634  0.8182
18617TIP3    H277343   4.249   1.409   5.376 -1.6424 -1.3459  1.4425
18618TIP3   OH277344   4.388   5.117  16.381  0.3796  0.6448  0.4255
18618TIP3    H177345   4.369   5.076  16.297 -0.2452 -1.2788  1.4593
18618TIP3    H277346   4.400   5.210  16.360  0.6402  0.1544 -1.8249
18619TIP3   OH277347   2.957   1.304   4.143 -0.2541 -0.0916 -0.1490
18619TIP3    H177348   2.946   1.391   4.181  0.3386  0.4115 -1.0813
18619TIP3    H277349   3.039   1.272   4.179 -0.0460  0.0945 -0.4514
18620TIP3   OH277350   4.972   0.032  14.983 -0.1099 -0.5072 -0.0111
18620TIP3    H177351   5.063   0.056  14.963 -0.2894 -0.7855 -1.2489
18620TIP3    H277352   4.978  -0.059  15.011 -0.1175 -0.8754 -1.1592
18621TIP3   OH277353   3.552   0.739  16.006  0.0426 -0.9645  0.1480
18621TIP3    H177354   3.526   0.701  15.922  0.6017  1.0338 -0.9925
18621TIP3    H277355   3.470   0.744  16.056 -0.9244  0.6786 -1.4963
18622TIP3   OH277356   2.100   5.882   5.571  0.0345  0.2113 -0.3600
18622TIP3    H177357   2.109   5.867   5.665 -0.7400 -0.2802 -0.3563
18622TIP3    H277358   2.189   5.899   5.541  0.2440  0.7342  0.5222
18623TIP3   OH277359   5.209   1.624   2.883 -0.6766 -0.3371 -1.0690
18623TIP3    H177360   5.166   1.559   2.939 -1.2583  0.8604 -0.0712
18623TIP3    H277361   5.284   1.578   2.846 -1.2495 -1.6628 -0.6459
18624TIP3   OH277362   0.606   3.267   4.155  0.1980  0.3829 -0.1882
18624TIP3    H177363   0.670   3.227   4.214 -0.3550 -0.0751  0.1164
18624TIP3    H277364   0.544   3.310   4.212  0.0476  0.5416 -0.4680
18625TIP3   OH277365   2.143   2.042  13.902  0.3137  0.0068  0.3540
18625TIP3    H177366   2.100   2.086  13.976 -0.3478 -0.4269  0.2337
18625TIP3    H277367   2.130   2.101  13.828  0.8072  0.3481  0.5245
18626TIP3   OH277368   6.696   6.780   1.046  0.4197 -0.1823  0.1889
18626TIP3    H177369   6.708   6.689   1.072  1.2630 -0.4568 -1.0710
18626TIP3    H277370   6.649   6.775   0.963  1.3136  0.4803 -0.3730
18627TIP3   OH277371   4.043   1.065   5.853  0.1576 -0.3821  0.3392
18627TIP3    H177372   4.033   1.080   5.947  1.4752 -1.2705  0.6429
18627TIP3    H277373   4.131   1.094   5.833  0.7181 -2.2575 -0.1526
18628TIP3   OH277374   1.259   5.034  11.383  0.0744  0.6613 -0.3323
18628TIP3    H177375   1.344   4.994  11.398 -0.0548  0.8560  1.0345
18628TIP3    H277376   1.278   5.128  11.375 -0.1748  0.9347  1.8226
18629TIP3   OH277377   0.331   4.745  15.804 -0.4043  0.3933 -0.8644
18629TIP3    H177378   0.292   4.753  15.716  1.1376  1.1865 -1.5131
18629TIP3    H277379   0.424   4.726  15.787  0.3540  2.5195  0.5561
18630TIP3   OH277380   0.729   0.766   2.262  0.0882 -0.8627  0.0597
18630TIP3    H177381   0.728   0.706   2.187  0.0739 -1.0834  0.2350
18630TIP3    H277382   0.721   0.709   2.339  3.5696 -0.9880  0.4698
18631TIP3   OH277383   4.292   5.210  15.708 -0.4032 -0.3150 -0.0819
18631TIP3    H177384   4.198   5.192  15.708 -0.6511  0.8848  0.0123
18631TIP3    H277385   4.333   5.127  15.682 -1.4735 -0.8831  0.0007
18632TIP3   OH277386   4.180   6.059  14.607  0.0204 -0.5111 -0.0247
18632TIP3    H177387   4.148   6.142  14.573  0.8955  0.2749  1.0201
18632TIP3    H277388   4.134   6.046  14.690  1.6792  0.2177  1.0740
18633TIP3   OH277389   4.548   0.689   1.462  0.5805 -0.0265  0.6638
18633TIP3    H177390   4.630   0.732   1.486  0.3290  0.6384  0.3719
18633TIP3    H277391   4.570   0.632   1.389  0.6554  0.6733  0.1312
18634TIP3   OH277392   2.376   0.469  14.211 -0.5488  0.0550 -0.3409
18634TIP3    H177393   2.415   0.384  14.190  0.3192  0.0215  1.1990
18634TIP3    H277394   2.439   0.533  14.178 -0.8116  0.0880 -0.7855
18635TIP3   OH277395   6.216   6.282   5.209  0.4436  0.3537 -0.2709
18635TIP3    H177396   6.298   6.265   5.256  0.0732 -2.8578 -0.5247
18635TIP3    H277397   6.229   6.243   5.123 -0.9745  0.7406 -0.6900
18636TIP3   OH277398   6.414   2.200   3.669 -0.2651 -0.2816 -0.7318
18636TIP3    H177399   6.410   2.216   3.575 -1.8811 -0.7389 -0.7642
18636TIP3    H277400   6.330   2.159   3.690 -0.9161  1.8991  1.3064
18637TIP3   OH277401   0.782   3.253   2.803  0.0319  0.0580 -0.0696
18637TIP3    H177402   0.811   3.238   2.893  0.1890  0.3659 -0.0649
18637TIP3    H277403   0.689   3.235   2.804 -0.0057  0.2508  0.2034
18638TIP3   OH277404   2.077   2.184  17.238 -0.2410  0.1211 -0.2784
18638TIP3    H177405   2.059   2.258  17.180 -0.7764  0.7245  0.6271
18638TIP3    H277406   2.172   2.180  17.243  0.2492 -3.0944 -5.1123
18639TIP3   OH277407   0.587   6.514   6.499  0.4465 -0.1776  0.1967
18639TIP3    H177408   0.612   6.435   6.451 -1.3289 -0.0495 -1.0398
18639TIP3    H277409   0.515   6.486   6.556  1.1005  0.1439  1.1987
18640TIP3   OH277410   4.022   3.210   5.211  0.5005 -0.6614 -0.9813
18640TIP3    H177411   4.028   3.135   5.270 -0.5691 -0.7131 -0.9215
18640TIP3    H277412   3.929   3.221   5.196  0.5471  1.3310 -0.1293
18641TIP3   OH277413   6.734   3.912  13.410 -0.0990  0.1385 -0.0632
18641TIP3    H177414   6.781   3.902  13.493 -0.0708  1.6310  0.1256
18641TIP3    H277415   6.803   3.917  13.343  0.0330  1.8701  0.1646
18642TIP3   OH277416   4.332   0.800  16.136  0.2983 -0.5368 -0.2292
18642TIP3    H177417   4.389   0.799  16.060 -0.2999 -1.0985 -0.6737
18642TIP3    H277418   4.317   0.708  16.157  0.3072 -0.3892  0.4537
18643TIP3   OH277419   3.305   2.290   5.846  0.0071  0.7457  0.0278
18643TIP3    H177420   3.226   2.342   5.835  0.6893  2.2733  1.6946
18643TIP3    H277421   3.300   2.258   5.936  0.1753 -1.1781 -0.5963
18644TIP3   OH277422   2.096   1.694   5.223  0.2526 -0.0915 -0.1974
18644TIP3    H177423   2.088   1.670   5.315 -1.3721 -1.4484 -0.6344
18644TIP3    H277424   2.132   1.616   5.181  0.0925  0.1666 -0.8371
18645TIP3   OH277425   2.359   3.030  16.001  0.1865  0.1643 -0.7789
18645TIP3    H177426   2.390   2.979  15.927  0.5740 -0.6249 -0.0933
18645TIP3    H277427   2.267   3.050  15.981  0.2886 -0.0408 -1.4556
18646TIP3   OH277428   3.253   6.331  12.100  0.2085 -0.1875 -0.0405
18646TIP3    H177429   3.220   6.371  12.020 -0.5469 -2.1749 -0.7934
18646TIP3    H277430   3.177   6.324  12.157 -0.3889 -3.0610 -1.0463
18647TIP3   OH277431   3.715   1.903   4.156  0.4481 -0.2698  0.3795
18647TIP3    H177432   3.684   1.993   4.140  0.5313 -0.2050  0.5826
18647TIP3    H277433   3.809   1.913   4.170  0.5704 -0.4698 -0.2592
18648TIP3   OH277434   6.109   1.918  16.915 -0.0980 -1.1771 -0.4042
18648TIP3    H177435   6.046   1.981  16.881  1.1576  1.9342  2.5044
18648TIP3    H277436   6.184   1.924  16.856  0.5594  1.2635  0.5711
18649TIP3   OH277437   4.457   4.586  16.027  0.0844 -0.0083 -0.2827
18649TIP3    H177438   4.505   4.667  16.043 -0.6017  0.2757  0.4502
18649TIP3    H277439   4.396   4.608  15.956 -1.7106  0.8682  1.4122
18650TIP3   OH277440   1.325   0.365  12.388 -0.4539  0.1686 -0.4028
18650TIP3    H177441   1.361   0.296  12.332 -1.5335  0.9213 -2.0977
18650TIP3    H277442   1.277   0.422  12.328 -0.6654  1.6909  1.1392
18651TIP3   OH277443   0.296   6.062   5.120 -0.5053  0.6487  0.5543
18651TIP3    H177444   0.227   6.129   5.115 -1.6681 -0.5606 -0.1142
18651TIP3    H277445   0.340   6.066   5.036 -1.0442  0.1072  0.2385
18652TIP3   OH277446   2.234   1.357  12.753  0.3022 -0.0046  0.7932
18652TIP3    H177447   2.200   1.389  12.669 -0.7019 -0.7751  0.8762
18652TIP3    H277448   2.280   1.276  12.730 -1.8948 -1.4461  1.2084
18653TIP3   OH277449   3.909   0.689   1.000  0.4520  0.4311  0.6141
18653TIP3    H177450   3.933   0.754   1.066  0.1641  2.1783 -0.9100
18653TIP3    H277451   3.950   0.721   0.919  1.0367 -1.7865 -0.0316
18654TIP3   OH277452   6.336   6.366  15.441 -0.0802 -0.0177  0.3610
18654TIP3    H177453   6.252   6.358  15.486 -0.1034  1.0170  0.5126
18654TIP3    H277454   6.357   6.276  15.415 -0.4741 -0.5319  1.6901
18655TIP3   OH277455   0.092   3.478  16.518  0.6163  0.0480 -0.0917
18655TIP3    H177456   0.173   3.461  16.471  0.4146  0.3120 -0.5483
18655TIP3    H277457   0.085   3.407  16.581  0.8429 -0.3768 -0.5348
18656TIP3   OH277458   3.232   1.142  14.761 -0.1146 -0.3030 -0.2650
18656TIP3    H177459   3.138   1.132  14.748  0.1067  0.4458 -3.1632
18656TIP3    H277460   3.248   1.236  14.752  1.0935 -0.6165 -1.8540
18657TIP3   OH277461   5.955   2.332   2.733 -0.0802 -0.1437 -0.6072
18657TIP3    H177462   5.903   2.397   2.686 -0.3607 -0.7971 -1.2050
18657TIP3    H277463   5.996   2.280   2.664 -1.7820 -2.1621 -0.1852
18658TIP3   OH277464   6.128   6.270   0.874 -0.5179 -0.1842  0.1587
18658TIP3    H177465   6.159   6.318   0.796  1.2405 -2.0362 -0.3543
18658TIP3    H277466   6.033   6.269   0.864 -0.4371  0.8998 -1.1794
18659TIP3   OH277467   6.364   2.260   1.637 -0.1044 -0.0227  0.3716
18659TIP3    H177468   6.344   2.232   1.547 -2.9860 -1.5046  1.3503
18659TIP3    H277469   6.414   2.187   1.673  0.1830  0.1254  0.2745
18660TIP3   OH277470   6.821   5.348  16.575 -0.2713  0.2596 -0.3099
18660TIP3    H177471   6.734   5.318  16.601 -0.1212 -1.2045 -1.3324
18660TIP3    H277472   6.825   5.439  16.602 -1.2694 -0.2759  1.8106
18661TIP3   OH277473   3.759   1.096  11.445  0.2832  0.1449  0.4193
18661TIP3    H177474   3.854   1.090  11.460  0.0322  0.1871  2.3981
18661TIP3    H277475   3.721   1.051  11.521 -1.2932  0.3623 -0.2094
18662TIP3   OH277476   0.110   1.246   3.684 -0.2370  0.0758 -0.0358
18662TIP3    H177477   0.195   1.258   3.641  0.5400 -1.0374  1.1363
18662TIP3    H277478   0.130   1.241   3.777 -1.5416 -0.6549  0.2296
18663TIP3   OH277479   3.985   5.142   1.528  0.3819 -0.8157  0.3625
18663TIP3    H177480   4.041   5.090   1.471  1.9395 -0.9372  1.9266
18663TIP3    H277481   3.918   5.080   1.558  0.4426 -1.1315 -0.1340
18664TIP3   OH277482   0.798   1.512   5.000 -1.0723 -0.0013 -0.7565
18664TIP3    H177483   0.791   1.590   5.056  2.8021  1.8505 -2.4707
18664TIP3    H277484   0.750   1.536   4.920 -0.6336  0.2612 -0.9414
18665TIP3   OH277485   1.295   0.770   2.996  0.2784  0.4450 -0.0793
18665TIP3    H177486   1.229   0.722   3.046  0.9167  0.0066  0.3651
18665TIP3    H277487   1.245   0.832   2.943 -0.3749  2.1050  2.3006
18666TIP3   OH277488   5.393   4.983   2.699  0.7849  0.3094  0.7011
18666TIP3    H177489   5.382   4.891   2.722 -0.5083  0.4841  0.8910
18666TIP3    H277490   5.481   5.005   2.729  1.3046 -0.9788  0.2104
18667TIP3   OH277491   0.566   4.829  12.657 -0.0659 -0.2394  0.3041
18667TIP3    H177492   0.591   4.750  12.608 -0.2191  0.2116 -0.5303
18667TIP3    H277493   0.649   4.872  12.678 -0.0125  1.3341 -2.5905
18668TIP3   OH277494   5.660   3.553  15.825  0.7944  0.3069 -0.1811
18668TIP3    H177495   5.754   3.538  15.827  0.4272 -2.5114 -0.4515
18668TIP3    H277496   5.649   3.632  15.772  2.8803 -0.6296 -2.1632
18669TIP3   OH277497   5.807   6.661  10.912 -0.0774  0.8009 -0.0051
18669TIP3    H177498   5.818   6.752  10.939 -3.2025  0.4583  3.0798
18669TIP3    H277499   5.714   6.652  10.892 -0.1994 -2.0052  1.3020
18670TIP3   OH277500   5.656   2.506   4.365  0.4967  0.0870  0.2478
18670TIP3    H177501   5.597   2.431   4.361  0.2548  0.1856  1.3873
18670TIP3    H277502   5.661   2.538   4.275  0.2898 -1.0434 -0.1823
18671TIP3   OH277503   1.495   5.631  13.221  0.0460 -0.4661 -0.1145
18671TIP3    H177504   1.425   5.597  13.165 -1.5481 -0.6925  1.8970
18671TIP3    H277505   1.536   5.552  13.258  0.1939 -0.2950  0.0869
18672TIP3   OH277506   0.474   2.962  10.902  0.1861  0.3789  0.9691
18672TIP3    H177507   0.398   2.905  10.887  0.5549  0.2630 -0.6390
18672TIP3    H277508   0.549   2.901  10.905  0.4283  0.6540  0.5921
18673TIP3   OH277509   5.855   0.697   1.767 -0.1077  0.4598 -0.0085
18673TIP3    H177510   5.933   0.730   1.724 -0.0234 -0.2298 -0.4085
18673TIP3    H277511   5.878   0.696   1.860  0.6644 -0.4772 -0.1845
18674TIP3   OH277512   5.030   3.503   0.460  0.8819 -0.4422  0.5687
18674TIP3    H177513   5.117   3.500   0.499  0.6832  1.5020  1.2995
18674TIP3    H277514   5.005   3.595   0.466 -1.7730 -1.1534  1.6142
18675TIP3   OH277515   3.272   2.051   5.183  0.0949 -0.5391 -0.4108
18675TIP3    H177516   3.262   2.128   5.240  0.8712  0.3851 -1.4637
18675TIP3    H277517   3.259   2.086   5.095  0.0174 -1.7180 -0.8724
18676TIP3   OH277518   3.667   6.567   2.958 -0.2005  0.6218 -0.6992
18676TIP3    H177519   3.718   6.487   2.951  0.8448  1.1868  0.1031
18676TIP3    H277520   3.580   6.538   2.987  0.7463 -0.1059  1.6900
18677TIP3   OH277521   0.116   1.411  14.380 -0.0195  0.0003  0.0582
18677TIP3    H177522   0.182   1.409  14.449  1.2095 -0.2688 -1.0747
18677TIP3    H277523   0.145   1.345  14.317  0.2315  1.8452 -1.8681
18678TIP3   OH277524   6.766   2.672  15.791  0.1682 -0.4719  0.1765
18678TIP3    H177525   6.683   2.682  15.838 -0.3471 -1.3175 -0.5090
18678TIP3    H277526   6.754   2.722  15.710  0.2727 -0.7043  0.0159
18679TIP3   OH277527   2.871   5.200   4.936  0.6561  0.5871  0.1967
18679TIP3    H177528   2.839   5.200   4.845 -1.1417 -3.1299  0.6362
18679TIP3    H277529   2.946   5.141   4.935  1.3474  1.4383  0.9579
18680TIP3   OH277530   5.334   6.659  12.876 -0.1159  0.1377 -0.4332
18680TIP3    H177531   5.382   6.576  12.876  0.8285  0.6581  0.5092
18680TIP3    H277532   5.250   6.638  12.918  0.1529 -0.3239 -0.1159
18681TIP3   OH277533   0.031   6.118   4.605  0.7500 -0.3706 -0.6184
18681TIP3    H177534   0.017   6.210   4.584 -1.6672 -0.2659  1.0295
18681TIP3    H277535   0.120   6.114   4.639  0.6487  1.5004 -0.0439
18682TIP3   OH277536   0.829   5.005   4.771 -0.2460  0.2629  0.0904
18682TIP3    H177537   0.831   5.101   4.779 -1.7200  0.2589  0.7619
18682TIP3    H277538   0.811   4.989   4.679 -1.9901  0.6887  0.3338
18683TIP3   OH277539   3.342   6.515   5.961 -0.1356  0.8324 -0.4507
18683TIP3    H177540   3.375   6.442   6.014 -0.8833  0.1149 -0.9544
18683TIP3    H277541   3.363   6.593   6.012  1.4897  0.3461 -0.3196
18684TIP3   OH277542   5.938   0.325   0.021  0.2219  0.0917 -0.6587
18684TIP3    H177543   5.882   0.283  -0.043 -0.2513 -0.7882  0.3098
18684TIP3    H277544   5.899   0.304   0.106  1.9232 -0.4453  0.0417
18685TIP3   OH277545   1.950   2.765   3.512  0.4405 -0.0200  0.2656
18685TIP3    H177546   1.871   2.756   3.565 -0.0865  0.4819 -0.4201
18685TIP3    H277547   1.919   2.755   3.422  1.2417 -0.3375  0.0197
18686TIP3   OH277548   0.172   4.009   2.918  0.3173  0.5405 -0.2670
18686TIP3    H177549   0.220   4.068   2.977 -0.3564  0.1982  0.6499
18686TIP3    H277550   0.189   3.922   2.953 -0.5579  0.3786 -0.2298
18687TIP3   OH277551   3.760   0.860   1.694 -0.0458  0.5861 -0.2618
18687TIP3    H177552   3.713   0.941   1.675  0.4801  1.3963  1.6847
18687TIP3    H277553   3.698   0.807   1.744  0.3874  0.7944  0.5137
18688TIP3   OH277554   6.090   1.291   1.841 -0.0627 -0.3031  0.1556
18688TIP3    H177555   6.115   1.222   1.902  1.6129  0.5630  0.5100
18688TIP3    H277556   6.090   1.371   1.894 -1.0091  0.1270 -0.4586
18689TIP3   OH277557   2.231   0.127   0.141 -0.0434 -0.5760  0.0581
18689TIP3    H177558   2.140   0.098   0.152 -0.2978  0.4959  0.9894
18689TIP3    H277559   2.251   0.175   0.222  1.2273 -0.4626 -0.2997
18690TIP3   OH277560   4.024   4.332  13.116  0.7451  0.3112  0.0447
18690TIP3    H177561   4.009   4.260  13.177 -0.1806 -0.7900 -1.4197
18690TIP3    H277562   4.053   4.290  13.035 -2.1976  1.2707 -1.6710
18691TIP3   OH277563   1.720   2.167   3.627  0.2490 -0.4822  0.3765
18691TIP3    H177564   1.698   2.229   3.697  0.6804 -0.5435  0.5676
18691TIP3    H277565   1.642   2.165   3.572 -0.1410 -0.5150  0.9177
18692TIP3   OH277566   2.419   4.033  12.309  0.6074  0.1800 -0.5380
18692TIP3    H177567   2.502   4.076  12.289  0.4994  0.0098 -1.3624
18692TIP3    H277568   2.352   4.096  12.281  0.4494  0.2933  0.0742
18693TIP3   OH277569   0.376   5.603   1.408 -0.3668 -0.0103 -0.3029
18693TIP3    H177570   0.389   5.610   1.314 -0.7927 -0.4853 -0.4027
18693TIP3    H277571   0.460   5.628   1.446  0.1043 -0.7595 -0.8363
18694TIP3   OH277572   0.970   2.868  17.168  0.0492  0.0240  0.3025
18694TIP3    H177573   0.939   2.918  17.093  1.4441  1.4004  0.5806
18694TIP3    H277574   1.012   2.791  17.131 -2.4557 -1.2310 -0.1265
18695TIP3   OH277575   0.783   0.824   0.112  0.0697  1.2145 -0.1997
18695TIP3    H177576   0.790   0.884   0.187  0.4572  0.1387  0.6558
18695TIP3    H277577   0.820   0.873   0.039 -1.3405  2.7037  0.0379
18696TIP3   OH277578   2.337   1.853  13.661 -0.6092  0.1281 -0.3504
18696TIP3    H177579   2.289   1.787  13.711  0.9529 -1.6607 -1.1385
18696TIP3    H277580   2.417   1.809  13.632  0.5426  2.3890 -0.8422
18697TIP3   OH277581   5.815   2.400   1.767 -0.5249  0.2219  0.1118
18697TIP3    H177582   5.759   2.355   1.704 -0.5665 -0.3666  0.5643
18697TIP3    H277583   5.793   2.360   1.851  0.0978  0.4520  0.3840
18698TIP3   OH277584   3.794   6.495  12.891  0.4068  0.3076 -0.5332
18698TIP3    H177585   3.761   6.580  12.860 -0.9985  0.1212  0.3644
18698TIP3    H277586   3.884   6.491  12.858 -0.2565  1.1108 -2.6040
18699TIP3   OH277587   5.479   0.570   2.237  0.1748  0.0778  0.3879
18699TIP3    H177588   5.548   0.616   2.284  0.5302 -0.7570  0.6958
18699TIP3    H277589   5.520   0.491   2.204 -0.4676 -0.1015 -0.0084
18700TIP3   OH277590   3.533   3.829   0.796  0.2859  0.2183  0.0456
18700TIP3    H177591   3.602   3.788   0.848  1.1002  0.2933 -0.9462
18700TIP3    H277592   3.461   3.766   0.799  1.3693 -1.1471 -1.1020
18701TIP3   OH277593   1.709   5.860  12.895  0.1400 -0.3020 -0.5195
18701TIP3    H177594   1.767   5.822  12.829  0.1091  0.0626 -0.7577
18701TIP3    H277595   1.717   5.954  12.883 -0.2409 -0.2430 -0.3263
18702TIP3   OH277596   1.555   1.779  13.302  0.2059 -0.6068 -0.2633
18702TIP3    H177597   1.622   1.807  13.241 -1.4574 -1.3959 -2.5940
18702TIP3    H277598   1.594   1.705  13.349  0.9198 -1.1739 -1.7109
18703TIP3   OH277599   6.320   2.744  12.942 -0.1786  0.2671 -0.5419
18703TIP3    H177600   6.342   2.745  12.849 -0.2600 -0.6062 -0.5799
18703TIP3    H277601   6.231   2.706  12.945 -0.2897  0.5549 -0.1344
18704TIP3   OH277602   2.222   4.367   3.065 -0.4089 -0.5825  0.2704
18704TIP3    H177603   2.304   4.319   3.069  0.3516  0.6424 -0.2316
18704TIP3    H277604   2.236   4.446   3.117 -1.1619 -0.2063 -0.0696
18705TIP3   OH277605   0.916   5.144  11.791  0.6049 -0.4268 -0.2087
18705TIP3    H177606   0.963   5.184  11.864  0.2631  2.0923 -1.2792
18705TIP3    H277607   0.959   5.059  11.779  1.0733 -0.6622  2.4557
18706TIP3   OH277608   2.492   3.138  13.502 -0.1366 -0.0756  0.0585
18706TIP3    H177609   2.520   3.115  13.414 -1.7630 -2.3784  0.0576
18706TIP3    H277610   2.484   3.234  13.500  2.3227  0.1901 -1.4614
18707TIP3   OH277611   4.453   5.810   5.283  0.3201  0.3621 -0.5081
18707TIP3    H177612   4.511   5.751   5.235  0.3207  0.5957 -0.7979
18707TIP3    H277613   4.491   5.816   5.370 -0.0456 -0.5928 -0.2680
18708TIP3   OH277614   1.930   4.586   3.847  0.3089  0.3570  0.5527
18708TIP3    H177615   1.885   4.529   3.785 -0.3379  0.2136  1.1315
18708TIP3    H277616   2.006   4.619   3.800 -0.2038  0.2973 -0.3213
18709TIP3   OH277617   6.133   2.520   5.469  0.4291 -0.7904  0.6649
18709TIP3    H177618   6.113   2.567   5.550 -0.0757 -1.1958  0.7812
18709TIP3    H277619   6.219   2.481   5.484  1.4034  1.0403  0.1339
18710TIP3   OH277620   1.067   2.925   3.934 -0.0672 -0.3148  0.0757
18710TIP3    H177621   1.013   2.969   4.000  0.6664  2.0363 -0.8035
18710TIP3    H277622   1.009   2.913   3.859  0.1818  0.8586 -0.3294
18711TIP3   OH277623   3.244   2.169  15.440  0.0809 -0.3289 -0.5934
18711TIP3    H177624   3.287   2.250  15.468 -1.0267  0.5368 -1.3088
18711TIP3    H277625   3.206   2.133  15.521  0.6211 -0.1695 -0.2646
18712TIP3   OH277626   3.825   2.536   0.477 -0.3583 -0.1379  0.0019
18712TIP3    H177627   3.839   2.528   0.572  1.2205  2.1250  0.0279
18712TIP3    H277628   3.885   2.472   0.439  0.3063  0.1821  0.4926
18713TIP3   OH277629   3.605   6.416  14.339  0.0035 -0.1918 -0.5415
18713TIP3    H177630   3.669   6.346  14.324  0.4572  0.3717 -1.2717
18713TIP3    H277631   3.532   6.394  14.281  0.4557  0.3274 -1.3167
18714TIP3   OH277632   0.529   5.879  10.789 -0.1269  0.3561  0.2199
18714TIP3    H177633   0.579   5.959  10.772 -0.7212  0.8358  0.6628
18714TIP3    H277634   0.566   5.814  10.730  1.5793  0.4578  1.1201
18715TIP3   OH277635   1.225   6.722  13.057  0.4187 -0.3942 -0.0508
18715TIP3    H177636   1.270   6.704  12.975 -0.7983  0.2585 -0.8916
18715TIP3    H277637   1.174   6.801  13.039  0.4263 -0.0183  1.4609
18716TIP3   OH277638   6.579   4.146  10.928 -0.0660 -0.7119 -0.0703
18716TIP3    H177639   6.565   4.154  10.833 -0.5025  1.5228  0.1357
18716TIP3    H277640   6.673   4.153  10.939 -0.0035 -1.0759 -0.3398
18717TIP3   OH277641   5.412   4.316  15.786 -0.0327 -0.1344  0.2621
18717TIP3    H177642   5.433   4.362  15.868  0.9219 -1.9744  1.1290
18717TIP3    H277643   5.329   4.272  15.804  1.3539 -2.5638  1.2514
18718TIP3   OH277644   0.774   2.716  11.803  0.1881  0.4190 -0.4180
18718TIP3    H177645   0.746   2.625  11.794  0.7613  0.1344  0.5018
18718TIP3    H277646   0.696   2.763  11.832  0.3693 -0.1980  1.2148
18719TIP3   OH277647   4.548   6.168   6.304  0.3681  0.6790  0.0199
18719TIP3    H177648   4.519   6.221   6.230  0.0740 -1.2424 -1.3024
18719TIP3    H277649   4.526   6.221   6.381 -0.5355  2.1562 -1.1936
18720TIP3   OH277650   0.041   2.618  10.244 -0.0233 -0.0270  0.2369
18720TIP3    H177651   0.093   2.624  10.164  1.8840  1.6137  1.5224
18720TIP3    H277652   0.024   2.709  10.269 -2.0570 -0.5151  0.8248
18721TIP3   OH277653   1.666   0.872  16.957 -0.2011 -0.0537 -0.0630
18721TIP3    H177654   1.720   0.949  16.941  0.5234 -0.5985 -0.3201
18721TIP3    H277655   1.593   0.881  16.896  0.1223  0.2071 -0.4182
18722TIP3   OH277656   0.435   2.339   3.165  0.0086 -0.2955  0.3402
18722TIP3    H177657   0.410   2.281   3.093  0.2633 -0.4795  0.3990
18722TIP3    H277658   0.352   2.375   3.196 -0.3375 -1.8482  1.3414
18723TIP3   OH277659   0.021   6.054  16.472 -0.8615 -0.8369  0.1428
18723TIP3    H177660  -0.026   5.974  16.449  0.2450 -2.0792  1.9990
18723TIP3    H277661  -0.033   6.094  16.541 -0.6888 -0.7033  0.2005
18724TIP3   OH277662   2.160   6.349   2.120 -0.3452  0.3631  0.4862
18724TIP3    H177663   2.083   6.366   2.065 -0.2488  0.1546  0.2857
18724TIP3    H277664   2.123   6.321   2.204 -0.4932  0.6317  0.5110
18725TIP3   OH277665   6.407   2.772  12.691  0.2466  0.0724  0.4079
18725TIP3    H177666   6.354   2.758  12.612  0.8588  3.8899 -0.9282
18725TIP3    H277667   6.495   2.746  12.666 -0.0275 -1.3623  0.8542
18726TIP3   OH277668   2.498   0.129  11.573 -0.1157  0.1852 -0.0979
18726TIP3    H177669   2.548   0.197  11.618  1.7730 -0.1219 -1.6492
18726TIP3    H277670   2.507   0.052  11.630 -0.0651  0.5196  0.3545
18727TIP3   OH277671   3.541   3.612  13.392  0.0654 -0.0733  0.7784
18727TIP3    H177672   3.524   3.680  13.457  4.2080  2.6464 -0.5111
18727TIP3    H277673   3.493   3.641  13.314 -1.3922 -0.9371  1.3206
18728TIP3   OH277674   3.937   1.965   5.089 -0.3939  0.0987 -0.2540
18728TIP3    H177675   3.846   1.937   5.093 -0.5341  0.5324 -0.3004
18728TIP3    H277676   3.937   2.051   5.132 -0.0682  0.2412 -0.5298
18729TIP3   OH277677   2.324   0.784  15.540  0.2737 -0.2018  0.1814
18729TIP3    H177678   2.363   0.845  15.602 -0.3672 -1.1994  1.6238
18729TIP3    H277679   2.230   0.800  15.547  0.1891 -0.4189 -0.4261
18730TIP3   OH277680   6.698   3.096   1.985  0.6570  0.1696 -0.3421
18730TIP3    H177681   6.681   3.009   1.949 -2.1845  0.6190 -0.3013
18730TIP3    H277682   6.671   3.157   1.917  0.5822  1.0240  0.4238
18731TIP3   OH277683   4.501   4.738   6.108 -0.0478  0.1595  0.0610
18731TIP3    H177684   4.445   4.816   6.114 -0.0758  0.1464 -0.0259
18731TIP3    H277685   4.453   4.671   6.156  0.0801  0.2540  0.3268
18732TIP3   OH277686   2.857   3.865  16.492 -0.4759  0.2370 -0.7257
18732TIP3    H177687   2.826   3.912  16.415 -0.9526  0.2919 -0.5017
18732TIP3    H277688   2.952   3.860  16.480 -0.1595  2.8060  0.0993
18733TIP3   OH277689   0.039   3.844   1.111 -0.2015 -0.1520  0.2692
18733TIP3    H177690  -0.002   3.839   1.197  0.8285  0.3355  0.8129
18733TIP3    H277691   0.104   3.773   1.112 -1.0558 -0.9636 -0.6000
18734TIP3   OH277692   1.773   1.798  14.413 -0.2646  0.1298  0.0652
18734TIP3    H177693   1.690   1.837  14.441 -0.3785 -0.0684  0.0017
18734TIP3    H277694   1.771   1.804  14.318  0.1021  0.7596  0.0897
18735TIP3   OH277695   1.690   3.516   0.124  0.2516 -0.0353 -0.2478
18735TIP3    H177696   1.742   3.456   0.178  0.4400  0.7336  0.4475
18735TIP3    H277697   1.738   3.522   0.042  0.5219 -0.4011 -0.1211
18736TIP3   OH277698   6.534   3.026   1.161 -0.0779 -0.6155 -0.2521
18736TIP3    H177699   6.507   2.947   1.206  1.0857 -1.3832 -0.8572
18736TIP3    H277700   6.491   3.020   1.075 -2.4403  0.9309  0.7202
18737TIP3   OH277701   6.679   2.357  12.786 -0.4492 -0.1049  0.6025
18737TIP3    H177702   6.603   2.316  12.826 -0.5288  0.5246  1.1085
18737TIP3    H277703   6.738   2.376  12.859  1.0427 -2.2497  0.0586
18738TIP3   OH277704   3.463   5.398   4.487 -0.4815 -1.0288 -0.3646
18738TIP3    H177705   3.451   5.365   4.398  0.4985 -1.7297 -0.2563
18738TIP3    H277706   3.468   5.320   4.541  1.7802 -0.7845 -0.0918
18739TIP3   OH277707   3.368   0.496   4.689  0.5286 -0.4963  0.0901
18739TIP3    H177708   3.306   0.423   4.688  2.1303 -1.9284 -0.2618
18739TIP3    H277709   3.403   0.496   4.779  0.8377 -0.4587 -0.0276
18740TIP3   OH277710   2.502   1.914   0.529  0.5766  0.0426  0.1797
18740TIP3    H177711   2.550   1.953   0.456  1.0336 -2.2826 -0.8251
18740TIP3    H277712   2.481   1.826   0.500 -1.3208 -0.1537  1.9677
18741TIP3   OH277713   3.279   5.250  13.120  0.2680 -0.0897 -0.1847
18741TIP3    H177714   3.296   5.317  13.186  0.7054  0.2330 -0.6124
18741TIP3    H277715   3.333   5.277  13.045 -1.0816  0.1972 -1.0990
18742TIP3   OH277716   1.418   4.741  13.215 -0.0296  0.1651 -0.5112
18742TIP3    H177717   1.435   4.697  13.131 -1.6562  2.2452 -2.0058
18742TIP3    H277718   1.360   4.681  13.262  0.4547 -0.7751 -1.0851
18743TIP3   OH277719   2.441   1.665   0.097  0.5645 -0.0503 -0.0435
18743TIP3    H177720   2.356   1.688   0.133  1.1060 -0.8077  1.8730
18743TIP3    H277721   2.427   1.661   0.002 -1.2989  0.6641  0.1542
18744TIP3   OH277722   5.319   3.611   4.767  0.4099  0.3003 -0.4975
18744TIP3    H177723   5.361   3.692   4.737 -1.0275  0.7431 -1.4880
18744TIP3    H277724   5.234   3.641   4.802  0.0593 -0.7355 -0.4375
18745TIP3   OH277725   2.575   5.516  16.828  0.0950  0.2288  0.4232
18745TIP3    H177726   2.514   5.565  16.773 -0.6009  0.4104  1.3286
18745TIP3    H277727   2.538   5.522  16.916  0.5548 -1.0605  0.7265
18746TIP3   OH277728   2.530   6.051  14.130  0.1866  0.2658  0.4120
18746TIP3    H177729   2.518   5.972  14.077 -0.7483  0.9655 -0.4680
18746TIP3    H277730   2.579   6.022  14.207 -1.2787 -1.4524  0.7550
18747TIP3   OH277731   1.732   1.296   1.740 -0.0751 -0.5464  0.0801
18747TIP3    H177732   1.797   1.232   1.769  0.8372  0.0302 -0.6303
18747TIP3    H277733   1.689   1.326   1.821  0.2309 -1.2620  0.5116
18748TIP3   OH277734   2.146   4.093  12.850 -0.4235 -0.2773  0.1171
18748TIP3    H177735   2.098   4.100  12.932  0.5969  0.2309  0.6911
18748TIP3    H277736   2.126   4.005  12.818  0.8976 -1.3629  2.0545
18749TIP3   OH277737   1.394   1.780   1.317 -0.4174  0.1761  0.2914
18749TIP3    H177738   1.376   1.853   1.258 -0.8685  0.1552  0.3977
18749TIP3    H277739   1.313   1.729   1.318 -0.5041  0.3060  1.1019
18750TIP3   OH277740   0.399   3.567  17.135  0.1497  0.1087 -0.2116
18750TIP3    H177741   0.480   3.565  17.187 -1.2704 -0.1689  2.1237
18750TIP3    H277742   0.392   3.479  17.098  0.5825 -0.0673  0.1148
18751TIP3   OH277743   2.532   4.260   3.118  0.3705  0.1584  0.7833
18751TIP3    H177744   2.533   4.173   3.157  0.8135 -1.3578 -2.2830
18751TIP3    H277745   2.625   4.282   3.107  0.2730  0.2024 -0.0367
18752TIP3   OH277746   3.833   5.166   1.873  0.8874 -0.0268  0.2115
18752TIP3    H177747   3.805   5.160   1.965 -1.8203 -1.0872 -0.5759
18752TIP3    H277748   3.915   5.216   1.876 -0.2452  1.9460  3.0068
18753TIP3   OH277749   4.873   5.982   2.217  0.4002  0.8117 -0.3430
18753TIP3    H177750   4.923   5.927   2.277 -0.2657 -1.1176 -1.4416
18753TIP3    H277751   4.938   6.014   2.154  0.9335  2.0228  0.8005
18754TIP3   OH277752   5.383   4.250  16.991 -0.1928  0.2385 -0.3417
18754TIP3    H177753   5.348   4.163  16.972  1.4424 -0.8079  1.1419
18754TIP3    H277754   5.464   4.255  16.940 -1.4267  1.8882 -2.2827
18755TIP3   OH277755   2.495   5.582  16.067 -0.0467  0.1196 -0.5818
18755TIP3    H177756   2.437   5.561  15.995 -0.0384  0.6180 -0.7345
18755TIP3    H277757   2.525   5.497  16.100 -0.9645 -0.1432 -0.4078
18756TIP3   OH277758   4.645   1.203   6.134 -0.0536 -0.7591 -0.0023
18756TIP3    H177759   4.701   1.271   6.098 -0.5536 -0.0538  0.5344
18756TIP3    H277760   4.690   1.121   6.112 -0.4759 -0.3959 -2.4326
18757TIP3   OH277761   1.348   2.918  14.345  0.2105  0.2951 -0.0475
18757TIP3    H177762   1.423   2.976  14.362  0.5601 -0.2347  0.2583
18757TIP3    H277763   1.367   2.840  14.397  0.4814 -0.7031 -1.6019
18758TIP3   OH277764   1.257   1.290   0.429  0.6666  0.0359  0.0505
18758TIP3    H177765   1.325   1.356   0.445  0.5690  0.5188 -1.3270
18758TIP3    H277766   1.177   1.330   0.462  0.9676 -0.3725  1.3231
18759TIP3   OH277767   4.376   0.163   4.180 -0.0643  0.3196 -0.3438
18759TIP3    H177768   4.368   0.258   4.191 -1.0091  0.3347 -1.0776
18759TIP3    H277769   4.471   0.148   4.175  0.1674  1.0323  1.2501
18760TIP3   OH277770   0.208   4.633  14.904  0.3127  0.3615  0.1470
18760TIP3    H177771   0.163   4.616  14.821 -0.5415  0.7925  0.5089
18760TIP3    H277772   0.289   4.678  14.878 -0.4807  1.5373 -0.4112
18761TIP3   OH277773   6.110   0.903  13.474  0.3669 -0.5584 -0.4593
18761TIP3    H177774   6.047   0.970  13.447  0.3416 -1.2499 -2.2502
18761TIP3    H277775   6.135   0.859  13.393  0.6186 -2.5449  0.6260
18762TIP3   OH277776   2.768   5.376  16.681  0.2063 -0.1840 -0.5644
18762TIP3    H177777   2.721   5.352  16.602  0.8399 -2.4601 -0.3248
18762TIP3    H277778   2.703   5.421  16.735 -0.7156 -0.1892 -1.6380
18763TIP3   OH277779   3.522   6.250  12.097  0.2123 -0.2669  0.5297
18763TIP3    H177780   3.555   6.258  12.008  0.2204 -1.3358  0.4227
18763TIP3    H277781   3.427   6.264  12.089  0.1761 -0.6291  0.3081
18764TIP3   OH277782   2.445   1.718   4.379  0.2071 -0.2636 -0.4433
18764TIP3    H177783   2.372   1.771   4.409  0.3886  0.6447 -1.5393
18764TIP3    H277784   2.523   1.765   4.410  0.3644 -0.0060 -1.2223
18765TIP3   OH277785   5.849   1.646   4.342  0.2367 -0.2458  0.3113
18765TIP3    H177786   5.784   1.613   4.404 -1.9768  1.9790 -0.6127
18765TIP3    H277787   5.862   1.575   4.280  0.2825 -1.4738  1.6900
18766TIP3   OH277788   4.023   5.110   2.427 -0.2870  0.0681 -0.0877
18766TIP3    H177789   4.016   5.021   2.392 -0.3742 -0.1723  0.5371
18766TIP3    H277790   4.101   5.108   2.482 -1.7372 -0.3694  2.0647
18767TIP3   OH277791   0.690   0.230   5.214  0.0090 -0.2329  0.0333
18767TIP3    H177792   0.753   0.213   5.284 -0.6199 -0.9565  0.4481
18767TIP3    H277793   0.732   0.198   5.135 -0.0432 -1.2026  0.3891
18768TIP3   OH277794   4.928   1.754   4.766 -0.3250  0.0048 -0.5411
18768TIP3    H177795   4.944   1.840   4.729 -0.4910  0.0433 -0.5236
18768TIP3    H277796   4.925   1.695   4.690  3.1246 -0.5494 -0.3966
18769TIP3   OH277797   6.108   3.571   4.801 -0.2614  0.0514  0.8313
18769TIP3    H177798   6.185   3.623   4.824 -0.6051  0.5653  0.8247
18769TIP3    H277799   6.044   3.591   4.870 -1.0820  1.1303 -0.2231
18770TIP3   OH277800   0.433   5.746  11.400  0.1356 -0.3758  0.5751
18770TIP3    H177801   0.392   5.826  11.366  1.4253  0.0048 -0.1348
18770TIP3    H277802   0.453   5.766  11.491 -0.8354 -0.4180  0.8147
18771TIP3   OH277803   0.123   2.519  16.651  0.0255  0.0708  0.4844
18771TIP3    H177804   0.041   2.471  16.668 -0.0003  0.0088  0.1933
18771TIP3    H277805   0.158   2.538  16.738 -0.1341 -0.1893  0.6076
18772TIP3   OH277806   5.259   5.740  14.470  0.2954 -0.1038 -0.4452
18772TIP3    H177807   5.283   5.655  14.434  1.1852  0.4357 -1.1687
18772TIP3    H277808   5.268   5.729  14.565  2.1719 -0.3150 -0.6117
18773TIP3   OH277809   4.867   5.081  13.431  0.0443  0.2743  0.3564
18773TIP3    H177810   4.929   5.153  13.440  0.5073 -0.2166  1.2229
18773TIP3    H277811   4.921   5.005  13.412 -0.3285 -0.0779  0.6906
18774TIP3   OH277812   1.198   2.179   4.479  0.0968  0.7400 -0.1078
18774TIP3    H177813   1.208   2.273   4.492  1.3648  0.4314  1.3853
18774TIP3    H277814   1.284   2.142   4.499  0.1103 -0.6152 -2.2853
18775TIP3   OH277815   5.102   3.208  13.070  0.1142  0.6932 -0.4455
18775TIP3    H177816   5.111   3.156  13.150 -0.1199 -0.8259 -1.3669
18775TIP3    H277817   5.073   3.293  13.101  0.7009  0.3615  1.1438
18776TIP3   OH277818   5.288   5.534  12.651 -0.2703  0.4950 -0.2298
18776TIP3    H177819   5.333   5.462  12.606  0.8694  1.5382 -0.8272
18776TIP3    H277820   5.199   5.532  12.617 -0.2842 -0.7073 -0.1422
18777TIP3   OH277821   2.172   5.020  16.718  0.2284  0.3347  0.1537
18777TIP3    H177822   2.231   5.094  16.713  0.7300  0.0105  1.0626
18777TIP3    H277823   2.153   4.998  16.627  0.7200  1.0571 -0.1295
18778TIP3   OH277824   0.778   4.014  17.027 -0.9449  0.2242  0.3398
18778TIP3    H177825   0.685   3.992  17.017 -0.5082 -0.7516 -3.0503
18778TIP3    H277826   0.822   3.929  17.035 -0.2576  0.6359  1.0791
18779TIP3   OH277827   1.596   0.111  13.133  0.5739  0.1763 -0.3216
18779TIP3    H177828   1.509   0.084  13.163  0.9938  0.0757  0.8403
18779TIP3    H277829   1.582   0.199  13.098 -0.1358 -0.1427 -0.8705
18780TIP3   OH277830   6.218   1.290  15.967  0.1444  0.3321  0.1288
18780TIP3    H177831   6.252   1.227  15.903  2.4863  2.7332 -1.2176
18780TIP3    H277832   6.295   1.315  16.019 -1.2213  0.3114  2.2996
18781TIP3   OH277833   1.825   6.670  14.178 -0.3215  0.1882  0.4725
18781TIP3    H177834   1.740   6.696  14.214  0.0067  0.6512  0.9286
18781TIP3    H277835   1.806   6.645  14.087 -0.8169  1.1023  0.3075
18782TIP3   OH277836   2.471   0.137   2.866  0.3061  0.1355 -0.0057
18782TIP3    H177837   2.439   0.128   2.776  1.4063  0.8842 -0.4960
18782TIP3    H277838   2.395   0.166   2.916  0.0589  1.3474 -1.0358
18783TIP3   OH277839   1.872   3.231  15.411 -0.2280  0.2533 -0.6334
18783TIP3    H177840   1.842   3.208  15.499  1.5506  1.2521  0.2870
18783TIP3    H277841   1.870   3.327  15.410  1.6849  0.3243 -0.9273
18784TIP3   OH277842   5.929   1.553   5.599 -0.0481 -0.1638 -0.0590
18784TIP3    H177843   5.851   1.498   5.589 -0.2409  0.3392 -1.6154
18784TIP3    H277844   5.941   1.594   5.513  1.5708  0.2622  0.3275
18785TIP3   OH277845   6.669   3.863   5.592 -0.1808  0.7017  0.4286
18785TIP3    H177846   6.724   3.856   5.514  0.4014 -0.5723  0.9127
18785TIP3    H277847   6.657   3.772   5.620 -1.2502  1.0726  1.2260
18786TIP3   OH277848   3.354   6.516   4.869  0.0080  0.3942  0.6988
18786TIP3    H177849   3.368   6.580   4.939 -1.4859 -0.8321  2.2078
18786TIP3    H277850   3.274   6.545   4.825 -0.3394 -0.0868  1.0017
18787TIP3   OH277851   2.154   6.000   0.539 -0.0107  0.2362 -0.1892
18787TIP3    H177852   2.068   6.019   0.575  0.5602  1.1333  0.7559
18787TIP3    H277853   2.191   5.935   0.598 -0.5838 -1.2813 -1.4313
18788TIP3   OH277854   4.904   4.284  12.118 -0.0193  0.6999  0.2687
18788TIP3    H177855   4.811   4.262  12.129  0.2490 -0.3646  0.5056
18788TIP3    H277856   4.940   4.209  12.071  0.9091  0.6979  0.9671
18789TIP3   OH277857   1.259   5.436   4.454 -0.2860  0.4592  0.3507
18789TIP3    H177858   1.348   5.412   4.481  0.1832 -0.2418 -1.6206
18789TIP3    H277859   1.256   5.531   4.465  0.7341  0.5038  0.3925
18790TIP3   OH277860   2.113   2.305  16.989  0.3971  0.6038 -0.0246
18790TIP3    H177861   2.198   2.339  16.962  0.5418 -0.2882 -0.7622
18790TIP3    H277862   2.108   2.219  16.947  0.3580 -0.6015  2.2920
18791TIP3   OH277863   3.816   0.356  13.129 -0.5132 -0.3834 -0.4494
18791TIP3    H177864   3.859   0.272  13.114 -2.0085 -0.9600 -1.6359
18791TIP3    H277865   3.865   0.394  13.202  0.5341 -2.0317 -0.2353
18792TIP3   OH277866   0.793   5.918  14.325  0.2384 -0.3237 -0.0135
18792TIP3    H177867   0.722   5.982  14.324  1.2821  0.8556 -0.8559
18792TIP3    H277868   0.871   5.969  14.344  1.2421 -1.1894 -1.6564
18793TIP3   OH277869   6.795   5.799  11.430 -0.1552 -0.0760 -0.2385
18793TIP3    H177870   6.862   5.815  11.496  0.7375 -3.7707  0.0013
18793TIP3    H277871   6.719   5.768  11.480 -0.4926 -0.1078 -0.7618
18794TIP3   OH277872   5.663   0.659  17.021 -0.0244  0.1233  0.4793
18794TIP3    H177873   5.591   0.716  17.047 -0.5220  0.3342 -1.2353
18794TIP3    H277874   5.625   0.571  17.020 -0.0452  0.1346  0.3134
18795TIP3   OH277875   5.283   4.552   4.643 -0.8408 -0.7050  0.5040
18795TIP3    H177876   5.299   4.556   4.548 -1.0545 -2.0452  0.3855
18795TIP3    H277877   5.189   4.534   4.650 -0.9426 -0.0062  1.0005
18796TIP3   OH277878   4.634   3.859   3.273 -0.1223  0.1643  0.5413
18796TIP3    H177879   4.602   3.949   3.277  0.6576  0.5888 -1.6567
18796TIP3    H277880   4.730   3.868   3.269 -0.0111 -0.7944  0.8007
18797TIP3   OH277881   1.003   0.684  14.437 -0.4105  0.2839 -0.1149
18797TIP3    H177882   1.035   0.594  14.428  0.9828  0.8109 -0.5511
18797TIP3    H277883   0.982   0.692  14.531 -0.1105 -0.3449  0.0111
18798TIP3   OH277884   1.876   3.289   5.198  0.0095 -0.0557 -0.3902
18798TIP3    H177885   1.923   3.208   5.179  2.0521  0.6246  1.4067
18798TIP3    H277886   1.906   3.350   5.131  2.0758  0.4578  0.9073
18799TIP3   OH277887   3.693   5.707   1.295  0.0535  0.5389  0.4916
18799TIP3    H177888   3.672   5.791   1.254 -0.8537  0.6835  1.2358
18799TIP3    H277889   3.639   5.644   1.248 -0.2338  0.5583  0.7975
18800TIP3   OH277890   4.208   5.951  15.681  0.7209 -0.3030  0.0814
18800TIP3    H177891   4.255   6.028  15.713 -1.5930  0.9948  0.5806
18800TIP3    H277892   4.148   5.985  15.615  1.1641 -2.0660 -1.3427
18801TIP3   OH277893   4.157   1.174   2.327  0.1664 -0.0889 -0.2200
18801TIP3    H177894   4.132   1.147   2.239 -0.5431 -1.2496  0.3193
18801TIP3    H277895   4.184   1.094   2.371 -0.2025  0.3505  0.8520
18802TIP3   OH277896   1.446   5.685   4.406  0.1072  0.7035  0.2588
18802TIP3    H177897   1.483   5.719   4.487 -0.7687  1.9839  0.1519
18802TIP3    H277898   1.486   5.599   4.396 -0.8587 -0.1488  2.8339
18803TIP3   OH277899   3.072   0.223   0.112 -0.2094 -0.0328  0.1791
18803TIP3    H177900   2.990   0.247   0.154 -0.2069  0.4476 -0.0915
18803TIP3    H277901   3.057   0.237   0.018  0.1410 -0.0524  0.1165
18804TIP3   OH277902   1.034   4.127   3.610 -0.0266 -0.4060 -0.7571
18804TIP3    H177903   1.035   4.033   3.625  0.7096 -0.0912  1.4871
18804TIP3    H277904   1.038   4.136   3.515  2.0129 -2.6036 -0.9573
18805TIP3   OH277905   0.828   0.550  15.538  0.1571  0.0446  0.8566
18805TIP3    H177906   0.841   0.455  15.535 -2.2772 -0.3202 -0.7376
18805TIP3    H277907   0.753   0.566  15.480  0.8764  3.0242  0.5862
18806TIP3   OH277908   2.050   1.424   1.814  0.2654  0.0277 -0.3480
18806TIP3    H177909   2.048   1.393   1.905  0.1374 -0.8145 -0.6224
18806TIP3    H277910   2.025   1.516   1.819  0.3115  0.0037  0.4743
18807TIP3   OH277911   6.725   0.563   5.062  0.1673 -1.0733 -0.3740
18807TIP3    H177912   6.775   0.593   4.986 -1.0864 -0.4518 -0.9862
18807TIP3    H277913   6.783   0.578   5.137 -0.2432  2.7979 -0.6385
18808TIP3   OH277914   3.455   3.411   5.662 -0.3751 -0.1566  0.0717
18808TIP3    H177915   3.401   3.408   5.741 -1.8849  0.4485 -0.8899
18808TIP3    H277916   3.517   3.339   5.673 -1.2108 -0.7255  1.3402
18809TIP3   OH277917   6.132   0.764   1.681  0.8194 -0.4789  0.1924
18809TIP3    H177918   6.188   0.722   1.616  0.3981  1.0525 -1.2141
18809TIP3    H277919   6.185   0.766   1.761  1.0620 -3.0867  0.1870
18810TIP3   OH277920   5.834   5.912  15.695  0.3821 -0.6069  0.1287
18810TIP3    H177921   5.832   5.849  15.623  1.3468 -1.6747  0.9903
18810TIP3    H277922   5.783   5.870  15.764  0.4342 -0.1106  0.4740
18811TIP3   OH277923   5.396   5.135   6.405  0.0793 -0.9598  0.0285
18811TIP3    H177924   5.481   5.154   6.445  0.3448  1.6746 -1.5131
18811TIP3    H277925   5.413   5.140   6.311 -1.9384  0.7027 -0.3109
18812TIP3   OH277926   3.871   1.683   5.624 -0.8393 -0.2070 -0.1711
18812TIP3    H177927   3.813   1.713   5.554 -0.2663 -0.1962 -0.6529
18812TIP3    H277928   3.919   1.761   5.652  0.3260 -0.5532 -1.1176
18813TIP3   OH277929   0.071   3.631   3.233 -0.0955 -0.7825  0.2015
18813TIP3    H177930   0.078   3.691   3.308 -0.4755 -0.8713  0.3056
18813TIP3    H277931   0.129   3.558   3.255  3.3357  1.1292 -1.4669
18814TIP3   OH277932   0.163   1.552  16.619  0.3898  0.5156 -0.2190
18814TIP3    H177933   0.113   1.543  16.700 -1.7239  2.3736 -1.1947
18814TIP3    H277934   0.208   1.636  16.628  2.4115 -0.5486  0.1063
18815TIP3   OH277935   1.535   3.795   2.859  0.0189 -0.4001 -0.1253
18815TIP3    H177936   1.439   3.792   2.856  0.0081 -0.0199 -0.1676
18815TIP3    H277937   1.563   3.726   2.799 -0.2257  0.0123 -0.7158
18816TIP3   OH277938   6.106   0.615   2.270  0.0855  0.2838  0.0447
18816TIP3    H177939   6.139   0.668   2.342 -0.1316  0.5855 -0.0761
18816TIP3    H277940   6.043   0.555   2.310  1.5295 -1.0292  0.4609
18817TIP3   OH277941   4.817   4.500   0.768 -0.6041  0.4392  0.4288
18817TIP3    H177942   4.751   4.568   0.777 -1.1057  0.3065 -1.7685
18817TIP3    H277943   4.895   4.546   0.736 -0.8391  0.0735 -0.7227
18818TIP3   OH277944   6.779   6.824   5.479 -0.8917  0.1965  0.0439
18818TIP3    H177945   6.830   6.743   5.486 -1.7392 -0.2410  1.4440
18818TIP3    H277946   6.688   6.797   5.484 -1.2185  1.1845 -0.2136
18819TIP3   OH277947   3.867   6.166   3.673  0.2020  0.5034 -0.4929
18819TIP3    H177948   3.812   6.175   3.751  1.9400  2.8770  0.5717
18819TIP3    H277949   3.956   6.158   3.707  0.8818  0.2328 -2.2348
18820TIP3   OH277950   4.788   6.817   5.079  0.3205  0.8349  0.6094
18820TIP3    H177951   4.822   6.813   4.990 -2.0159  0.4821 -0.3446
18820TIP3    H277952   4.739   6.736   5.090 -0.5088  1.4574  1.7376
18821TIP3   OH277953   0.220   0.295   3.703  1.4354  0.2818  0.3103
18821TIP3    H177954   0.154   0.226   3.714 -0.0325  1.5283 -0.2143
18821TIP3    H277955   0.268   0.297   3.786 -0.8742  0.9755  1.7448
18822TIP3   OH277956   1.149   6.497  11.322 -0.3947  0.2733  1.2470
18822TIP3    H177957   1.057   6.476  11.307 -0.3523  1.8503 -2.0282
18822TIP3    H277958   1.152   6.593  11.324  1.1839  0.2530  1.2075
18823TIP3   OH277959   2.079   4.273  16.109 -0.3362 -0.3094  0.0501
18823TIP3    H177960   2.007   4.209  16.108  0.0198 -0.7326  1.0955
18823TIP3    H277961   2.132   4.250  16.033 -1.3628  0.0974 -0.8238
18824TIP3   OH277962   4.857   5.952  11.507  0.1526  0.0980  0.2382
18824TIP3    H177963   4.899   5.904  11.435  1.8896  1.9331 -0.0709
18824TIP3    H277964   4.908   5.929  11.584  0.6947  1.0280  0.1699
18825TIP3   OH277965   2.449   4.779   2.645 -0.2241 -0.6501  0.4701
18825TIP3    H177966   2.432   4.690   2.614 -1.0249 -0.4619  0.3498
18825TIP3    H277967   2.371   4.802   2.695 -0.3226  0.2409 -0.0753
18826TIP3   OH277968   0.424   4.554   1.863 -0.0878  0.1981  0.4306
18826TIP3    H177969   0.372   4.527   1.787  0.2940  1.2445 -0.2262
18826TIP3    H277970   0.441   4.647   1.848  0.0876  0.3939  1.7550
18827TIP3   OH277971   6.553   0.634  14.150 -0.2263  0.6161 -0.2569
18827TIP3    H177972   6.522   0.725  14.149  1.8221  1.3577  0.0850
18827TIP3    H277973   6.549   0.606  14.059 -2.4197  0.4369 -0.1702
18828TIP3   OH277974   6.272   4.258   4.193  0.2728  0.2143  0.2493
18828TIP3    H177975   6.246   4.324   4.128  2.1323 -0.3088 -1.0914
18828TIP3    H277976   6.251   4.174   4.151  3.5661 -0.2242 -0.7730
18829TIP3   OH277977   0.696   0.464   4.549  0.6484  0.3387 -0.2317
18829TIP3    H177978   0.687   0.500   4.637  0.1015 -0.1006 -0.1005
18829TIP3    H277979   0.763   0.396   4.557  0.3317  0.0434 -0.0717
18830TIP3   OH277980   6.812   2.021  16.828 -0.0789 -0.4031 -0.1687
18830TIP3    H177981   6.737   2.030  16.888  1.2120  0.4420  1.3950
18830TIP3    H277982   6.840   2.111  16.812  0.4505 -0.6996 -0.9670
18831TIP3   OH277983   4.310   6.105  12.826  0.1180  0.0089 -0.3625
18831TIP3    H177984   4.252   6.140  12.758 -2.4179 -0.7329  1.2992
18831TIP3    H277985   4.286   6.013  12.833 -1.3360  0.4920  2.9593
18832TIP3   OH277986   1.618   5.511   3.260  0.5327  0.1675  0.0267
18832TIP3    H177987   1.587   5.564   3.187  1.3992 -0.8335 -1.1005
18832TIP3    H277988   1.706   5.543   3.278  1.5132 -1.5611 -1.4115
18833TIP3   OH277989   3.261   2.718  16.985 -0.0441 -0.1056  0.0993
18833TIP3    H177990   3.288   2.719  16.893  0.8186  0.9795  0.3506
18833TIP3    H277991   3.220   2.803  16.999  1.9677  0.7537  1.2932
18834TIP3   OH277992   6.240   1.461   4.188 -0.3452 -0.0564  0.4184
18834TIP3    H177993   6.265   1.509   4.110 -1.1911  0.7387  0.6229
18834TIP3    H277994   6.226   1.371   4.158 -1.0057  0.3170 -0.4092
18835TIP3   OH277995   4.798   1.996   3.235  0.1649 -0.1783  0.1313
18835TIP3    H177996   4.848   2.075   3.217 -0.7770  0.3566 -0.2182
18835TIP3    H277997   4.807   1.983   3.330  3.3532 -1.7828 -0.2510
18836TIP3   OH277998   5.083   3.479  14.968  0.3807 -0.0176 -0.4389
18836TIP3    H177999   5.132   3.483  15.051 -1.6689 -0.6120  0.8933
18836TIP3    H278000   5.145   3.509  14.902  2.1839  0.2634  1.2724
18837TIP3   OH278001   4.823   0.171   1.480 -0.4710 -0.0301 -0.2571
18837TIP3    H178002   4.755   0.108   1.503 -0.0239 -0.6582 -0.6280
18837TIP3    H278003   4.897   0.147   1.535 -0.6206  0.8153  0.3343
18838TIP3   OH278004   3.495   1.541  11.682  0.1132 -0.2440  0.3117
18838TIP3    H178005   3.510   1.488  11.760  0.0257 -1.0853 -0.2309
18838TIP3    H278006   3.530   1.627  11.704  1.1829 -0.7989  0.8487
18839TIP3   OH278007   3.594   6.395  12.451  0.5468  0.2504  0.0727
18839TIP3    H178008   3.614   6.302  12.441 -1.7339 -0.3210  0.2589
18839TIP3    H278009   3.552   6.402  12.536 -0.5947  1.1913 -0.5275
18840TIP3   OH278010   4.944   6.811   3.665 -0.2592 -0.0794 -1.1274
18840TIP3    H178011   4.912   6.721   3.667 -0.1849 -0.1070 -1.2421
18840TIP3    H278012   4.913   6.848   3.748  2.1652 -1.0563  0.3102
18841TIP3   OH278013   5.543   1.345  12.368 -0.4056 -0.0287 -0.0689
18841TIP3    H178014   5.621   1.290  12.370 -1.0989 -1.0914 -0.7055
18841TIP3    H278015   5.558   1.413  12.434  0.9756 -0.3067 -0.0873
18842TIP3   OH278016   3.964   6.120  14.789  0.0315  0.1931  0.2326
18842TIP3    H178017   3.924   6.178  14.724  1.5178 -0.5920 -1.5023
18842TIP3    H278018   4.004   6.180  14.853  1.0445  1.1236 -1.1998
18843TIP3   OH278019   6.623   0.833   0.517  0.3245  0.1177 -0.3511
18843TIP3    H178020   6.696   0.893   0.506 -0.1084  0.6824 -0.1619
18843TIP3    H278021   6.652   0.752   0.474  0.8369  0.5154 -0.7598
18844TIP3   OH278022   2.500   2.496  15.347  0.2003  0.1043  0.5910
18844TIP3    H178023   2.558   2.427  15.380 -0.2751 -0.0340  1.1533
18844TIP3    H278024   2.534   2.576  15.386  0.4873  0.1339  0.2880
18845TIP3   OH278025   2.564   5.404  14.325 -0.0466 -0.4755 -0.6087
18845TIP3    H178026   2.480   5.395  14.369 -0.4872 -0.3224 -1.4006
18845TIP3    H278027   2.629   5.400  14.395 -0.7860  0.9505  0.1975
18846TIP3   OH278028   2.851   6.188  16.238  0.7867 -0.5112 -0.3615
18846TIP3    H178029   2.934   6.233  16.222  0.5994 -0.2576 -0.6102
18846TIP3    H278030   2.868   6.135  16.316  1.4731 -1.1990 -0.9706
18847TIP3   OH278031   6.065   6.111   0.599 -0.7038  0.1569 -0.1889
18847TIP3    H178032   6.092   6.201   0.582  0.2177  0.1465  1.0674
18847TIP3    H278033   6.085   6.064   0.518 -2.8773  1.3866 -1.5318
18848TIP3   OH278034   0.392   4.021   1.941  0.3036 -0.6584  0.0680
18848TIP3    H178035   0.333   3.945   1.936  0.8909 -1.0673 -0.7900
18848TIP3    H278036   0.432   4.027   1.855  1.2520 -0.1664  0.5214
18849TIP3   OH278037   6.058   4.873  14.178 -0.5810 -0.3571  0.2199
18849TIP3    H178038   6.021   4.833  14.100 -2.0243  1.2538  0.0231
18849TIP3    H278039   5.988   4.868  14.243 -0.6249  1.3319  0.3432
18850TIP3   OH278040   6.806   5.201   4.285 -0.0923 -0.0531  1.1449
18850TIP3    H178041   6.831   5.209   4.377  0.8739 -3.0160  1.2378
18850TIP3    H278042   6.711   5.196   4.286 -0.0288 -2.3420  2.3009
18851TIP3   OH278043   1.528   3.923  15.714  0.5403 -0.8696  0.0742
18851TIP3    H178044   1.550   3.921  15.807  0.3364  0.1297  0.1529
18851TIP3    H278045   1.560   3.840  15.680  0.3134 -1.3945  1.1052
18852TIP3   OH278046   1.789   0.008  10.330 -0.3074 -0.0603  0.0390
18852TIP3    H178047   1.756   0.078  10.274 -0.9523  0.3409  0.9025
18852TIP3    H278048   1.860  -0.032  10.279 -1.3092 -0.1549 -1.3366
18853TIP3   OH278049   5.224   0.664   2.208 -0.4041  0.0134 -0.4618
18853TIP3    H178050   5.320   0.663   2.206 -0.3039  1.1139 -4.6013
18853TIP3    H278051   5.202   0.737   2.265  1.1367 -0.7323  1.1757
18854TIP3   OH278052   5.150   3.220  15.610 -0.2369 -0.3498  0.4101
18854TIP3    H178053   5.122   3.309  15.590 -0.2345 -0.8914 -2.3378
18854TIP3    H278054   5.116   3.167  15.538  0.5609 -2.4348  1.4828
18855TIP3   OH278055   6.569   2.637   4.100 -0.0981 -0.2884 -0.3250
18855TIP3    H178056   6.479   2.609   4.116 -0.1623  0.6297  1.0719
18855TIP3    H278057   6.622   2.576   4.151  0.1149 -1.0118 -1.3783
18856TIP3   OH278058   6.277   1.638   2.123 -0.1632  0.2689  0.6216
18856TIP3    H178059   6.292   1.725   2.084 -2.0288  0.0206 -0.8183
18856TIP3    H278060   6.363   1.608   2.150  0.7627  1.8658 -0.4109
18857TIP3   OH278061   4.284   3.968   0.745  0.5600  0.3985 -0.1245
18857TIP3    H178062   4.256   3.877   0.752 -1.8046  0.7900 -2.7240
18857TIP3    H278063   4.378   3.965   0.762  0.2783 -2.2206  1.5867
18858TIP3   OH278064   0.962   4.737   2.933  0.2384  0.4872 -0.8723
18858TIP3    H178065   0.901   4.690   2.989 -1.0005  1.9672 -0.9018
18858TIP3    H278066   0.949   4.830   2.955  0.9485  0.9955 -2.3967
18859TIP3   OH278067   6.277   0.738  13.773 -0.3262  0.2264 -0.1676
18859TIP3    H178068   6.322   0.659  13.803  1.7284  1.8252  1.2313
18859TIP3    H278069   6.262   0.723  13.679 -2.0551 -2.6887  0.4307
18860TIP3   OH278070   2.842   0.078  15.833 -0.2016  0.7677  0.2740
18860TIP3    H178071   2.761   0.104  15.788 -1.6738 -1.6310  1.3416
18860TIP3    H278072   2.907   0.072  15.763 -1.5127  0.6085 -0.9891
18861TIP3   OH278073   2.749   4.327   2.847  0.5668 -0.1751 -0.3376
18861TIP3    H178074   2.729   4.234   2.855 -2.3160  0.4577  1.3045
18861TIP3    H278075   2.793   4.349   2.929  1.1660 -0.0454 -0.6862
18862TIP3   OH278076   5.817   3.111  13.456 -0.1020 -0.9598  0.3369
18862TIP3    H178077   5.903   3.154  13.459 -0.6979  0.2451  1.1359
18862TIP3    H278078   5.786   3.114  13.546 -1.1940 -0.9141 -0.0239
18863TIP3   OH278079   0.915   1.472   0.077 -0.1192  0.1212  0.1325
18863TIP3    H178080   1.001   1.433   0.064  0.5845  1.4009  0.7661
18863TIP3    H278081   0.854   1.397   0.078  1.1371 -0.9242  1.0461
18864TIP3   OH278082   6.751   4.208   1.203  0.1528  0.7220 -0.6105
18864TIP3    H178083   6.685   4.150   1.165  0.6111 -0.8851  0.8812
18864TIP3    H278084   6.824   4.206   1.141  1.5853 -3.2073  0.8541
18865TIP3   OH278085   3.477   0.079   1.940  0.1587  0.2273 -0.3777
18865TIP3    H178086   3.550   0.018   1.929 -0.4022 -0.8071  1.2464
18865TIP3    H278087   3.435   0.081   1.854 -0.5213 -2.7163 -0.2208
18866TIP3   OH278088   1.073   3.226  13.444 -0.1369  0.0598 -0.2825
18866TIP3    H178089   1.164   3.253  13.449 -0.2319  0.2093  0.9824
18866TIP3    H278090   1.075   3.131  13.447  0.1159 -0.1368 -3.3344
18867TIP3   OH278091   1.095   1.474  12.119  0.3741  0.1471  0.4437
18867TIP3    H178092   1.166   1.505  12.175 -0.7823  1.4670  1.2499
18867TIP3    H278093   1.045   1.553  12.098 -0.6692 -0.7063 -0.3902
18868TIP3   OH278094   6.257   2.238  13.063  0.4162 -0.1266 -0.5382
18868TIP3    H178095   6.290   2.265  13.149 -0.9346 -1.9198  0.6293
18868TIP3    H278096   6.206   2.314  13.033  0.1513  0.2190  0.6986
18869TIP3   OH278097   4.048   6.498   2.115 -0.0831 -0.2369  0.1268
18869TIP3    H178098   4.006   6.414   2.133  0.5772 -0.9256 -1.3963
18869TIP3    H278099   4.131   6.475   2.073  1.1612  1.1249  1.6880
18870TIP3   OH278100   4.641   1.141  11.898  0.7888 -0.4105  0.6827
18870TIP3    H178101   4.594   1.090  11.965  1.4122 -0.4905  1.0732
18870TIP3    H278102   4.732   1.143  11.930  0.9915 -0.0205  0.0878
18871TIP3   OH278103   5.700   0.425   6.520  0.2364  0.1602  0.1982
18871TIP3    H178104   5.771   0.419   6.584  0.1088  2.6900  0.6907
18871TIP3    H278105   5.696   0.338   6.480  2.4906 -0.5396  1.3208
18872TIP3   OH278106   2.573   0.651  14.101 -0.0769 -0.2463  0.1015
18872TIP3    H178107   2.653   0.601  14.086  1.5866  2.1638  0.3524
18872TIP3    H278108   2.562   0.704  14.023 -0.1389  1.0535  0.9584
18873TIP3   OH278109   4.427   3.197   4.991  0.0027 -0.1704 -0.1332
18873TIP3    H178110   4.392   3.285   4.976  0.3015  0.1074  0.7677
18873TIP3    H278111   4.356   3.138   4.966 -0.4826  0.3483  0.0186
18874TIP3   OH278112   1.739   4.433   1.833  0.1926  0.4151 -0.0811
18874TIP3    H178113   1.725   4.346   1.869  2.6170  0.9041  2.3952
18874TIP3    H278114   1.772   4.485   1.907 -0.2139  3.1942 -1.6830
18875TIP3   OH278115   0.983   0.469  15.992 -0.0920  0.3627 -0.2349
18875TIP3    H178116   0.932   0.501  15.918  1.3971 -1.1817 -2.0328
18875TIP3    H278117   1.012   0.382  15.966  3.7861  1.2656  0.4065
18876TIP3   OH278118   3.701   5.572   2.068  0.6452  0.5306  0.2802
18876TIP3    H178119   3.689   5.501   2.131 -2.0764 -0.1021 -0.8294
18876TIP3    H278120   3.659   5.541   1.988 -0.0619  3.1088 -0.4477
18877TIP3   OH278121   6.034   1.551   6.183 -0.0734  0.2192 -0.4480
18877TIP3    H178122   6.004   1.613   6.117 -0.8885 -0.6211 -0.8916
18877TIP3    H278123   6.030   1.466   6.139  0.3518 -0.2321  0.3649
18878TIP3   OH278124   3.313   6.404   1.443  0.4216  0.6257  0.2272
18878TIP3    H178125   3.321   6.313   1.472  0.6930  0.3944 -0.5590
18878TIP3    H278126   3.315   6.455   1.524 -0.3393 -0.1007  0.7199
18879TIP3   OH278127   1.206   2.947   3.631 -0.2359  0.1776  0.2513
18879TIP3    H178128   1.258   2.874   3.664 -0.9878  0.1544  1.4439
18879TIP3    H278129   1.252   3.025   3.664  1.7991  0.4307 -2.7842
18880TIP3   OH278130   3.964   2.713   1.085  0.0011 -0.3897  0.2897
18880TIP3    H178131   3.955   2.648   1.154  0.4946 -0.3788  0.3712
18880TIP3    H278132   4.059   2.717   1.068 -0.1801 -1.1289 -1.0749
18881TIP3   OH278133   5.722   6.821  12.569 -0.1732 -0.6985 -0.1848
18881TIP3    H178134   5.688   6.734  12.551 -0.3321 -0.2688 -2.1110
18881TIP3    H278135   5.756   6.852  12.485  0.4751  0.8435  0.6029
18882TIP3   OH278136   4.580   3.252   4.579 -0.1818 -0.1558 -0.1979
18882TIP3    H178137   4.492   3.271   4.613  0.3737  0.1243  1.1548
18882TIP3    H278138   4.595   3.160   4.601  0.0002 -0.1079 -0.1258
18883TIP3   OH278139   0.161   1.246   3.078  1.1277 -0.8252 -0.6088
18883TIP3    H178140   0.224   1.274   3.012  0.7143  0.2789 -0.5634
18883TIP3    H278141   0.110   1.325   3.097 -0.0500 -1.6108 -0.4112
18884TIP3   OH278142   5.271   4.098  15.623  0.4451  0.4027  0.2505
18884TIP3    H178143   5.357   4.094  15.666  0.7430  2.3932 -0.0574
18884TIP3    H278144   5.265   4.188  15.589 -1.5286  0.1392 -0.2375
18885TIP3   OH278145   5.948   4.751  17.228  0.1841  0.0661  0.6063
18885TIP3    H178146   6.009   4.679  17.216  1.0040  1.0031 -1.3812
18885TIP3    H278147   5.872   4.727  17.175  1.2901  1.4642 -1.8105
18886TIP3   OH278148   5.561   6.673  11.693 -0.6663  0.1384 -0.0583
18886TIP3    H178149   5.559   6.687  11.598 -2.4819 -1.1950 -0.2568
18886TIP3    H278150   5.584   6.581  11.703 -1.0986  0.1186  0.7910
18887TIP3   OH278151   4.431   5.984  10.246 -0.0612 -0.3019 -0.1468
18887TIP3    H178152   4.442   6.063  10.299  0.5609  0.0755 -0.8269
18887TIP3    H278153   4.519   5.947  10.239 -0.1905 -0.5217 -0.6483
18888TIP3   OH278154   4.549   0.811   3.176 -0.7853  0.6145 -0.0595
18888TIP3    H178155   4.547   0.718   3.151  0.7197  0.9032 -1.4151
18888TIP3    H278156   4.540   0.810   3.271  0.6098 -1.0234  0.1032
18889TIP3   OH278157   4.830   4.369  17.167  0.6843 -0.2626 -0.6039
18889TIP3    H178158   4.787   4.396  17.086 -0.9732 -0.7177  0.0901
18889TIP3    H278159   4.765   4.317  17.214  0.9292  1.4360  1.8398
18890TIP3   OH278160   2.289   3.780   0.376  0.0181 -0.0131 -0.4096
18890TIP3    H178161   2.310   3.866   0.411 -1.8207  0.8735 -1.3395
18890TIP3    H278162   2.370   3.751   0.333  0.6701  1.2393 -0.0631
18891TIP3   OH278163   1.806   0.366   3.263  0.9835 -0.0298  0.8003
18891TIP3    H178164   1.877   0.310   3.231  0.2992 -0.9194  0.7965
18891TIP3    H278165   1.734   0.351   3.200  0.4430  0.0524  1.3905
18892TIP3   OH278166   4.807   1.991  12.239 -0.4387  0.4913 -0.0298
18892TIP3    H178167   4.849   1.977  12.154  1.0032 -2.0073  0.9905
18892TIP3    H278168   4.880   2.006  12.300 -1.4790  3.3494  0.6923
18893TIP3   OH278169   1.734   4.259  17.032 -0.3539  0.1495  0.2637
18893TIP3    H178170   1.810   4.230  17.081  0.6131  1.1940 -0.5692
18893TIP3    H278171   1.748   4.352  17.017  0.4847 -0.4031 -3.7201
18894TIP3   OH278172   6.056   1.977  15.342  0.2641 -0.1323  0.0478
18894TIP3    H178173   6.045   1.883  15.328 -0.0860 -0.0417 -0.3215
18894TIP3    H278174   5.968   2.008  15.366  0.2126  0.2135 -0.5494
18895TIP3   OH278175   1.828   1.697  16.068  0.0992 -0.3488  0.0954
18895TIP3    H178176   1.792   1.623  16.118  0.0045  0.1812  0.8393
18895TIP3    H278177   1.789   1.689  15.981 -0.4346 -0.7920  0.3695
18896TIP3   OH278178   1.379   1.884   5.624  0.2677  0.3265  0.2236
18896TIP3    H178179   1.285   1.891   5.606  0.0567 -2.4746 -0.2248
18896TIP3    H278180   1.387   1.904   5.717 -0.5699  1.7165  0.0343
18897TIP3   OH278181   3.833   2.577  16.631  0.1164  0.2164 -0.0601
18897TIP3    H178182   3.768   2.632  16.589  0.6550  1.1251  0.2779
18897TIP3    H278183   3.819   2.490  16.593  0.4169  0.9319 -1.9430
18898TIP3   OH278184   4.880   5.631   2.168 -0.3921 -0.2192 -0.0400
18898TIP3    H178185   4.971   5.659   2.173 -0.1783 -0.8648 -0.1786
18898TIP3    H278186   4.851   5.625   2.260 -0.6483  1.0754 -0.0233
18899TIP3   OH278187   6.453   1.456   1.407  0.2279  0.1513 -0.2587
18899TIP3    H178188   6.400   1.536   1.416  1.9314  1.3572 -0.3954
18899TIP3    H278189   6.497   1.447   1.491 -1.6485 -2.0115  0.5883
18900TIP3   OH278190   0.191   0.579   5.070 -0.1196 -0.3136 -0.0742
18900TIP3    H178191   0.137   0.500   5.063 -0.2551 -0.3413  1.0077
18900TIP3    H278192   0.258   0.555   5.135 -0.6006  0.6897  0.8228
18901TIP3   OH278193   5.406   5.810   5.399 -0.0229  0.1713  0.4952
18901TIP3    H178194   5.346   5.743   5.433  0.3276 -1.0272 -1.1249
18901TIP3    H278195   5.397   5.803   5.304  2.8020 -0.1915  0.1828
18902TIP3   OH278196   4.986   5.242   2.466  0.3506 -0.0944 -0.2479
18902TIP3    H178197   5.031   5.162   2.491 -0.7668 -0.5577  0.3412
18902TIP3    H278198   5.029   5.270   2.385  1.2871 -0.8338 -0.0173
18903TIP3   OH278199   6.178   4.604  14.130  0.8614 -0.1325 -0.1593
18903TIP3    H178200   6.140   4.599  14.217 -0.2247 -1.8833 -0.6811
18903TIP3    H278201   6.269   4.629  14.144  0.2468  1.4346  1.3143
18904TIP3   OH278202   0.053   3.612  16.097  0.5541  0.1264  0.3604
18904TIP3    H178203   0.115   3.643  16.163 -0.6875  1.4539  0.9639
18904TIP3    H278204   0.101   3.545  16.048  1.6199 -0.7095  2.4216
18905TIP3   OH278205   2.544   4.938   5.421 -0.1860  0.1669 -0.1854
18905TIP3    H178206   2.508   4.974   5.502  1.6399 -0.6060  1.0451
18905TIP3    H278207   2.517   4.846   5.422  0.0441  0.0972 -0.3317
18906TIP3   OH278208   4.362   0.845   5.643  0.1022 -0.0649 -0.3036
18906TIP3    H178209   4.372   0.774   5.581  2.0533 -1.0080  0.9903
18906TIP3    H278210   4.271   0.838   5.674 -1.0613  0.7028 -3.2320
18907TIP3   OH278211   1.766   6.158   0.111 -0.2105 -0.6737 -0.0320
18907TIP3    H178212   1.812   6.130   0.190 -0.7734 -0.0658  0.5184
18907TIP3    H278213   1.767   6.254   0.115 -1.9844 -0.6332  0.2766
18908TIP3   OH278214   6.379   0.042   1.703 -0.3753 -0.1913 -0.3554
18908TIP3    H178215   6.412   0.088   1.780 -0.4286 -3.7222  2.0614
18908TIP3    H278216   6.284   0.059   1.703 -0.3788 -0.1811  0.4048
18909TIP3   OH278217   1.255   2.060   6.250  0.3489 -0.7289  0.0473
18909TIP3    H178218   1.192   2.047   6.179  0.5426 -1.1096 -0.0601
18909TIP3    H278219   1.316   1.987   6.241  2.0385  0.7609 -1.1253
18910TIP3   OH278220   3.698   1.455   0.252 -0.3178  0.2064  0.1570
18910TIP3    H178221   3.764   1.389   0.231 -0.2186  0.1277  0.7118
18910TIP3    H278222   3.718   1.482   0.341 -0.8919  0.3519  0.2465
18911TIP3   OH278223   5.952   4.854   4.196  0.0284  0.2313  0.1128
18911TIP3    H178224   5.885   4.825   4.135 -0.3683  0.2675  0.5268
18911TIP3    H278225   5.999   4.924   4.150  1.9283 -1.9519 -1.4732
18912TIP3   OH278226   6.145   3.934   4.990 -0.6383  0.1070  0.0816
18912TIP3    H178227   6.176   4.015   5.030 -1.0877  0.6914 -0.7161
18912TIP3    H278228   6.165   3.866   5.054  0.8978  0.6625  0.2376
18913TIP3   OH278229   2.072   1.174   0.162 -0.5416  0.9506 -0.8130
18913TIP3    H178230   1.996   1.116   0.159 -1.3447  1.8470  0.6284
18913TIP3    H278231   2.121   1.146   0.240  0.2717  0.7813 -1.3811
18914TIP3   OH278232   6.081   0.466   5.540 -0.3022 -0.4249 -0.6508
18914TIP3    H178233   6.054   0.492   5.452 -0.4533 -0.0709 -0.4983
18914TIP3    H278234   6.163   0.513   5.556 -1.2524  1.0412  0.1463
18915TIP3   OH278235   1.267   5.027   3.232 -0.3326 -0.2824 -0.3763
18915TIP3    H178236   1.256   4.933   3.240 -1.5379 -0.3532 -2.3776
18915TIP3    H278237   1.303   5.054   3.317 -1.6229 -2.2665  0.8746
18916TIP3   OH278238   2.628   3.299   5.819 -0.1275 -0.0896  0.3585
18916TIP3    H178239   2.536   3.307   5.842 -0.2702 -2.3953  0.8577
18916TIP3    H278240   2.668   3.258   5.896  1.3440  0.9176  0.1714
18917TIP3   OH278241   0.602   5.834  12.914 -0.2847  0.1657 -0.2007
18917TIP3    H178242   0.527   5.894  12.914 -0.9343 -0.6280 -0.2703
18917TIP3    H278243   0.563   5.747  12.908  0.7381 -0.1797 -2.7499
18918TIP3   OH278244   2.616   2.989   0.697  0.1827 -0.4888 -0.1191
18918TIP3    H178245   2.679   2.917   0.700  0.0929 -0.5511  0.2768
18918TIP3    H278246   2.604   3.015   0.788  0.0255 -0.1343 -0.2375
18919TIP3   OH278247   0.282   0.836   0.994  0.2543  0.0494  0.5214
18919TIP3    H178248   0.303   0.929   0.992 -1.3807  0.4443  0.7690
18919TIP3    H278249   0.271   0.812   0.902 -2.8843  1.0048  0.5389
18920TIP3   OH278250   0.105   4.063   3.765  0.2394 -0.0214  0.5356
18920TIP3    H178251   0.076   4.125   3.832 -0.3796  0.0858  0.1719
18920TIP3    H278252   0.025   4.028   3.727  0.5204  1.4310 -1.5539
18921TIP3   OH278253   2.279   4.206  12.524  0.3521 -0.0878  0.1452
18921TIP3    H178254   2.311   4.123  12.559 -0.5594 -0.1490  0.8788
18921TIP3    H278255   2.197   4.183  12.481 -0.6535  0.6253  1.5978
18922TIP3   OH278256   6.255   0.164  11.124  0.6250  0.0841  0.2785
18922TIP3    H178257   6.215   0.078  11.141 -2.1122  1.2316  0.2272
18922TIP3    H278258   6.320   0.147  11.057  0.6212 -2.0536  0.7437
18923TIP3   OH278259   5.858   2.269   4.501 -0.3186 -0.1280 -0.8162
18923TIP3    H178260   5.788   2.207   4.521  0.7932 -1.4620 -0.9350
18923TIP3    H278261   5.853   2.281   4.406 -0.3562 -0.2483 -0.8297
18924TIP3   OH278262   3.012   1.599   4.032  0.3519  0.7131 -0.2923
18924TIP3    H178263   3.088   1.551   3.998 -0.7084 -3.5253  2.5549
18924TIP3    H278264   2.939   1.570   3.978 -0.1460 -0.3379  0.8740
18925TIP3   OH278265   2.504   3.389   3.607  0.6504 -0.0390 -0.8078
18925TIP3    H178266   2.564   3.408   3.680 -0.8264  1.5932  0.0383
18925TIP3    H278267   2.511   3.465   3.551 -2.0455  1.1369  0.3210
18926TIP3   OH278268   3.954   5.949   2.057  0.0305  0.2344  0.1723
18926TIP3    H178269   4.022   5.984   1.999 -0.3963 -0.9849 -1.0985
18926TIP3    H278270   3.872   5.977   2.017 -0.2597 -0.1768  0.4793
18927TIP3   OH278271   4.705   1.638  12.476 -0.6771 -1.1239  0.0067
18927TIP3    H178272   4.770   1.637  12.546  1.2194 -2.0693 -1.6395
18927TIP3    H278273   4.670   1.727  12.477  0.5410 -0.6202  1.0728
18928TIP3   OH278274   2.730   1.959  15.940 -0.3593  0.2793 -0.1337
18928TIP3    H178275   2.770   1.896  15.880  0.7185  1.0471 -0.2447
18928TIP3    H278276   2.648   1.918  15.966  0.5543 -1.4262  0.2261
18929TIP3   OH278277   3.056   4.434  12.912  0.1356 -0.5862 -0.4203
18929TIP3    H178278   2.974   4.436  12.863  0.2010 -0.4590 -0.5242
18929TIP3    H278279   3.122   4.409  12.847  0.1953 -0.5879 -0.3589
18930TIP3   OH278280   0.065   2.950   4.506  0.4405  0.4447  0.5483
18930TIP3    H178281   0.137   2.905   4.461  1.7960  0.4707  2.5614
18930TIP3    H278282   0.037   2.889   4.574 -1.7189  0.3066 -0.3899
18931TIP3   OH278283   0.508   5.081   6.219  0.1005  0.3294  0.5563
18931TIP3    H178284   0.515   4.992   6.255  1.2542 -0.4794 -1.5096
18931TIP3    H278285   0.533   5.072   6.127  1.5711  3.0047  0.5957
18932TIP3   OH278286   4.810   3.012  16.143 -0.5852 -0.3062  0.0300
18932TIP3    H178287   4.759   2.942  16.103  0.6661 -1.1018 -0.2195
18932TIP3    H278288   4.814   3.080  16.075  0.2767 -1.0383 -0.6852
18933TIP3   OH278289   2.732   6.714  10.316  0.4389 -0.0463 -0.5167
18933TIP3    H178290   2.674   6.638  10.326  0.1174  0.2120 -0.4080
18933TIP3    H278291   2.785   6.714  10.395 -0.0565  0.2579 -0.1781
18934TIP3   OH278292   0.092   0.924  10.797  0.0632  0.2424  0.1207
18934TIP3    H178293   0.051   0.840  10.815  0.1085  0.1266 -0.3053
18934TIP3    H278294   0.134   0.948  10.880  1.2476 -0.8342 -0.1293
18935TIP3   OH278295   3.752   4.084   5.353 -0.3003 -0.6416  0.4959
18935TIP3    H178296   3.733   4.030   5.430 -1.8051  0.0320  0.6397
18935TIP3    H278297   3.687   4.155   5.357  0.8557  0.5189 -0.3251
18936TIP3   OH278298   5.756   4.511  13.849  0.0747 -0.3838  0.5134
18936TIP3    H178299   5.706   4.490  13.928 -1.6059 -2.7803 -1.0642
18936TIP3    H278300   5.818   4.439  13.839  0.2326 -0.1326 -0.4046
18937TIP3   OH278301   6.361   2.532   0.300 -0.3688 -0.3599  0.0300
18937TIP3    H178302   6.406   2.468   0.354 -0.3380 -1.0254 -0.7544
18937TIP3    H278303   6.406   2.528   0.215 -0.5502  0.4999 -0.1189
18938TIP3   OH278304   1.451   0.710   5.001  0.4417  0.3306  0.2364
18938TIP3    H178305   1.365   0.751   4.994 -0.0408 -0.3563  1.7588
18938TIP3    H278306   1.488   0.745   5.083  1.4831  0.3814 -0.2347
18939TIP3   OH278307   0.918   0.270  12.260 -0.0464 -0.2667  0.2606
18939TIP3    H178308   0.861   0.247  12.186 -0.9331 -3.4137  1.7610
18939TIP3    H278309   0.858   0.276  12.335  1.0804  0.7681  1.1083
18940TIP3   OH278310   4.959   2.084  14.470 -0.4885  0.9003 -0.5437
18940TIP3    H178311   5.017   2.105  14.397  1.2639 -1.6114 -0.0144
18940TIP3    H278312   5.010   2.104  14.548  0.1818 -2.1659 -0.0607
18941TIP3   OH278313   1.691   5.958   5.146  0.3041 -0.1945  0.0917
18941TIP3    H178314   1.693   6.046   5.184 -0.4257  0.1597 -0.6461
18941TIP3    H278315   1.670   5.973   5.053  0.7692 -1.1134 -0.1655
18942TIP3   OH278316   0.249   3.308   0.554 -0.4278  0.0151  0.0075
18942TIP3    H178317   0.269   3.238   0.491  0.4740  1.1094 -0.9768
18942TIP3    H278318   0.190   3.366   0.507  1.2329  1.5072 -0.3306
18943TIP3   OH278319   4.923   1.827  15.717  0.0830 -0.2568 -0.6403
18943TIP3    H178320   4.889   1.792  15.800  0.3963  1.2396  0.1447
18943TIP3    H278321   4.845   1.860  15.672 -0.1020 -1.1682 -1.0001
18944TIP3   OH278322   1.603   4.639   1.256 -0.1081 -0.1943  0.3299
18944TIP3    H178323   1.661   4.713   1.235 -0.5030 -0.2611 -1.1195
18944TIP3    H278324   1.606   4.584   1.178 -1.1445 -0.8421  0.7284
18945TIP3   OH278325   1.805   4.660  10.340  0.2538 -0.4097 -0.1364
18945TIP3    H178326   1.796   4.572  10.375  1.0266 -0.6119 -0.4242
18945TIP3    H278327   1.856   4.649  10.259  0.2569  0.2818 -0.2349
18946TIP3   OH278328   1.831   1.164  12.122 -0.2706  0.2021 -0.1318
18946TIP3    H178329   1.867   1.087  12.166  1.6467  0.3034 -1.4075
18946TIP3    H278330   1.882   1.237  12.157  1.0388  0.3288 -2.1438
18947TIP3   OH278331   4.728   4.847   2.638  1.3464  0.6863  0.3620
18947TIP3    H178332   4.730   4.807   2.551 -1.7321 -2.9794  1.6908
18947TIP3    H278333   4.785   4.791   2.692 -0.0743  0.2755  1.5055
18948TIP3   OH278334   6.786   0.624  17.181  0.0493 -0.2262 -0.2698
18948TIP3    H178335   6.731   0.617  17.259  1.2068 -1.0110  0.5045
18948TIP3    H278336   6.780   0.716  17.155 -1.9252 -0.3629 -0.4511
18949TIP3   OH278337   3.688   3.849   4.863  0.1664  0.3472  0.1307
18949TIP3    H178338   3.733   3.766   4.878 -0.8126 -0.5888 -1.6541
18949TIP3    H278339   3.758   3.913   4.852  1.0531 -0.7405 -0.8731
18950TIP3   OH278340   2.626   4.889   6.292 -0.3318  0.2423  0.0494
18950TIP3    H178341   2.632   4.981   6.318  0.7955  0.8254 -2.0450
18950TIP3    H278342   2.539   4.882   6.252  0.3773  1.0383 -1.7785
18951TIP3   OH278343   6.774   5.532   1.863  0.3047  0.3724  0.0405
18951TIP3    H178344   6.714   5.465   1.830 -1.7354  0.6267  2.8635
18951TIP3    H278345   6.761   5.530   1.957  2.1289  2.9881  0.4262
18952TIP3   OH278346   1.460   4.153  16.963  0.2011 -0.3826  0.4738
18952TIP3    H178347   1.537   4.202  16.992  0.2844 -0.3458  0.1867
18952TIP3    H278348   1.458   4.076  17.021  0.9963 -0.8719 -0.1325
18953TIP3   OH278349   4.154   5.373   5.270  0.1203  0.5938 -0.3328
18953TIP3    H178350   4.207   5.302   5.236  0.9967  0.9205  0.3207
18953TIP3    H278351   4.111   5.411   5.193 -0.0826 -0.4016 -0.7244
18954TIP3   OH278352   0.946   6.568   2.365 -0.0780  0.0925  0.0510
18954TIP3    H178353   0.925   6.661   2.366 -1.7046 -0.2590  0.7794
18954TIP3    H278354   0.930   6.539   2.455 -0.0074 -0.9929 -0.2766
18955TIP3   OH278355   2.978   0.223   3.112 -0.3003  0.3177  0.1294
18955TIP3    H178356   2.937   0.195   3.194 -1.2248  0.7917 -0.1558
18955TIP3    H278357   2.937   0.168   3.045 -0.0513  0.4012 -0.0896
18956TIP3   OH278358   2.712   1.680   0.717  0.2212 -0.1166 -0.2715
18956TIP3    H178359   2.640   1.645   0.665  0.0684 -0.1806 -0.0181
18956TIP3    H278360   2.729   1.767   0.681 -0.3040  0.0926 -0.0197
18957TIP3   OH278361   0.730   1.880   4.863  0.1691  0.1781  0.4674
18957TIP3    H178362   0.681   1.940   4.919 -0.9544 -0.8252  0.5882
18957TIP3    H278363   0.806   1.930   4.835  0.2928  0.9985  2.1696
18958TIP3   OH278364   3.548   6.361  15.374  0.2023 -0.2929 -0.4840
18958TIP3    H178365   3.491   6.365  15.451 -0.5735  0.0966 -1.0542
18958TIP3    H278366   3.512   6.289  15.322 -0.0105  0.1796 -1.0140
18959TIP3   OH278367   0.589   6.444  13.494 -0.0619 -0.3215 -0.0478
18959TIP3    H178368   0.597   6.433  13.399 -0.0703 -0.2595 -0.0558
18959TIP3    H278369   0.610   6.536  13.509 -1.0244 -0.0780 -0.0988
18960TIP3   OH278370   6.359   5.592   3.560  0.0922 -0.0014 -0.0388
18960TIP3    H178371   6.356   5.500   3.588 -3.0667  0.1593  0.5138
18960TIP3    H278372   6.416   5.634   3.624  2.7315 -1.7140 -1.0832
18961TIP3   OH278373   2.719   1.544   5.915  0.3163  0.1410  0.2321
18961TIP3    H178374   2.661   1.592   5.856  1.6605 -1.6714 -2.8680
18961TIP3    H278375   2.666   1.524   5.991 -2.3135  0.7673 -1.3100
18962TIP3   OH278376   0.921   3.321  11.961 -0.3090  0.2690 -0.4230
18962TIP3    H178377   0.916   3.309  11.866  0.5791 -2.9374 -0.1755
18962TIP3    H278378   1.014   3.309  11.981 -0.5310  0.6533  0.8976
18963TIP3   OH278379   5.131   5.526  15.047 -0.6378 -0.2405  0.2120
18963TIP3    H178380   5.108   5.616  15.024  0.7740  0.0525 -0.1576
18963TIP3    H278381   5.213   5.534  15.096 -0.5151 -1.3201  0.2026
18964TIP3   OH278382   4.933   3.425  13.103 -0.4859  0.4747 -0.3823
18964TIP3    H178383   4.952   3.518  13.090  0.9313  0.3393  0.5502
18964TIP3    H278384   4.896   3.419  13.191  0.1148  0.0712 -0.1530
18965TIP3   OH278385   1.591   6.323   5.726 -0.0557 -0.4889  0.0868
18965TIP3    H178386   1.681   6.308   5.697 -0.5150 -0.0002 -1.7401
18965TIP3    H278387   1.597   6.397   5.787  0.6808  0.2507 -0.8481
18966TIP3   OH278388   6.741   3.605  16.351  0.5194  0.5513 -0.0808
18966TIP3    H178389   6.788   3.552  16.416 -1.8985 -1.5840  0.0705
18966TIP3    H278390   6.771   3.571  16.267  0.1798  0.0362  0.0000
18967TIP3   OH278391   6.664   6.690   2.908 -0.3367  0.2910  0.2504
18967TIP3    H178392   6.676   6.739   2.827 -2.2593 -0.4193 -0.5310
18967TIP3    H278393   6.701   6.604   2.891  0.7661  0.6564  0.7365
18968TIP3   OH278394   1.632   2.005  11.308 -0.2052 -0.3086  0.3733
18968TIP3    H178395   1.613   2.076  11.368  0.3202  0.1587 -0.0092
18968TIP3    H278396   1.670   2.047  11.231  0.6058 -1.0440  0.3571
18969TIP3   OH278397   6.037   3.579  13.259  0.4437 -0.5860 -0.2444
18969TIP3    H178398   6.109   3.520  13.283  1.7752  1.1000  0.1912
18969TIP3    H278399   6.054   3.601  13.168  0.5905 -0.0525 -0.0916
18970TIP3   OH278400   5.093   6.413   4.723 -0.7009  0.2068 -0.1492
18970TIP3    H178401   5.061   6.351   4.657  0.6527 -1.8480  1.0152
18970TIP3    H278402   5.020   6.422   4.784 -1.0401  0.0698 -0.5234
18971TIP3   OH278403   2.468   2.320   0.449 -0.1518  0.2148  0.2618
18971TIP3    H178404   2.429   2.394   0.402  0.5626 -0.2144 -1.0478
18971TIP3    H278405   2.445   2.243   0.397  2.6745 -0.0324 -0.7786
18972TIP3   OH278406   3.222   2.652   4.773 -0.0010  0.0344 -0.8626
18972TIP3    H178407   3.191   2.716   4.837  2.9207  1.2895 -0.5287
18972TIP3    H278408   3.171   2.670   4.695 -0.0889  2.0182 -0.4077
18973TIP3   OH278409   2.238   0.800   5.778  0.6322  0.4069  0.0896
18973TIP3    H178410   2.218   0.886   5.813  1.7455  0.2145  1.2563
18973TIP3    H278411   2.224   0.740   5.852  3.0107 -0.0071  0.2705
18974TIP3   OH278412   0.828   1.052   1.088 -0.0854 -0.3529 -0.4778
18974TIP3    H178413   0.881   1.131   1.076  0.0609 -0.5087 -0.9001
18974TIP3    H278414   0.759   1.078   1.149 -1.4396  0.7843 -2.3861
18975TIP3   OH278415   0.981   4.040   5.552  0.3729  0.2874  0.2460
18975TIP3    H178416   0.983   3.981   5.628 -1.1424 -1.0621 -0.7020
18975TIP3    H278417   1.068   4.031   5.513  0.1454 -1.4679  0.0511
18976TIP3   OH278418   2.761   5.572  14.875  0.4133 -0.2567  0.5904
18976TIP3    H178419   2.857   5.565  14.875  0.3750 -0.8581  0.1719
18976TIP3    H278420   2.730   5.483  14.891 -0.0790 -0.4694 -1.2917
18977TIP3   OH278421   2.460   2.293  11.494 -0.4768 -0.1305  0.4773
18977TIP3    H178422   2.531   2.344  11.532 -0.8328 -0.1026  1.1054
18977TIP3    H278423   2.498   2.256  11.414 -0.0203  0.5792  0.3568
18978TIP3   OH278424   2.107   4.393  12.875  0.1336  0.5001  0.1053
18978TIP3    H178425   2.141   4.457  12.938 -0.2143  1.0795 -0.2894
18978TIP3    H278426   2.180   4.333  12.860 -0.4170 -0.9821  2.7190
18979TIP3   OH278427   4.033   0.218  15.924 -0.4505  0.4312  0.5705
18979TIP3    H178428   3.989   0.136  15.905 -1.3247  0.5178  2.0852
18979TIP3    H278429   4.104   0.194  15.984  1.0942  0.4234 -1.1412
18980TIP3   OH278430   6.644   0.364  13.449 -0.1392 -0.3883  0.0070
18980TIP3    H178431   6.736   0.388  13.438 -0.5344  0.1135 -3.9670
18980TIP3    H278432   6.629   0.294  13.385 -2.7936  0.6162 -0.6311
18981TIP3   OH278433   5.685   4.172   2.704 -0.0036 -0.0619  0.2982
18981TIP3    H178434   5.600   4.147   2.669 -0.0686 -0.5768  0.8145
18981TIP3    H278435   5.747   4.148   2.636  0.2615 -4.2185  1.7269
18982TIP3   OH278436   2.458   3.908   4.163  0.2633  0.1847 -0.4163
18982TIP3    H178437   2.508   3.866   4.093 -0.0440 -1.3175  0.2175
18982TIP3    H278438   2.524   3.952   4.217  1.2336 -2.9227  1.2184
18983TIP3   OH278439   5.263   2.000  16.473 -0.7952  0.2703  0.0697
18983TIP3    H178440   5.309   2.027  16.553 -0.5128  1.2547 -0.4076
18983TIP3    H278441   5.222   2.080  16.442 -1.7006 -0.3124 -0.2657
18984TIP3   OH278442   3.607   5.715  15.129 -0.0536 -0.1571 -0.0075
18984TIP3    H178443   3.614   5.777  15.056  3.3397  0.0414  0.3125
18984TIP3    H278444   3.592   5.770  15.206 -0.6449 -0.0937 -0.1630
18985TIP3   OH278445   0.397   4.230  11.335 -0.3662 -0.3171  0.0484
18985TIP3    H178446   0.316   4.195  11.372 -0.8085  0.4557 -0.1756
18985TIP3    H278447   0.458   4.233  11.409 -1.1853  1.0437  0.6925
18986TIP3   OH278448   5.449   0.280  14.805 -0.1672 -0.2621  0.4103
18986TIP3    H178449   5.529   0.236  14.774  0.1700  0.3388  0.4240
18986TIP3    H278450   5.403   0.304  14.725  0.2351  0.4276  0.3785
18987TIP3   OH278451   0.753   2.046  12.450 -0.2917 -0.4594 -0.4784
18987TIP3    H178452   0.693   2.118  12.429 -0.2672 -1.3794 -4.5837
18987TIP3    H278453   0.833   2.068  12.403  1.8409 -0.4944  2.8707
18988TIP3   OH278454   6.175   0.951   3.654 -0.5318 -0.6151  1.0509
18988TIP3    H178455   6.162   0.857   3.654 -0.6174 -0.7106 -2.0866
18988TIP3    H278456   6.148   0.979   3.567  0.1773  2.2276  1.6327
18989TIP3   OH278457   5.795   2.337  11.978  0.1708 -0.1459 -0.7091
18989TIP3    H178458   5.726   2.388  11.937 -0.6135 -0.2326  0.4596
18989TIP3    H278459   5.749   2.278  12.038  1.1540 -1.2495 -1.0022
18990TIP3   OH278460   0.253   4.823  17.287  0.5055  0.1872  0.3634
18990TIP3    H178461   0.186   4.818  17.219 -0.5291 -2.9032  1.4504
18990TIP3    H278462   0.207   4.859  17.363  1.1990  1.9077  0.0175
18991TIP3   OH278463   3.424   5.630  15.617 -1.0884  0.0074 -0.2378
18991TIP3    H178464   3.479   5.680  15.558  0.9198 -1.7411  0.0632
18991TIP3    H278465   3.358   5.589  15.561 -0.5277  0.0810 -0.9470
18992TIP3   OH278466   3.128   5.184   1.954 -1.0687 -0.0466  0.6189
18992TIP3    H178467   3.106   5.116   2.018 -2.0096  0.7992  1.2261
18992TIP3    H278468   3.178   5.249   2.004  2.0152 -1.3556 -0.4747
18993TIP3   OH278469   0.621   6.373  15.118 -0.1139 -0.0843 -0.4754
18993TIP3    H178470   0.632   6.410  15.030  1.7371  0.4239 -0.0611
18993TIP3    H278471   0.652   6.442  15.177 -0.0506 -0.9391  0.5086
18994TIP3   OH278472   5.363   2.254   6.375  0.3840 -0.2020  0.0578
18994TIP3    H178473   5.309   2.325   6.341  0.1038  2.0090  4.3812
18994TIP3    H278474   5.301   2.190   6.410  0.5626  0.0328  0.8261
18995TIP3   OH278475   2.053   6.343  17.095  0.4668 -0.5049  0.0974
18995TIP3    H178476   2.049   6.358  17.000  2.9917  0.5037  0.0692
18995TIP3    H278477   2.030   6.251  17.105 -1.1428 -0.3271 -1.3113
18996TIP3   OH278478   2.589   3.420  12.591  0.2357 -0.2564  0.3414
18996TIP3    H178479   2.673   3.375  12.602  1.0508  1.4480  1.4459
18996TIP3    H278480   2.594   3.457  12.503  1.7525  1.8910  1.2453
18997TIP3   OH278481   5.108   1.505   2.165 -0.0477  0.4513  0.1719
18997TIP3    H178482   5.138   1.580   2.217  0.8366  0.0804  0.2080
18997TIP3    H278483   5.186   1.451   2.153 -0.7538 -0.6838  0.5058
18998TIP3   OH278484   1.124   5.004  16.840  0.7860  0.2878 -0.0064
18998TIP3    H178485   1.067   5.076  16.866  0.1899 -0.4683  0.8558
18998TIP3    H278486   1.064   4.932  16.821  1.3435  0.1275 -1.2662
18999TIP3   OH278487   3.978   5.158  11.232 -0.0700  0.1633 -0.3687
18999TIP3    H178488   3.968   5.251  11.253 -1.4254  0.0946 -0.5956
18999TIP3    H278489   3.979   5.154  11.137  0.5439 -0.0060 -0.3562
19000TIP3   OH278490   3.295   2.456  14.255 -0.0408  0.0737  0.2821
19000TIP3    H178491   3.280   2.389  14.188 -0.5596 -0.2110  0.6753
19000TIP3    H278492   3.347   2.523  14.211 -2.2084  0.9556 -1.0716
19001TIP3   OH278493   4.854   4.110   2.391  0.2963  0.0829  0.2397
19001TIP3    H178494   4.941   4.077   2.368  0.8272  1.3167  0.3946
19001TIP3    H278495   4.867   4.203   2.407 -1.3095  0.5874 -1.0644
19002TIP3   OH278496   4.289   6.072  11.279  0.0029 -0.5398  0.5248
19002TIP3    H178497   4.305   6.040  11.190  0.5043 -0.0021  0.4127
19002TIP3    H278498   4.253   5.996  11.325 -2.0022 -0.3378 -0.5919
19003TIP3   OH278499   2.775   5.771  13.235  0.1149 -0.1816  0.0073
19003TIP3    H178500   2.693   5.813  13.206  0.2887  1.3688  1.6228
19003TIP3    H278501   2.824   5.758  13.154 -0.3717  1.9145 -0.7023
19004TIP3   OH278502   4.424   3.480  16.310 -0.2369  0.2309  0.1120
19004TIP3    H178503   4.374   3.440  16.381 -0.5652  0.8010  0.2119
19004TIP3    H278504   4.501   3.517  16.353  0.0854 -0.3262  0.0140
19005TIP3   OH278505   5.402   5.922   1.765 -0.0055  0.0399  0.1830
19005TIP3    H178506   5.359   5.957   1.687  0.5596 -0.2150 -0.2519
19005TIP3    H278507   5.491   5.903   1.737  0.3983  0.5578  1.0771
19006TIP3   OH278508   0.904   4.355  12.277  0.1388  0.0107  0.2805
19006TIP3    H178509   0.814   4.361  12.311  0.5748  0.7483  1.3549
19006TIP3    H278510   0.949   4.298  12.339  0.2979 -0.8237 -0.5689
19007TIP3   OH278511   0.424   6.634  14.348  0.0437  0.4360 -1.1678
19007TIP3    H178512   0.380   6.712  14.382  0.0076  0.7321 -1.8783
19007TIP3    H278513   0.445   6.583  14.426 -0.3507  0.9329 -0.7252
19008TIP3   OH278514   3.082   4.562   1.198 -0.2784  0.2619 -0.2364
19008TIP3    H178515   3.094   4.649   1.236 -0.8149 -0.7860  2.5259
19008TIP3    H278516   3.170   4.526   1.192 -0.1501  0.5942 -0.3766
19009TIP3   OH278517   5.715   4.117  14.356 -0.2750 -0.4231  0.1927
19009TIP3    H178518   5.652   4.055  14.393  0.7843 -1.8488 -0.2749
19009TIP3    H278519   5.682   4.135  14.268 -1.5463  1.1322  0.9509
19010TIP3   OH278520   3.179   1.176   3.539 -0.4714  0.8542 -0.1668
19010TIP3    H178521   3.257   1.124   3.561 -0.1926  0.6893 -1.4441
19010TIP3    H278522   3.113   1.149   3.603  0.3088  0.4838  0.5011
19011TIP3   OH278523   3.627   5.223   0.692 -0.1984  0.0729 -0.5621
19011TIP3    H178524   3.605   5.267   0.610 -0.8482 -1.1597 -1.0815
19011TIP3    H278525   3.715   5.189   0.678 -0.3072 -0.1333 -0.7475
19012TIP3   OH278526   5.914   4.926   6.878  0.1268  0.0891 -0.2334
19012TIP3    H178527   5.989   4.892   6.926 -0.3170  0.5678  0.8345
19012TIP3    H278528   5.862   4.848   6.858  0.7993 -0.2227 -0.8128
19013TIP3   OH278529   3.107   1.975   1.185  0.5555 -0.0419 -0.1375
19013TIP3    H178530   3.031   2.029   1.204  0.6222  0.1695 -0.4625
19013TIP3    H278531   3.078   1.915   1.116  1.4935  2.0111 -2.4728
19014TIP3   OH278532   5.458   3.719   1.314  0.0999 -0.1182 -0.0010
19014TIP3    H178533   5.482   3.631   1.344  0.2658  0.1150  0.5478
19014TIP3    H278534   5.437   3.767   1.394  0.8932  0.6177 -0.2194
19015TIP3   OH278535   2.343   1.993   4.883  0.3678  0.1069 -0.5608
19015TIP3    H178536   2.363   2.084   4.904  1.3925 -0.3322  0.4659
19015TIP3    H278537   2.428   1.953   4.867 -0.0711 -0.6969 -0.9699
19016TIP3   OH278538   3.117   2.206  16.601  0.5294  0.3275  0.4710
19016TIP3    H178539   3.049   2.168  16.546 -0.0248  1.2232  0.5135
19016TIP3    H278540   3.198   2.170  16.567 -0.0332 -1.8919  1.3360
19017TIP3   OH278541   0.535   0.123  15.628 -0.0335 -0.3309  0.5191
19017TIP3    H178542   0.498   0.037  15.608 -2.8952  1.1444 -1.2262
19017TIP3    H278543   0.524   0.133  15.722 -0.0614 -1.6805  0.6698
19018TIP3   OH278544   0.378   4.244   4.087  0.3705  0.0746 -0.3540
19018TIP3    H178545   0.368   4.334   4.118 -0.9202  0.3123 -1.3904
19018TIP3    H278546   0.290   4.216   4.063  0.9342 -1.0087 -1.2908
19019TIP3   OH278547   6.643   0.798  15.263  0.7457 -0.6254  0.6471
19019TIP3    H178548   6.671   0.777  15.352  0.4655 -0.7824  0.6999
19019TIP3    H278549   6.619   0.890  15.267  1.2126 -0.4981  0.6102
19020TIP3   OH278550   0.336   3.363  14.907  0.2916 -0.3015  0.3936
19020TIP3    H178551   0.253   3.405  14.882  1.2146  0.2508 -2.0128
19020TIP3    H278552   0.327   3.273  14.877  1.3808  0.3476 -2.1091
19021TIP3   OH278553   4.293   5.953   5.930  0.6272 -0.6934  0.0371
19021TIP3    H178554   4.233   5.988   5.865 -0.1158 -0.2806  0.9154
19021TIP3    H278555   4.270   5.860   5.935  0.6277 -0.7085 -0.2230
19022TIP3   OH278556   0.821   4.620  12.784  0.1093  0.1554  0.6923
19022TIP3    H178557   0.836   4.525  12.791  1.5654  0.2946 -0.0514
19022TIP3    H278558   0.894   4.651  12.730 -2.7211  1.0610 -3.0360
19023TIP3   OH278559   2.893   3.195   1.247  0.2025  0.0394 -0.1331
19023TIP3    H178560   2.976   3.242   1.245 -0.0490  0.7657  2.7009
19023TIP3    H278561   2.827   3.261   1.223  0.4062 -0.6395 -2.7969
19024TIP3   OH278562   3.222   4.463  11.728 -0.6124  1.0558  0.2306
19024TIP3    H178563   3.259   4.392  11.676  0.5593  0.5545  1.6538
19024TIP3    H278564   3.187   4.524  11.664  0.4000  0.2838 -1.1174
19025TIP3   OH278565   0.803   2.617  15.458 -0.3846  0.3254  0.7633
19025TIP3    H178566   0.708   2.608  15.449 -0.3617  0.2622  0.5906
19025TIP3    H278567   0.815   2.704  15.498 -0.4474  1.0611 -0.7333
19026TIP3   OH278568   0.501   1.406  12.262 -0.4502  0.4535  0.0395
19026TIP3    H178569   0.584   1.434  12.301 -0.7042  0.4725  0.5790
19026TIP3    H278570   0.473   1.481  12.209  0.9719 -0.3547 -1.9847
19027TIP3   OH278571   1.114   0.062  12.279 -1.0914 -0.4054 -0.2962
19027TIP3    H178572   1.193   0.087  12.233 -0.9037 -2.0788 -0.9442
19027TIP3    H278573   1.058   0.140  12.276  0.6029  0.8856  0.4226
19028TIP3   OH278574   0.336   2.776  13.105 -0.1133  0.0295  0.2914
19028TIP3    H178575   0.379   2.727  13.175 -1.6400 -1.1366  0.4812
19028TIP3    H278576   0.326   2.864  13.139 -0.8318 -0.5146  1.5796
19029TIP3   OH278577   1.532   4.718  16.164 -0.0012  0.1124  0.4711
19029TIP3    H178578   1.453   4.700  16.115  0.7447 -2.2664 -0.0006
19029TIP3    H278579   1.589   4.765  16.103 -1.3851  2.9313  1.1853
19030TIP3   OH278580   6.083   6.402  14.037 -0.5049  1.0337 -0.0623
19030TIP3    H178581   6.070   6.429  14.128 -0.3088 -0.4900  0.4476
19030TIP3    H278582   6.026   6.325  14.027 -1.2750  1.7595 -1.5234
19031TIP3   OH278583   4.673   0.158   3.662  0.3947  0.2969  0.2190
19031TIP3    H178584   4.725   0.135   3.739 -0.5652 -0.2544  0.7130
19031TIP3    H278585   4.736   0.155   3.590  1.1342  0.0387  0.8523
19032TIP3   OH278586   4.675   5.510  14.010  0.6235 -0.3362 -0.2248
19032TIP3    H178587   4.655   5.459  13.932 -0.8962 -1.2081  0.6809
19032TIP3    H278588   4.602   5.571  14.018 -1.4772 -2.8885  2.5935
19033TIP3   OH278589   2.815   0.453  16.958  0.4792  0.1821 -0.1749
19033TIP3    H178590   2.769   0.373  16.931  0.1427 -0.4627  2.1100
19033TIP3    H278591   2.748   0.522  16.953 -0.5640 -0.5626  2.1029
19034TIP3   OH278592   3.190   2.557  15.425  0.1146 -0.3740  0.3026
19034TIP3    H178593   3.243   2.480  15.410 -0.7416 -0.7647 -0.9309
19034TIP3    H278594   3.157   2.547  15.515  0.3706 -1.2044  0.3106
19035TIP3   OH278595   2.771   1.312   2.847  0.1237  0.1003  0.3519
19035TIP3    H178596   2.795   1.374   2.915  0.5205 -0.7973  1.0571
19035TIP3    H278597   2.779   1.226   2.889  0.2933 -0.4690 -0.8011
19036TIP3   OH278598   6.166   1.292  11.132 -1.1557 -0.1498  0.0460
19036TIP3    H178599   6.155   1.290  11.227  0.3270 -0.6763  0.2290
19036TIP3    H278600   6.189   1.383  11.112  0.9496 -0.5317  0.5252
19037TIP3   OH278601   5.012   0.132  11.829  0.1213 -0.1268  0.1057
19037TIP3    H178602   4.958   0.210  11.841 -1.0654 -0.8856 -0.1569
19037TIP3    H278603   4.965   0.063  11.875  0.2320 -1.0710 -1.1542
19038TIP3   OH278604   2.114   6.660   3.552  0.1535  0.1437  0.5640
19038TIP3    H178605   2.204   6.637   3.574  0.2283  0.4089  0.5433
19038TIP3    H278606   2.081   6.705   3.630  0.1926  0.4598  0.4043
19039TIP3   OH278607   3.830   4.809  10.627  0.3726 -0.0514 -0.1387
19039TIP3    H178608   3.856   4.837  10.539 -0.5113  0.7891 -0.1515
19039TIP3    H278609   3.785   4.725  10.614  2.4975 -1.2486 -0.1745
19040TIP3   OH278610   0.732   0.695  14.246 -0.1322  0.1004 -0.1457
19040TIP3    H178611   0.811   0.675  14.297 -1.0125 -0.6862  0.9642
19040TIP3    H278612   0.732   0.630  14.175  0.0121 -0.1507  0.0807
19041TIP3   OH278613   1.650   2.148   4.041  0.8428  0.4718 -0.2808
19041TIP3    H178614   1.621   2.057   4.048  0.4904  0.5018 -1.1847
19041TIP3    H278615   1.723   2.154   4.102 -1.7802  0.7439  3.1338
19042TIP3   OH278616   6.251   0.259  13.638 -0.3606  0.0423 -0.2701
19042TIP3    H178617   6.335   0.237  13.678 -0.4674  1.7535  1.0375
19042TIP3    H278618   6.195   0.184  13.655 -0.3783  0.6442  2.8634
19043TIP3   OH278619   3.619   4.523  12.408  0.0459 -0.0202 -0.0401
19043TIP3    H178620   3.543   4.581  12.408  0.5694  0.6788  0.7338
19043TIP3    H278621   3.694   4.581  12.413  0.5926 -0.7435  0.3729
19044TIP3   OH278622   0.412   2.225   1.860 -0.3751  0.4200  0.8195
19044TIP3    H178623   0.419   2.130   1.857 -1.9871  0.2964 -0.2236
19044TIP3    H278624   0.503   2.256   1.854  0.1995 -1.0315  1.5329
19045TIP3   OH278625   5.026   2.251  11.915  0.1327  0.4643 -0.3255
19045TIP3    H178626   5.054   2.194  11.845 -1.1497 -0.2328 -0.2995
19045TIP3    H278627   5.106   2.269  11.965  1.4260  2.2954 -2.8179
19046TIP3   OH278628   3.154   5.715  16.737 -0.0391 -0.4362  0.2176
19046TIP3    H178629   3.213   5.698  16.810  0.9730 -0.4463 -0.5876
19046TIP3    H278630   3.206   5.699  16.658 -1.1493 -0.5773 -0.5218
19047TIP3   OH278631   0.642   1.966  14.541 -0.0287  0.4993  0.3965
19047TIP3    H178632   0.690   1.889  14.573 -1.0491  0.2109  1.2998
19047TIP3    H278633   0.686   2.040  14.583  1.4421  0.5061 -1.0761
19048TIP3   OH278634   5.666   5.839   5.985 -0.2884 -0.1108  0.0666
19048TIP3    H178635   5.719   5.837   6.065 -0.4961  0.1585  0.2112
19048TIP3    H278636   5.653   5.746   5.963 -1.2952 -0.2307  1.0639
19049TIP3   OH278637   1.344   5.440  16.361 -0.4534 -0.3558 -0.1162
19049TIP3    H178638   1.286   5.430  16.286  0.9845 -0.2756 -1.2838
19049TIP3    H278639   1.407   5.507  16.335 -0.4200  0.3011  1.5013
19050TIP3   OH278640   1.507   2.965   6.243  0.3354  0.0797  0.0929
19050TIP3    H178641   1.534   2.876   6.218  1.0105  0.5551 -0.9640
19050TIP3    H278642   1.420   2.954   6.281 -0.4459 -0.8209 -1.8129
19051TIP3   OH278643   1.865   3.798   2.023  0.6355 -0.0410  0.5953
19051TIP3    H178644   1.877   3.872   1.964  1.7789 -0.9202 -0.3210
19051TIP3    H278645   1.786   3.820   2.073 -1.4819 -0.0261 -2.4442
19052TIP3   OH278646   0.847   0.454   3.430  0.0922  0.1811  0.2266
19052TIP3    H178647   0.797   0.494   3.501 -3.2346 -2.4168 -0.4282
19052TIP3    H278648   0.883   0.374   3.467  1.9167  0.8817  0.0477
19053TIP3   OH278649   6.376   0.492  14.350  0.5341 -0.5293 -0.4020
19053TIP3    H178650   6.386   0.587  14.348 -1.0666 -0.3209 -0.1933
19053TIP3    H278651   6.290   0.478  14.390  0.8663 -2.0827 -0.1518
19054TIP3   OH278652   5.573   1.600   3.269  0.2529  1.1611  0.2742
19054TIP3    H178653   5.589   1.694   3.258  1.4114  0.8216 -1.2280
19054TIP3    H278654   5.593   1.562   3.184  0.4931 -0.5379  1.0451
19055TIP3   OH278655   1.966   2.786   5.245 -0.1630  0.4224 -0.1769
19055TIP3    H178656   1.948   2.700   5.206 -0.9477  0.1362  0.7897
19055TIP3    H278657   2.024   2.767   5.319 -0.9509  0.6153  0.5103
19056TIP3   OH278658   2.452   1.210   5.956  0.5459  0.0188 -0.0061
19056TIP3    H178659   2.450   1.136   6.017 -0.2399  0.9253  1.1197
19056TIP3    H278660   2.545   1.223   5.936  0.6517 -1.6647 -0.7618
19057TIP3   OH278661   5.400   4.531  15.153  0.3160 -0.0721 -0.3147
19057TIP3    H178662   5.305   4.520  15.153  0.2355  0.5039 -1.3808
19057TIP3    H278663   5.413   4.626  15.157  0.8190 -0.0919 -1.1860
19058TIP3   OH278664   0.731   6.665  15.961 -0.5545  0.3039 -0.4349
19058TIP3    H178665   0.705   6.630  15.876 -1.5225  1.3054 -0.5785
19058TIP3    H278666   0.649   6.673  16.010 -0.1372  0.7101  0.2131
19059TIP3   OH278667   1.300   2.480   5.765 -0.9900  0.1503 -0.0390
19059TIP3    H178668   1.394   2.495   5.761 -1.1324  0.9902 -0.3803
19059TIP3    H278669   1.281   2.471   5.859 -0.7251  1.0650  0.1168
19060TIP3   OH278670   2.435   6.091  15.552 -0.2318 -0.3858  0.5147
19060TIP3    H178671   2.381   6.081  15.474 -0.1738 -0.2954  0.4621
19060TIP3    H278672   2.479   6.175  15.539  2.5167 -1.9198 -1.0801
19061TIP3   OH278673   2.661   5.172  16.974 -0.0710 -0.5187 -0.2024
19061TIP3    H178674   2.721   5.116  16.925 -0.7960 -1.0306 -0.5335
19061TIP3    H278675   2.713   5.248  16.998  0.6136 -0.7882 -0.7881
19062TIP3   OH278676   3.459   3.937  16.485 -0.0652 -0.9256 -0.2708
19062TIP3    H178677   3.475   3.846  16.461 -1.3887 -1.7502  1.6589
19062TIP3    H278678   3.454   3.935  16.581 -1.8539  0.8341 -0.2648
19063TIP3   OH278679   1.180   2.992  16.304 -0.5608  0.6185  0.1671
19063TIP3    H178680   1.245   2.927  16.332 -0.4784  1.0084  0.8847
19063TIP3    H278681   1.156   3.038  16.384  0.2332  2.2551 -0.4958
19064TIP3   OH278682   3.981   3.314  13.042 -0.1123 -0.2448  0.1298
19064TIP3    H178683   3.950   3.395  13.082  2.2404  0.0762  1.5309
19064TIP3    H278684   3.903   3.259  13.034 -1.7117  1.9889 -0.5296
19065TIP3   OH278685   6.429   4.340   3.688  0.2781 -0.4573 -0.4785
19065TIP3    H178686   6.483   4.269   3.723 -0.3122  0.1216  1.7804
19065TIP3    H278687   6.341   4.302   3.679  0.3484 -0.4999 -1.0314
19066TIP3   OH278688   4.424   3.615  12.241  0.2558  0.2158 -0.1749
19066TIP3    H178689   4.369   3.550  12.197  0.6381 -1.1126  1.2187
19066TIP3    H278690   4.473   3.657  12.171  0.3448 -1.3561 -1.0909
19067TIP3   OH278691   0.132   6.006   0.400  0.0652 -0.2205  0.0849
19067TIP3    H178692   0.050   6.014   0.353  0.4914  1.3636 -0.4517
19067TIP3    H278693   0.186   5.949   0.346  1.2187  2.9685 -2.5060
19068TIP3   OH278694   0.863   5.126   6.158 -0.3240  0.3413 -0.7395
19068TIP3    H178695   0.837   5.064   6.090 -1.2154  0.2238 -0.3113
19068TIP3    H278696   0.958   5.119   6.162 -0.5018 -2.7786  0.9078
19069TIP3   OH278697   3.829   6.062   5.637 -0.1893  0.2796  0.1320
19069TIP3    H178698   3.804   6.074   5.728  0.3712 -1.0701  0.4888
19069TIP3    H278699   3.914   6.105   5.629 -1.0157  1.9158 -0.2217
19070TIP3   OH278700   4.947   5.736  16.717 -0.1861 -0.0861 -0.1844
19070TIP3    H178701   4.946   5.711  16.624 -0.8535 -1.3090  0.1250
19070TIP3    H278702   4.859   5.713  16.749  0.1895 -0.1279  0.8583
19071TIP3   OH278703   5.378   4.480  10.251 -0.0375 -0.8986  0.4884
19071TIP3    H178704   5.374   4.428  10.332 -0.2954  0.6632  1.5248
19071TIP3    H278705   5.343   4.565  10.276 -0.7004 -0.5488 -1.4438
19072TIP3   OH278706   5.086   5.450   3.374 -0.2356  0.2973  0.0916
19072TIP3    H178707   5.029   5.432   3.449 -0.2750  4.0788  1.1670
19072TIP3    H278708   5.175   5.446   3.410 -0.1087 -0.2951 -0.2777
19073TIP3   OH278709   4.847   1.841   5.268 -0.0700 -0.1461 -0.0789
19073TIP3    H178710   4.791   1.762   5.268  0.6906 -0.6969 -0.7692
19073TIP3    H278711   4.825   1.886   5.187  0.0022 -0.0119 -0.0237
19074TIP3   OH278712   4.050   5.565  15.412  1.0497 -0.4484  0.6557
19074TIP3    H178713   3.980   5.598  15.468  0.6006  0.4549 -0.4090
19074TIP3    H278714   4.019   5.478  15.385  0.3084 -0.0434  0.1637
19075TIP3   OH278715   0.586   6.667  17.061 -0.1025 -0.0538 -0.3901
19075TIP3    H178716   0.600   6.753  17.020  0.1081 -0.6913 -1.7011
19075TIP3    H278717   0.491   6.656  17.060 -0.2398  0.7704  1.1088
19076TIP3   OH278718   5.773   2.575   3.009  0.1069  0.0712 -0.2417
19076TIP3    H178719   5.777   2.484   3.040 -3.1349  0.3238  1.3803
19076TIP3    H278720   5.711   2.573   2.936 -0.3010  1.0013  0.0651
19077TIP3   OH278721   0.471   5.861   4.381  0.2682  1.5441  0.6304
19077TIP3    H178722   0.548   5.914   4.404  1.0820  0.7600 -0.1677
19077TIP3    H278723   0.505   5.797   4.319 -0.9096  0.7535  0.7780
19078TIP3   OH278724   6.136   6.675   2.683  0.0779 -0.8401 -0.0043
19078TIP3    H178725   6.097   6.589   2.696 -0.2909 -0.5088  1.2015
19078TIP3    H278726   6.071   6.736   2.718  0.2240 -0.0432 -1.0686
19079TIP3   OH278727   5.967   2.519   1.366  0.0325 -0.1878  0.4596
19079TIP3    H178728   5.950   2.428   1.392  1.0818 -0.8141 -0.8901
19079TIP3    H278729   6.060   2.533   1.387 -0.5620  1.2709  2.4691
19080TIP3   OH278730   5.788   1.091  15.040 -0.0507 -0.4900  0.3751
19080TIP3    H178731   5.786   1.051  15.127  0.0111  0.8172  1.0126
19080TIP3    H278732   5.772   1.184  15.057  0.0989 -0.1946 -1.0072
19081TIP3   OH278733   2.287   6.334  12.870  0.6188 -0.2171  0.1290
19081TIP3    H178734   2.296   6.395  12.796 -0.6941  0.8605  0.8005
19081TIP3    H278735   2.342   6.259  12.847 -0.1449 -0.1382 -2.1746
19082TIP3   OH278736   4.919   2.056  13.307  0.7096 -0.2169  0.2700
19082TIP3    H178737   4.876   1.996  13.367 -0.1765  0.1804  0.0417
19082TIP3    H278738   5.009   2.022  13.300  1.5478  0.9980  3.5705
19083TIP3   OH278739   3.405   3.109   4.350  0.1305  0.0469 -0.0130
19083TIP3    H178740   3.493   3.073   4.361  0.1070  0.1244  0.4655
19083TIP3    H278741   3.356   3.038   4.308  0.8077  0.5606 -1.7875
19084TIP3   OH278742   2.539   4.666   5.571  0.3179  0.2189  0.3614
19084TIP3    H178743   2.540   4.586   5.623 -1.4499  0.8645  1.5169
19084TIP3    H278744   2.628   4.676   5.539  0.2839 -2.9420 -1.0315
19085TIP3   OH278745   0.110   2.870   1.702 -0.0405  0.2491  0.7376
19085TIP3    H178746   0.135   2.784   1.737  1.4386  0.1405 -0.4896
19085TIP3    H278747   0.159   2.932   1.755  0.2833  0.2285  0.4631
19086TIP3   OH278748   0.435   0.141   4.593 -0.1232  0.0400  0.4781
19086TIP3    H178749   0.432   0.213   4.656 -0.5403  1.3525 -0.9936
19086TIP3    H278750   0.440   0.063   4.648 -1.4136  1.0548  2.1824
19087TIP3   OH278751   5.411   4.991  14.837 -0.3827 -0.4540 -0.0073
19087TIP3    H178752   5.480   4.927  14.816 -0.5003 -0.5251 -0.1825
19087TIP3    H278753   5.452   5.076  14.826 -0.3156 -0.4970 -0.0899
19088TIP3   OH278754   1.176   0.315  12.617 -0.7243  0.4835  0.0234
19088TIP3    H178755   1.213   0.348  12.535  1.1570  3.0487  1.7202
19088TIP3    H278756   1.094   0.363  12.628 -0.1365  1.4348  0.4000
19089TIP3   OH278757   1.502   6.098   4.868  0.6747 -0.2495  0.2425
19089TIP3    H178758   1.581   6.046   4.854  2.9469  2.7537  0.9199
19089TIP3    H278759   1.524   6.185   4.834 -1.0151  1.6801  3.5717
19090TIP3   OH278760   1.460   5.941   1.918 -0.0827 -0.3475  0.1744
19090TIP3    H178761   1.420   5.854   1.914  1.4296 -1.0423 -0.6850
19090TIP3    H278762   1.552   5.924   1.939  0.0658  1.1141  0.8341
19091TIP3   OH278763   3.836   2.928  11.358 -0.4347  0.3981 -0.1023
19091TIP3    H178764   3.885   2.970  11.287 -0.7478  1.3650  0.2347
19091TIP3    H278765   3.762   2.987  11.374 -1.5728 -0.9141 -0.4235
19092TIP3   OH278766   6.177   1.506  13.301 -0.1068  0.0945  0.6327
19092TIP3    H178767   6.273   1.506  13.299 -0.0332 -0.4323  2.4817
19092TIP3    H278768   6.152   1.555  13.223  1.6283 -1.2203 -0.8343
19093TIP3   OH278769   0.225   5.777   4.736  0.3055  0.5094 -0.0389
19093TIP3    H178770   0.319   5.766   4.723  0.0395 -0.5382 -1.1705
19093TIP3    H278771   0.189   5.788   4.648 -0.5265  1.9522  0.4403
19094TIP3   OH278772   2.388   5.367   5.216  0.1774 -0.5506  0.9732
19094TIP3    H178773   2.377   5.272   5.220  1.3929 -0.7356  0.4694
19094TIP3    H278774   2.462   5.380   5.156 -2.4000  0.8733 -2.2380
19095TIP3   OH278775   6.493   3.202  14.811 -0.7293 -0.1629 -0.8341
19095TIP3    H178776   6.477   3.176  14.902 -1.9362 -1.2719 -1.3277
19095TIP3    H278777   6.529   3.124  14.770  0.6198  0.5869 -1.1403
19096TIP3   OH278778   0.828   1.669  15.621 -0.2880  0.1429  0.1199
19096TIP3    H178779   0.832   1.765  15.627 -1.4685  0.1534  1.0810
19096TIP3    H278780   0.794   1.642  15.706  0.9521 -1.2140  0.2142
19097TIP3   OH278781   4.015   5.102   5.447 -0.0370 -0.2114 -0.5510
19097TIP3    H178782   3.998   5.110   5.541 -0.7649 -0.0235 -0.6913
19097TIP3    H278783   3.929   5.082   5.409  0.2824 -0.4514 -1.1580
19098TIP3   OH278784   6.355   4.779   3.152 -0.4904 -0.2775  0.1092
19098TIP3    H178785   6.387   4.868   3.139  0.9233 -0.7784 -0.0145
19098TIP3    H278786   6.272   4.790   3.198 -1.3919  1.1779 -1.7125
19099TIP3   OH278787   2.484   6.729  12.407 -0.3223 -0.0255  0.1056
19099TIP3    H178788   2.487   6.705  12.500  1.9702 -1.6808 -0.3204
19099TIP3    H278789   2.421   6.802  12.403 -0.7073 -0.1072  2.8811
19100TIP3   OH278790   0.582   0.167  12.594 -0.2305  0.5612 -0.0051
19100TIP3    H178791   0.504   0.129  12.553  1.0891 -1.0244 -1.1910
19100TIP3    H278792   0.556   0.184  12.685 -2.0983  0.5926 -0.5144
19101TIP3   OH278793   4.910   1.927  11.250 -0.7477  0.0395 -0.1829
19101TIP3    H178794   4.995   1.883  11.245 -0.8311  0.0025 -1.7696
19101TIP3    H278795   4.846   1.857  11.237 -1.0129  0.1581  0.4427
19102TIP3   OH278796   1.405   0.997  13.080 -0.6899  0.0102 -0.6184
19102TIP3    H178797   1.343   1.053  13.128  0.0567 -1.1325  1.8092
19102TIP3    H278798   1.488   1.009  13.126 -0.2269 -2.1033 -0.8341
19103TIP3   OH278799   6.681   5.260   2.944  0.2596 -0.7409 -0.7652
19103TIP3    H178800   6.757   5.267   2.886  0.3806 -1.1917 -0.6681
19103TIP3    H278801   6.627   5.192   2.904 -0.0851 -0.4346 -0.8244
19104TIP3   OH278802   4.985   0.443   5.674  0.0590 -0.0962  0.1309
19104TIP3    H178803   5.061   0.494   5.645  0.8554 -1.2786  0.0939
19104TIP3    H278804   4.930   0.507   5.719  0.0971  1.2136 -1.5866
19105TIP3   OH278805   0.698   1.758   0.736  0.4144 -0.4047  0.5247
19105TIP3    H178806   0.638   1.821   0.777  1.2306  0.2335  0.7562
19105TIP3    H278807   0.760   1.812   0.687 -0.1473 -1.1244 -1.0478
19106TIP3   OH278808   3.230   3.869  10.969 -0.0105 -0.4545 -0.1646
19106TIP3    H178809   3.216   3.823  10.886  0.6422  1.1257 -1.1863
19106TIP3    H278810   3.315   3.912  10.959 -0.4806  0.7746  0.8387
19107TIP3   OH278811   6.698   3.025  11.150 -0.5531 -0.8108 -0.1924
19107TIP3    H178812   6.714   2.943  11.196 -2.1807 -1.0974 -0.0757
19107TIP3    H278813   6.720   3.007  11.059  0.2186 -1.0134  0.0293
19108TIP3   OH278814   0.990   0.009  14.425  0.1892  0.2206  0.0517
19108TIP3    H178815   0.900   0.039  14.421  0.6255  1.4198 -1.3188
19108TIP3    H278816   0.984  -0.081  14.458 -1.5664 -0.0341 -0.8865
19109TIP3   OH278817   6.445   0.063   4.518 -0.1104 -0.3868 -0.0246
19109TIP3    H178818   6.523   0.117   4.531 -0.0925 -0.7845  1.8735
19109TIP3    H278819   6.384   0.094   4.585 -0.4780 -2.0103  0.4288
19110TIP3   OH278820   4.265   3.838  15.704  0.0214 -0.2894 -0.1010
19110TIP3    H178821   4.206   3.866  15.634 -0.6140 -0.4489  0.3697
19110TIP3    H278822   4.214   3.776  15.755  0.0618  0.7337  1.2266
19111TIP3   OH278823   6.304   4.199   5.688 -0.1932  0.6308  0.4864
19111TIP3    H178824   6.383   4.152   5.714  1.7053  1.7569 -2.6597
19111TIP3    H278825   6.245   4.131   5.656 -0.3591 -0.1752  2.3748
19112TIP3   OH278826   0.173   2.207  13.722 -0.3527  0.2052 -0.6661
19112TIP3    H178827   0.197   2.158  13.643 -1.7870 -0.7232 -0.5611
19112TIP3    H278828   0.156   2.295  13.690  0.8721  0.3232 -1.0817
19113TIP3   OH278829   2.270   2.116  15.838 -0.1565  0.6354 -0.2235
19113TIP3    H178830   2.196   2.058  15.818  1.1966 -1.0674 -0.4360
19113TIP3    H278831   2.264   2.184  15.771 -0.5269 -0.4552 -1.3464
19114TIP3   OH278832   3.919   5.551  14.483  0.4191  0.0900  0.4089
19114TIP3    H178833   3.906   5.612  14.411  0.5513  0.8736  1.0333
19114TIP3    H278834   3.996   5.500  14.458  0.1153 -0.0524 -0.2630
19115TIP3   OH278835   3.358   1.207  16.971 -0.5057  0.1687  0.1892
19115TIP3    H178836   3.280   1.233  16.921 -0.6441 -1.7318 -0.6778
19115TIP3    H278837   3.333   1.125  17.014  1.3247 -1.1221 -1.0445
19116TIP3   OH278838   1.552   1.707  11.997 -0.1451  0.0256  0.1996
19116TIP3    H178839   1.474   1.760  12.012 -0.2134 -0.8259  3.7205
19116TIP3    H278840   1.519   1.626  11.958 -1.7507 -1.6273  4.3577
19117TIP3   OH278841   6.615   1.399  16.908 -0.9966  0.1223  0.1163
19117TIP3    H178842   6.560   1.450  16.967 -0.5550  2.1666 -1.1244
19117TIP3    H278843   6.578   1.416  16.821  0.5187  0.1315 -0.5523
19118TIP3   OH278844   4.890   1.502  13.423  0.5223 -0.0554 -0.0738
19118TIP3    H178845   4.801   1.505  13.459  1.0817  0.2691  1.3340
19118TIP3    H278846   4.942   1.460  13.491  1.8886  1.7940  0.0998
19119TIP3   OH278847   6.674   4.761  11.776 -0.1016  0.2971  0.0924
19119TIP3    H178848   6.594   4.801  11.743 -0.1695 -0.5761 -0.8650
19119TIP3    H278849   6.645   4.683  11.823  0.0038  1.5024  2.2587
19120TIP3   OH278850   0.458   0.887  10.839 -0.1683  0.4060  0.3266
19120TIP3    H178851   0.517   0.920  10.906  1.3825 -0.9282 -0.3256
19120TIP3    H278852   0.512   0.829  10.785 -1.8734 -0.2091 -0.8113
19121TIP3   OH278853   4.444   0.038   1.303  0.1307 -0.5810  0.5012
19121TIP3    H178854   4.521   0.044   1.248  0.3608  0.6593  0.9171
19121TIP3    H278855   4.455  -0.044   1.351 -0.4712 -2.1114 -1.8084
19122TIP3   OH278856   3.487   0.076   4.210 -0.2007  0.1253 -0.1848
19122TIP3    H178857   3.547   0.114   4.146  0.4878 -0.0918  0.3327
19122TIP3    H278858   3.407   0.060   4.159  0.2494  0.1843 -0.9348
19123TIP3   OH278859   3.277   1.630   1.703  0.2386  0.8632  0.1378
19123TIP3    H178860   3.335   1.562   1.668 -0.0875  1.1882 -1.0968
19123TIP3    H278861   3.336   1.695   1.741  0.5917  0.3383  0.5102
19124TIP3   OH278862   4.032   2.404   4.782 -0.6588 -0.2694 -0.3078
19124TIP3    H178863   4.024   2.350   4.861 -1.2146 -0.6048 -0.5862
19124TIP3    H278864   4.005   2.491   4.810  0.3908 -0.0840  0.1837
19125TIP3   OH278865   3.684   4.744   2.019 -0.5583 -0.1603  0.1336
19125TIP3    H178866   3.679   4.820   1.961  0.2311 -0.7770 -0.7755
19125TIP3    H278867   3.777   4.721   2.020 -0.7212 -0.8349  0.7578
19126TIP3   OH278868   3.144   3.473  12.409 -0.4149 -0.2815 -0.0210
19126TIP3    H178869   3.111   3.386  12.433 -1.2144 -0.4802 -1.6693
19126TIP3    H278870   3.147   3.472  12.313  1.9815  0.6556 -0.0443
19127TIP3   OH278871   0.917   2.668  12.056  0.0346  0.1684 -0.2586
19127TIP3    H178872   0.823   2.653  12.063  0.1146 -0.2562 -0.0671
19127TIP3    H278873   0.926   2.732  11.985 -0.4619  0.9357  0.3561
19128TIP3   OH278874   5.061   4.862   1.902 -0.1313 -0.3472 -0.2071
19128TIP3    H178875   4.992   4.830   1.844 -1.5245  2.4746 -0.2510
19128TIP3    H278876   5.018   4.929   1.955  1.5371 -1.5194  2.8781
19129TIP3   OH278877   0.029   3.193  12.501  0.4510  0.2243 -0.4369
19129TIP3    H178878   0.045   3.257  12.432 -2.4249 -0.0819 -1.5292
19129TIP3    H278879  -0.066   3.186  12.506  0.6112 -2.0423  1.4797
19130TIP3   OH278880   6.788   1.456  14.002  0.1509  0.1132 -0.4957
19130TIP3    H178881   6.855   1.434  13.937 -0.0734 -2.2030 -0.0302
19130TIP3    H278882   6.809   1.546  14.029  2.3635 -0.1408 -1.1800
19131TIP3   OH278883   1.187   3.890   5.311 -0.1512  0.2379 -0.7044
19131TIP3    H178884   1.178   3.965   5.253 -0.2683  0.3155 -0.5879
19131TIP3    H278885   1.281   3.878   5.321 -0.0903  1.6657  0.9385
19132TIP3   OH278886   0.411   5.624  16.193 -0.2563 -0.3971  0.3009
19132TIP3    H178887   0.370   5.676  16.124  1.3156  1.0971  0.4529
19132TIP3    H278888   0.503   5.617  16.168 -0.0126 -1.3648  1.3537
19133TIP3   OH278889   0.914   6.532   3.897 -0.4978 -0.4523 -0.1012
19133TIP3    H178890   0.918   6.559   3.805 -3.2715  0.1186 -0.1197
19133TIP3    H278891   0.959   6.602   3.944 -0.9051  0.3290 -0.8438
19134TIP3   OH278892   2.248   1.904   4.429 -0.3352 -0.1813 -0.3522
19134TIP3    H178893   2.214   1.964   4.495  1.0986  1.4783 -1.0419
19134TIP3    H278894   2.196   1.922   4.351 -1.3020 -1.3684 -0.0067
19135TIP3   OH278895   1.322   4.730   0.481 -0.0223 -0.1287  0.3595
19135TIP3    H178896   1.412   4.711   0.456  0.2826  1.2037  0.3498
19135TIP3    H278897   1.309   4.822   0.457 -1.4312 -0.3366  0.2398
19136TIP3   OH278898   1.820   6.228   2.914  0.3389 -0.2502 -0.2305
19136TIP3    H178899   1.891   6.210   2.977 -0.7272 -0.6431  0.8900
19136TIP3    H278900   1.742   6.190   2.954 -0.4705 -0.0602 -1.5772
19137TIP3   OH278901   5.411   5.040   2.121 -0.0016  1.0761  0.3397
19137TIP3    H178902   5.451   4.954   2.138  1.0220  1.3461 -0.5716
19137TIP3    H278903   5.423   5.089   2.202  1.3550  1.0661  0.1769
19138TIP3   OH278904   5.666   0.553   2.709 -0.1986 -0.0437 -0.3954
19138TIP3    H178905   5.649   0.576   2.801 -1.4222  0.2332 -0.6726
19138TIP3    H278906   5.760   0.563   2.699 -0.1841  0.9583  0.5536
19139TIP3   OH278907   4.129   0.423  12.538 -0.9399  0.1579 -0.3020
19139TIP3    H178908   4.203   0.427  12.478 -0.5174  1.5639  0.2735
19139TIP3    H278909   4.105   0.330  12.541  0.0630 -0.1552 -1.3679
19140TIP3   OH278910   4.050   2.467  12.537 -0.0018 -0.3366  0.2716
19140TIP3    H178911   4.109   2.542  12.545 -0.0346 -0.3172  0.3300
19140TIP3    H278912   3.972   2.503  12.493 -0.1603 -0.2568  0.6139
19141TIP3   OH278913   3.999   5.676  11.759 -0.4004 -0.1763 -0.4356
19141TIP3    H178914   4.030   5.745  11.700  1.8833  0.8765  1.7781
19141TIP3    H278915   4.070   5.611  11.760 -0.2665 -0.0610  1.2213
19142TIP3   OH278916   3.964   6.017  13.836  0.5811 -0.3178  0.0368
19142TIP3    H178917   4.009   6.018  13.751  0.5265 -0.1462  0.0106
19142TIP3    H278918   3.969   5.926  13.864  1.7403 -0.1512  0.4539
19143TIP3   OH278919   1.879   5.251   6.370 -0.4271  0.0499  0.1106
19143TIP3    H178920   1.940   5.275   6.300 -1.2736 -0.9214 -0.9882
19143TIP3    H278921   1.929   5.264   6.451  1.6379 -1.7841 -0.7756
19144TIP3   OH278922   4.350   5.349   1.702  0.0731 -0.1467 -0.1253
19144TIP3    H178923   4.397   5.317   1.779  0.5340 -2.1136 -1.1546
19144TIP3    H278924   4.389   5.435   1.683  0.6615 -0.1052  1.2010
19145TIP3   OH278925   4.829   3.286   0.938 -0.0254  0.4181  0.5676
19145TIP3    H178926   4.871   3.329   0.864 -1.8168  1.1510 -0.0876
19145TIP3    H278927   4.900   3.270   1.000  1.3746  0.6052 -0.9103
19146TIP3   OH278928   0.654   5.054  16.068 -0.1882 -0.0350 -0.3337
19146TIP3    H178929   0.609   5.038  15.985 -0.4945  1.0325 -0.3831
19146TIP3    H278930   0.744   5.077  16.043 -0.7812  2.3315 -0.5452
19147TIP3   OH278931   2.655   5.435   0.003  0.4561 -0.3531 -0.1211
19147TIP3    H178932   2.748   5.434  -0.022  0.5082  0.7540 -0.0518
19147TIP3    H278933   2.608   5.446  -0.080  0.4458  0.0027 -0.0714
19148TIP3   OH278934   4.823   0.355   1.716 -0.0515  0.1247 -0.1395
19148TIP3    H178935   4.900   0.315   1.675  0.4011 -1.1488  1.8277
19148TIP3    H278936   4.857   0.398   1.794 -1.2383  0.2257  0.3376
19149TIP3   OH278937   3.289   3.597   1.754 -0.3757 -0.3573  0.4278
19149TIP3    H178938   3.341   3.677   1.755  1.4007 -1.4590  1.3406
19149TIP3    H278939   3.264   3.584   1.846  0.3820 -1.4516  0.4980
19150TIP3   OH278940   1.972   1.778  11.561  0.3793 -0.2543  0.1926
19150TIP3    H178941   2.043   1.842  11.557  0.6712 -0.5526  0.5188
19150TIP3    H278942   2.015   1.694  11.543  0.0690 -0.4087  0.1729
19151TIP3   OH278943   2.410   3.271  16.513 -0.0157 -0.2038 -0.0074
19151TIP3    H178944   2.488   3.281  16.459 -1.1720 -1.3875 -2.0066
19151TIP3    H278945   2.338   3.265  16.451 -1.3064 -2.7155  1.5690
19152TIP3   OH278946   6.610   2.936   4.857 -0.7191  0.4735 -1.0570
19152TIP3    H178947   6.636   2.984   4.936  1.0105 -1.0084 -0.6581
19152TIP3    H278948   6.561   2.860   4.890  2.2863 -1.6395 -1.0796
19153TIP3   OH278949   5.036   0.119   1.657 -0.0130  0.4205 -0.2692
19153TIP3    H178950   5.091   0.155   1.727 -0.4622 -0.1782  0.4132
19153TIP3    H278951   5.060   0.026   1.653  1.4920  0.8377 -2.3442
19154TIP3   OH278952   0.756   0.088  16.661 -0.0680 -0.6360 -0.2194
19154TIP3    H178953   0.726   0.080  16.570 -2.6085 -1.5670  0.5956
19154TIP3    H278954   0.721   0.173  16.689  1.7301  0.2031 -0.4000
19155TIP3   OH278955   3.494   4.518  11.888  0.1524  0.3825 -0.0558
19155TIP3    H178956   3.404   4.527  11.856 -0.1630  1.7865  1.1051
19155TIP3    H278957   3.536   4.459  11.826 -1.5440 -0.2380 -0.6704
19156TIP3   OH278958   2.016   6.460  14.049 -0.4306  0.9412 -0.0365
19156TIP3    H178959   2.093   6.508  14.018  1.4354 -1.4909  0.5092
19156TIP3    H278960   2.004   6.490  14.139  0.0477  1.1397 -0.0354
19157TIP3   OH278961   3.985   6.127   5.302  0.0927 -0.2749 -0.0168
19157TIP3    H178962   4.024   6.093   5.383  0.6378 -0.3526 -0.3152
19157TIP3    H278963   3.981   6.222   5.315  0.0546 -0.2987  0.1525
19158TIP3   OH278964   2.184   4.946   0.416 -0.2633 -0.1151 -0.0512
19158TIP3    H178965   2.159   4.857   0.440 -2.8199 -0.3486 -2.8824
19158TIP3    H278966   2.127   5.002   0.469 -0.8471 -0.3358 -0.4301
19159TIP3   OH278967   0.038   1.904   0.774 -0.1100 -0.0008 -0.3985
19159TIP3    H178968  -0.057   1.908   0.763 -0.8665 -3.8089  2.6035
19159TIP3    H278969   0.071   1.876   0.689 -1.9097 -0.2718 -1.0451
19160TIP3   OH278970   3.113   3.572   0.205 -0.2927  0.4436 -0.2940
19160TIP3    H178971   3.130   3.547   0.295 -3.1798  0.3328  0.3371
19160TIP3    H278972   3.147   3.500   0.152  0.1455 -0.1620  0.7976
19161TIP3   OH278973   1.839   6.658  11.537 -0.6213  0.0616  0.0401
19161TIP3    H178974   1.933   6.660  11.523 -0.5184  0.9007  0.7594
19161TIP3    H278975   1.803   6.629  11.453  0.1419  2.0340 -1.0378
19162TIP3   OH278976   0.831   4.586  15.243  0.6528  0.3849  0.5627
19162TIP3    H178977   0.913   4.598  15.291  0.5249 -0.1566  0.9348
19162TIP3    H278978   0.789   4.512  15.287  0.0490  0.5429  0.2601
19163TIP3   OH278979   5.893   3.586   0.955 -0.2231 -0.6027 -0.0665
19163TIP3    H178980   5.962   3.643   0.922  0.4116 -1.4642 -0.2814
19163TIP3    H278981   5.832   3.644   1.000  1.1402  0.0804  0.9789
19164TIP3   OH278982   4.231   4.924   2.888  0.4330 -0.0643 -0.3938
19164TIP3    H178983   4.151   4.918   2.940  0.5123  0.1702 -0.2389
19164TIP3    H278984   4.237   5.017   2.865  0.6289 -0.0900 -0.4514
19165TIP3   OH278985   3.676   5.464   3.782 -0.0272 -0.3222 -0.4280
19165TIP3    H178986   3.662   5.524   3.709 -3.4471  0.3861  0.6553
19165TIP3    H278987   3.619   5.389   3.764  0.7009 -1.1367  0.5050
19166TIP3   OH278988   4.584   1.956  13.525  0.6083  0.1122  0.0636
19166TIP3    H178989   4.633   1.938  13.605 -0.2154 -0.8557  0.3687
19166TIP3    H278990   4.592   2.051  13.513 -0.6567  0.5585  2.2227
19167TIP3   OH278991   1.847   6.103  13.726 -0.3600 -0.3338 -0.1237
19167TIP3    H178992   1.885   6.154  13.798 -2.3272 -0.8506  1.3475
19167TIP3    H278993   1.888   6.140  13.647  1.5925  0.4928  1.1926
19168TIP3   OH278994   1.428   2.857  12.556 -0.4970 -0.0486 -0.3218
19168TIP3    H178995   1.466   2.776  12.590  0.4433  1.0760  1.5175
19168TIP3    H278996   1.494   2.892  12.497 -1.1400 -0.8482 -1.5624
19169TIP3   OH278997   3.651   6.741   3.833  0.1017  0.3132  0.2428
19169TIP3    H178998   3.697   6.691   3.901  0.1685  1.0331  0.7423
19169TIP3    H278999   3.646   6.682   3.759  0.5482 -0.2895  0.6838
19170TIP3   OH279000   1.119   2.160  10.292  0.3170 -0.0241  0.6999
19170TIP3    H179001   1.037   2.184  10.248  0.6007 -0.1605  0.0963
19170TIP3    H279002   1.129   2.066  10.275  1.1418  0.2068 -0.1294
19171TIP3   OH279003   4.367   5.245   5.129 -0.3130 -0.0846 -0.0664
19171TIP3    H179004   4.317   5.180   5.079  0.0900 -0.3555 -0.1188
19171TIP3    H279005   4.439   5.195   5.168  0.8251  0.5852 -1.2567
19172TIP3   OH279006   0.573   6.775   5.453 -0.3295  0.7276  0.3634
19172TIP3    H179007   0.492   6.803   5.411  0.2949  0.3407 -1.1578
19172TIP3    H279008   0.555   6.782   5.547 -1.3154  2.9394  0.0688
19173TIP3   OH279009   6.246   5.999  15.113  0.3425  0.3494  0.2911
19173TIP3    H179010   6.298   6.024  15.189  0.7238  0.4041  0.0139
19173TIP3    H279011   6.309   5.955  15.055  0.2969  1.3070 -0.4932
19174TIP3   OH279012   4.399   5.918   4.456  0.4564 -0.5464 -0.2720
19174TIP3    H179013   4.445   5.995   4.422 -1.2773 -0.0848 -1.7119
19174TIP3    H279014   4.465   5.848   4.456  1.5583  0.4715 -0.7455
19175TIP3   OH279015   4.957   5.940  12.320  0.4321  0.1107 -1.2069
19175TIP3    H179016   5.017   5.991  12.267  0.8786 -1.2665 -2.0627
19175TIP3    H279017   4.914   5.881  12.259  1.8074 -2.3575  0.0285
19176TIP3   OH279018   2.012   5.810   0.004 -0.0794 -0.7300 -0.0217
19176TIP3    H179019   2.047   5.899   0.010  0.9233 -1.1068 -0.0738
19176TIP3    H279020   1.923   5.816   0.039  0.4013  0.0570  1.1089
19177TIP3   OH279021   3.150   5.834  14.454 -0.1411  0.1149 -0.0904
19177TIP3    H179022   3.114   5.833  14.365 -0.0981  1.5564 -0.1440
19177TIP3    H279023   3.243   5.814  14.442  0.1636  1.6433 -0.5586
19178TIP3   OH279024   4.651   5.315  16.959  0.2479 -0.3123 -0.4028
19178TIP3    H179025   4.736   5.320  16.914 -0.2885  0.2378 -1.3727
19178TIP3    H279026   4.669   5.346  17.047  0.7419  1.3368 -1.0544
19179TIP3   OH279027   0.198   0.136  16.168  0.1365  0.0485 -0.1970
19179TIP3    H179028   0.205   0.212  16.110 -0.0942  0.7400  0.6599
19179TIP3    H279029   0.174   0.064  16.110 -1.5997  1.0192 -0.7708
19180TIP3   OH279030   4.107   3.572  14.330  0.4518  0.2083 -0.2731
19180TIP3    H179031   4.034   3.634  14.326  0.3023  0.0786  0.3324
19180TIP3    H279032   4.088   3.519  14.407  0.6580 -0.4919 -0.6957
19181TIP3   OH279033   1.627   4.811  14.253  0.0513  0.0946  0.8110
19181TIP3    H179034   1.670   4.859  14.183  1.4670 -1.5841  0.4422
19181TIP3    H279035   1.534   4.825  14.238  0.3155 -0.1268 -1.3701
19182TIP3   OH279036   1.916   5.737  12.727 -0.0763  0.1578  0.3592
19182TIP3    H179037   1.985   5.759  12.790  0.6609  1.4077 -0.8170
19182TIP3    H279038   1.916   5.641  12.724  2.0942  0.1156 -0.0675
19183TIP3   OH279039   2.344   0.995   4.971 -0.1059  0.3847 -0.4120
19183TIP3    H179040   2.348   1.065   4.906 -0.8782 -0.1435 -1.0527
19183TIP3    H279041   2.431   0.995   5.012 -0.0591  1.6345 -0.4718
19184TIP3   OH279042   4.834   6.789   5.685 -0.1020 -0.5324  0.1740
19184TIP3    H179043   4.923   6.757   5.693 -0.7920 -2.7789 -0.4185
19184TIP3    H279044   4.841   6.864   5.624  1.1668 -1.7799 -1.3105
19185TIP3   OH279045   6.469   6.141   3.407  0.8218 -0.4937 -0.3303
19185TIP3    H179046   6.442   6.184   3.326 -1.9278  0.4525  0.9481
19185TIP3    H279047   6.541   6.194   3.440 -0.0560  0.9561 -0.6661
19186TIP3   OH279048   0.888   6.419  16.019  0.1607 -0.5717  0.1552
19186TIP3    H179049   0.799   6.453  16.025 -0.0302 -0.8820 -0.7529
19186TIP3    H279050   0.885   6.337  16.068  0.4868  0.3931  1.8818
19187TIP3   OH279051   5.004   3.865  13.783 -0.0023  0.4452 -0.3775
19187TIP3    H179052   4.992   3.943  13.729 -0.3232  0.0251 -0.9309
19187TIP3    H279053   5.047   3.802  13.726 -0.6374 -0.1183 -0.2593
19188TIP3   OH279054   0.332   2.269  10.701  0.1430 -0.0442 -0.2906
19188TIP3    H179055   0.409   2.315  10.670  1.2457  0.4486  2.8392
19188TIP3    H279056   0.261   2.333  10.694  0.8208  0.7905  0.2818
19189TIP3   OH279057   0.845   4.844   5.209  0.4421  0.4442 -0.0209
19189TIP3    H179058   0.778   4.874   5.149  0.2553  1.1965  0.5444
19189TIP3    H279059   0.842   4.748   5.203 -0.7145  0.4645  0.0346
19190TIP3   OH279060   4.016   6.519   1.532  0.1596  0.2815  0.4880
19190TIP3    H179061   4.078   6.547   1.599  0.8062 -0.8100  0.3638
19190TIP3    H279062   4.037   6.427   1.517 -1.7287 -0.2225  0.7022
19191TIP3   OH279063   0.222   0.925   0.075  0.1939  0.3076 -0.3594
19191TIP3    H179064   0.293   0.930   0.139  0.1172 -2.0257  0.0028
19191TIP3    H279065   0.267   0.908  -0.008  0.1091 -0.9389 -0.1676
19192TIP3   OH279066   6.608   5.233   3.636  0.3276 -0.4735  0.7566
19192TIP3    H179067   6.542   5.167   3.613  0.4810 -1.1703  2.2252
19192TIP3    H279068   6.569   5.281   3.709  0.5397  0.5922  0.1958
19193TIP3   OH279069   4.721   3.301   5.622 -0.4782 -0.4721 -0.0949
19193TIP3    H179070   4.766   3.385   5.618 -0.4751 -0.4766 -0.1545
19193TIP3    H279071   4.631   3.323   5.644 -0.7474 -0.3600 -1.2285
19194TIP3   OH279072   3.427   2.499   0.998  0.3769 -0.3305  0.1510
19194TIP3    H179073   3.368   2.521   0.926 -0.0632 -0.0367  0.5912
19194TIP3    H279074   3.424   2.403   1.003 -0.4078 -0.2985  0.4452
19195TIP3   OH279075   6.224   1.951  13.942 -0.1853  0.5282 -0.7120
19195TIP3    H179076   6.220   2.022  13.878  0.2633  0.5217 -0.7478
19195TIP3    H279077   6.305   1.966  13.990 -0.6852  0.7250  0.0898
19196TIP3   OH279078   0.573   5.343   2.523  0.0129 -0.1669 -0.4844
19196TIP3    H179079   0.564   5.362   2.617 -0.7553  2.1206 -0.9582
19196TIP3    H279080   0.666   5.326   2.510 -0.1690 -3.1458  1.0538
19197TIP3   OH279081   1.800   6.387  16.979  0.0627  0.2436 -0.0479
19197TIP3    H179082   1.757   6.351  17.057 -1.3905  3.1860  0.6419
19197TIP3    H279083   1.733   6.384  16.911  1.0022 -1.3491 -0.9619
19198TIP3   OH279084   0.910   4.796  16.136 -0.0178  0.5198 -0.1504
19198TIP3    H179085   0.860   4.872  16.165  1.8786  2.1921 -1.0026
19198TIP3    H279086   0.966   4.830  16.065  0.5925 -1.7762 -0.8491
19199TIP3   OH279087   4.557   4.413   2.563 -0.4499  0.2633  0.4131
19199TIP3    H179088   4.467   4.442   2.577 -0.1726  1.8917 -0.8754
19199TIP3    H279089   4.596   4.413   2.650 -1.6859 -0.5739  1.0106
19200TIP3   OH279090   3.169   1.227   5.848  0.1912 -0.3459 -0.2089
19200TIP3    H179091   3.165   1.144   5.800  2.0226 -1.5621  1.5707
19200TIP3    H279092   3.086   1.231   5.896 -0.5378 -0.3853 -1.4250
19201TIP3   OH279093   1.658   0.723  13.841  0.1802  0.1467  0.0934
19201TIP3    H179094   1.734   0.697  13.788  0.8808  1.4885  0.3931
19201TIP3    H279095   1.696   0.758  13.921 -0.8247 -0.3794  0.8153
19202TIP3   OH279096   2.261   0.639  15.263  0.1894 -0.5776 -0.5519
19202TIP3    H179097   2.223   0.551  15.262  1.3552 -1.1200 -0.0358
19202TIP3    H279098   2.351   0.625  15.295  0.0188  0.9436  0.7085
19203TIP3   OH279099   6.790   1.165  16.656 -0.5287 -0.1606 -0.2644
19203TIP3    H179100   6.823   1.084  16.696 -1.9501 -0.9738 -0.6645
19203TIP3    H279101   6.704   1.141  16.621 -0.5654  1.2898 -1.2458
19204TIP3   OH279102   0.977   1.110   2.506  0.3957  0.3556 -0.5767
19204TIP3    H179103   1.065   1.130   2.473  1.3117 -0.6617  1.1262
19204TIP3    H279104   0.964   1.171   2.578  0.0378 -0.0300 -0.3119
19205TIP3   OH279105   6.219   0.736   1.017 -0.2336  0.1618  0.4131
19205TIP3    H179106   6.182   0.649   1.005  0.0216  0.1274 -0.1369
19205TIP3    H279107   6.144   0.795   1.015 -0.2335  0.1558 -1.2858
19206TIP3   OH279108   5.045   2.853  16.054 -0.1958  0.1460  0.6925
19206TIP3    H179109   4.965   2.887  16.092  0.1617 -0.7736  2.3697
19206TIP3    H279110   5.070   2.780  16.111  3.3964  2.1773  2.0689
19207TIP3   OH279111   3.559   1.844   4.882  0.3937  0.2184  0.3856
19207TIP3    H179112   3.621   1.841   4.809  0.8089 -0.1481  0.7428
19207TIP3    H279113   3.473   1.844   4.841  0.6166 -0.2539 -0.1031
19208TIP3   OH279114   3.133   0.789   0.996 -0.1787 -0.1550 -0.1311
19208TIP3    H179115   3.119   0.755   1.084 -0.9442 -2.4470 -1.0610
19208TIP3    H279116   3.058   0.845   0.979  0.2070  0.6691  0.8152
19209TIP3   OH279117   3.753   3.986   4.145 -1.1167 -0.1094 -0.3997
19209TIP3    H179118   3.718   3.900   4.166 -2.2992  0.1550 -1.2357
19209TIP3    H279119   3.794   3.976   4.059  2.7559 -0.9121  1.3083
19210TIP3   OH279120   4.081   0.686  11.274  0.0027  0.1200  0.2298
19210TIP3    H179121   4.057   0.623  11.205 -1.8267  1.3262 -0.3300
19210TIP3    H279122   4.091   0.633  11.353 -0.3265 -1.0146 -0.4657
19211TIP3   OH279123   1.880   4.949  14.145  0.0669  0.1026 -0.0265
19211TIP3    H179124   1.905   4.860  14.170 -0.7129 -0.8218 -2.2562
19211TIP3    H279125   1.944   5.005  14.188  0.4260 -1.5018  1.6389
19212TIP3   OH279126   5.957   4.614   3.412 -0.1327 -0.1053  0.0552
19212TIP3    H179127   5.868   4.639   3.437  0.6084  0.6352  2.1661
19212TIP3    H279128   5.959   4.519   3.424 -0.9387 -0.2876 -1.1132
19213TIP3   OH279129   5.829   0.189   0.531 -0.2867 -0.6372  0.3896
19213TIP3    H179130   5.781   0.120   0.577  0.2030 -0.2945  1.4406
19213TIP3    H279131   5.803   0.270   0.575  0.0836 -0.2809 -0.0364
19214TIP3   OH279132   5.010   1.429  13.029 -0.1053 -0.5215 -0.6523
19214TIP3    H179133   5.071   1.371  12.983  0.6312  0.6687 -1.2058
19214TIP3    H279134   5.040   1.517  13.008 -1.3934  0.0755 -0.0718
19215TIP3   OH279135   5.236   6.378  14.039 -0.0283  0.4793 -0.2333
19215TIP3    H179136   5.153   6.345  14.005 -0.2042  2.1309 -1.5245
19215TIP3    H279137   5.297   6.305  14.027 -1.0685 -0.4347 -0.1246
19216TIP3   OH279138   5.428   2.231   0.246  0.2586  0.2352  0.1138
19216TIP3    H179139   5.493   2.220   0.315  0.9393 -0.5994 -0.6341
19216TIP3    H279140   5.392   2.144   0.232  2.4652 -0.3586 -2.7759
19217TIP3   OH279141   0.637   5.302   6.206  0.4268 -0.2869 -0.3741
19217TIP3    H179142   0.567   5.237   6.215  0.8583 -1.0546 -2.2232
19217TIP3    H279143   0.717   5.250   6.199  1.0476  0.5390  0.3703
19218TIP3   OH279144   1.619   5.601  11.803  0.5299 -0.6863 -0.1415
19218TIP3    H179145   1.702   5.555  11.791  0.7007  0.1399 -3.3263
19218TIP3    H279146   1.554   5.546  11.759  0.1633  0.4978 -1.1497
19219TIP3   OH279147   2.788   5.881  16.401  0.3279 -0.1316  0.0888
19219TIP3    H179148   2.726   5.892  16.329 -0.1473  2.5120  0.7979
19219TIP3    H279149   2.737   5.839  16.470 -0.3836  0.9952  0.2674
19220TIP3   OH279150   1.435   2.257   6.067 -0.4235  0.4139  0.5186
19220TIP3    H179151   1.487   2.193   6.115  0.6547  0.4935 -0.4811
19220TIP3    H279152   1.488   2.337   6.069  0.2406  0.1163 -1.7039
19221TIP3   OH279153   1.481   3.933  16.234  0.1848 -0.1114 -0.0897
19221TIP3    H179154   1.392   3.934  16.269  0.8102 -0.4522  1.5898
19221TIP3    H279155   1.537   3.951  16.310  1.6339 -1.3662 -0.8087
19222TIP3   OH279156   2.864   1.759   4.521  0.0699  0.5051 -0.1959
19222TIP3    H179157   2.799   1.720   4.579 -0.0937  0.4425 -0.4225
19222TIP3    H279158   2.868   1.851   4.549  0.4762  0.3252  0.3554
19223TIP3   OH279159   2.689   5.535   2.608 -0.4527  0.0685  0.4483
19223TIP3    H179160   2.695   5.440   2.595 -2.0123 -0.0734  0.5991
19223TIP3    H279161   2.753   5.572   2.548  0.0669 -1.0764  0.2768
19224TIP3   OH279162   6.228   2.246  15.846  0.3506  0.2554 -0.4423
19224TIP3    H179163   6.231   2.232  15.751  0.7959  1.1192 -0.5657
19224TIP3    H279164   6.246   2.339  15.856  0.6169  0.1037  0.5166
19225TIP3   OH279165   4.367   5.559  16.584  0.2615 -0.1796 -0.3474
19225TIP3    H179166   4.424   5.625  16.623  0.6058 -0.9594  0.5362
19225TIP3    H279167   4.310   5.532  16.656  0.8911 -1.6453 -0.3552
19226TIP3   OH279168   4.722   6.101   1.931 -0.0126 -0.0488 -0.3748
19226TIP3    H179169   4.670   6.030   1.893  0.9017 -2.3619  2.3350
19226TIP3    H279170   4.679   6.120   2.014  2.1874 -0.5690  0.9658
19227TIP3   OH279171   6.110   6.445   4.068  0.4289 -0.8673  0.3346
19227TIP3    H179172   6.085   6.513   4.005 -2.0544 -1.1176  0.9319
19227TIP3    H279173   6.159   6.381   4.016  0.3518 -0.0098 -0.8525
19228TIP3   OH279174   6.719   4.798   4.140  0.3037  0.5861  0.5636
19228TIP3    H179175   6.688   4.889   4.137  0.2864  0.5675 -0.2342
19228TIP3    H279176   6.781   4.796   4.213  2.4986  1.9675 -1.1136
19229TIP3   OH279177   0.778   2.138   5.362  0.2116  0.0905 -0.2955
19229TIP3    H179178   0.863   2.182   5.366  1.2318 -1.8388  0.2984
19229TIP3    H279179   0.734   2.180   5.288  2.5424 -0.2716 -2.0168
19230TIP3   OH279180   5.962   2.943  13.712  0.0061  0.0309 -0.2495
19230TIP3    H179181   5.905   2.870  13.736  1.1444 -0.7526  0.1772
19230TIP3    H279182   5.904   3.019  13.711 -0.7383 -0.4120  1.9662
19231TIP3   OH279183   1.404   2.283   4.090 -0.2174 -0.7767 -0.0100
19231TIP3    H179184   1.363   2.204   4.124 -1.1359 -0.9314 -1.4008
19231TIP3    H279185   1.497   2.262   4.087 -0.2722 -1.2480  1.0414
19232TIP3   OH279186   6.257   0.459   3.421  0.4611  0.5240 -0.3750
19232TIP3    H179187   6.300   0.388   3.468 -0.2489  1.0466  1.1466
19232TIP3    H279188   6.323   0.528   3.415  0.3761  0.6807  0.4140
19233TIP3   OH279189   5.885   4.095   0.332 -0.8209 -0.6050 -0.0478
19233TIP3    H179190   5.941   4.159   0.376  0.1462 -1.0158 -0.6376
19233TIP3    H279191   5.930   4.011   0.345 -0.0958 -0.6566 -2.3750
19234TIP3   OH279192   1.207   1.148  13.179  0.0942  0.2627 -0.3953
19234TIP3    H179193   1.181   1.218  13.121  0.3174 -0.0342 -0.8618
19234TIP3    H279194   1.125   1.115  13.217 -0.0801  0.2646 -0.7684
19235TIP3   OH279195   2.409   2.001  15.257  0.0127 -0.1070  0.4189
19235TIP3    H179196   2.457   1.961  15.185 -0.0340  0.9341 -0.2107
19235TIP3    H279197   2.317   1.988  15.235  0.0001 -0.5014  0.7026
19236TIP3   OH279198   6.263   6.407  11.376  0.3173  0.3548 -0.3794
19236TIP3    H179199   6.321   6.344  11.419 -0.8524 -0.8255 -0.4607
19236TIP3    H279200   6.226   6.359  11.302 -0.2536  1.2836 -0.7081
19237TIP3   OH279201   2.034   0.983  10.998  0.0928  0.0378 -0.1005
19237TIP3    H179202   1.963   0.992  11.061  2.0281 -2.6821  2.7707
19237TIP3    H279203   2.111   1.015  11.044  1.2979 -0.2238 -1.8468
19238TIP3   OH279204   5.457   3.440  13.969  0.2956 -0.1165  0.0713
19238TIP3    H179205   5.436   3.349  13.990  0.7386 -0.3650 -0.5501
19238TIP3    H279206   5.511   3.469  14.043 -0.7748  0.0042  0.8303
19239TIP3   OH279207   6.332   0.506   3.725  0.1782  0.3878  0.1915
19239TIP3    H179208   6.403   0.462   3.771  0.0722  0.3354  0.3052
19239TIP3    H279209   6.339   0.598   3.750 -0.7982  0.1334  1.5136
19240TIP3   OH279210   2.012   6.412   1.900 -0.1517  0.4601  0.7003
19240TIP3    H179211   1.970   6.494   1.873 -1.7328  0.1978  2.1561
19240TIP3    H279212   2.065   6.386   1.825  0.2559  2.7050  0.1387
19241TIP3   OH279213   4.552   1.268  11.671 -0.1326 -0.6351  0.1599
19241TIP3    H179214   4.616   1.289  11.604  0.7238 -3.5199 -0.0842
19241TIP3    H279215   4.603   1.229  11.742 -1.2625  0.3326  1.5699
19242TIP3   OH279216   2.337   1.237  11.798  0.3878 -0.0586 -0.1709
19242TIP3    H179217   2.274   1.177  11.758 -0.7334  1.3534 -0.6056
19242TIP3    H279218   2.318   1.322  11.759  1.3801  0.7620  1.0385
19243TIP3   OH279219   0.234   2.735   4.818  0.4175 -0.1665  0.3010
19243TIP3    H179220   0.158   2.766   4.768 -0.5448 -2.8061 -0.0177
19243TIP3    H279221   0.310   2.759   4.764 -0.3000  0.9543 -0.2342
19244TIP3   OH279222   1.413   6.340   0.318  0.0190  0.2543  0.7457
19244TIP3    H179223   1.317   6.336   0.313  0.0661 -0.0891 -0.2253
19244TIP3    H279224   1.442   6.261   0.272  0.7777  0.9935 -0.0919
19245TIP3   OH279225   6.127   4.001   5.580  0.1078 -0.1600  0.2167
19245TIP3    H179226   6.084   3.920   5.550 -0.1764  0.4578 -1.1014
19245TIP3    H279227   6.056   4.054   5.617 -0.2337  0.6564 -1.5191
19246TIP3   OH279228   3.420   2.900   3.347  0.3130  0.2150  0.1805
19246TIP3    H179229   3.467   2.869   3.424 -1.3557 -0.5935  0.9332
19246TIP3    H279230   3.330   2.913   3.377 -0.2278  0.6003 -1.4599
19247TIP3   OH279231   3.144   5.959   3.370 -0.0327  0.7957  0.4642
19247TIP3    H179232   3.225   5.948   3.321  0.5238 -2.0201  1.8338
19247TIP3    H279233   3.077   5.969   3.303  1.3109  2.6635 -0.7082
19248TIP3   OH279234   5.640   1.220   6.227 -0.0031 -0.0478 -0.0546
19248TIP3    H179235   5.689   1.152   6.273  1.5210  1.3232  0.4560
19248TIP3    H279236   5.599   1.271   6.297  0.2590  0.5588 -0.3393
19249TIP3   OH279237   0.102   2.485  13.679  0.2602 -0.3465 -0.4116
19249TIP3    H179238   0.139   2.573  13.672 -1.7291  0.4663 -1.4260
19249TIP3    H279239   0.035   2.492  13.747 -0.8958 -0.6545 -1.4727
19250TIP3   OH279240   0.229   2.617   1.739  0.1252 -0.1377 -0.2623
19250TIP3    H179241   0.186   2.542   1.780 -1.9053  1.4161  0.6000
19250TIP3    H279242   0.313   2.624   1.785 -0.1800 -1.1508  0.4913
19251TIP3   OH279243   2.227   2.135   3.541  0.2923  0.1267  0.1193
19251TIP3    H179244   2.283   2.171   3.610  0.4121  1.3901 -0.6106
19251TIP3    H279245   2.183   2.211   3.504 -1.8876 -0.8224  0.6162
19252TIP3   OH279246   5.225   4.064   1.342  0.2920 -0.3197  0.4998
19252TIP3    H179247   5.181   3.982   1.364  0.2316  0.2924  3.0799
19252TIP3    H279248   5.311   4.038   1.311 -0.2870 -1.3930 -0.2560
19253TIP3   OH279249   4.228   1.283  16.401 -0.1161 -0.1208 -0.0047
19253TIP3    H179250   4.195   1.195  16.419  2.1679 -1.2285 -0.7782
19253TIP3    H279251   4.214   1.331  16.482 -0.5886 -1.4902  0.7550
19254TIP3   OH279252   0.166   3.680   0.325 -0.1220  0.1344  0.4989
19254TIP3    H179253   0.250   3.640   0.307 -0.8234 -0.6262 -1.4132
19254TIP3    H279254   0.132   3.633   0.401  0.9783  0.1697  1.0259
19255TIP3   OH279255   4.609   0.070  12.375  0.3774  0.2743  0.7905
19255TIP3    H179256   4.572   0.018  12.446  1.5804  0.1564  1.3547
19255TIP3    H279257   4.602   0.014  12.298 -0.8873  0.3820  0.8005
19256TIP3   OH279258   1.931   1.073   4.060 -0.4529 -0.0564 -0.2600
19256TIP3    H179259   1.866   1.078   4.131  0.2953 -2.1312  0.6343
19256TIP3    H279260   1.904   0.998   4.008  0.1751  0.2245 -1.0050
19257TIP3   OH279261   1.116   4.732  11.705 -0.7226  0.3222  0.7713
19257TIP3    H179262   1.130   4.826  11.709 -1.8075  0.6720 -1.8583
19257TIP3    H279263   1.182   4.695  11.765  2.1960  2.5463 -0.8389
19258TIP3   OH279264   0.244   4.540   0.190  0.3015  0.7675  0.1866
19258TIP3    H179265   0.194   4.459   0.186  0.3723  0.7239  0.1893
19258TIP3    H279266   0.275   4.555   0.101  1.1070  0.2763  0.3728
19259TIP3   OH279267   5.113   4.367   5.864 -0.3848 -0.4754 -0.5426
19259TIP3    H179268   5.124   4.312   5.786  2.5742 -1.5212  0.4943
19259TIP3    H279269   5.102   4.304   5.936 -1.7217  0.4537  0.1107
19260TIP3   OH279270   2.355   5.059   0.852 -0.4003  0.3427 -0.0632
19260TIP3    H179271   2.344   5.008   0.932 -0.2502  0.6129  0.1325
19260TIP3    H279272   2.446   5.044   0.825  0.0408  1.5140  0.7073
19261TIP3   OH279273   4.647   6.637   2.883 -0.2844  0.4740 -0.1148
19261TIP3    H179274   4.663   6.727   2.912  0.7149  0.4892 -0.6627
19261TIP3    H279275   4.733   6.605   2.856 -0.5787 -0.7661  0.3869
19262TIP3   OH279276   2.416   2.126  15.500 -0.3440  0.3362  0.1481
19262TIP3    H179277   2.321   2.127  15.490 -0.6317 -1.2805  1.9269
19262TIP3    H279278   2.448   2.080  15.423 -0.8817  1.7511 -0.9548
19263TIP3   OH279279   6.317   5.376   1.150 -0.4076  0.3364  0.3925
19263TIP3    H179280   6.307   5.329   1.067  1.0604 -0.2469  0.5190
19263TIP3    H279281   6.260   5.328   1.211 -1.0192  0.3963 -0.1140
19264TIP3   OH279282   1.771   1.824   1.145 -0.0656 -0.0714 -0.1011
19264TIP3    H179283   1.842   1.806   1.083 -1.3866 -0.2342 -1.6308
19264TIP3    H279284   1.691   1.814   1.093 -1.1878  0.9342  1.3567
19265TIP3   OH279285   2.653   6.101   1.396  0.1980 -0.1571  0.0908
19265TIP3    H179286   2.696   6.168   1.343  0.6259 -1.1230 -0.8112
19265TIP3    H279287   2.725   6.052   1.435 -0.1096 -0.4956  0.2385
19266TIP3   OH279288   6.164   2.283  15.247  0.0628 -0.2244 -0.1057
19266TIP3    H179289   6.095   2.232  15.290  0.1721  0.2392  0.6444
19266TIP3    H279290   6.118   2.338  15.184 -0.5253  1.4558  1.6829
19267TIP3   OH279291   3.754   5.021   5.426  0.1593 -0.2763 -0.1969
19267TIP3    H179292   3.751   4.929   5.401  2.1846 -0.5607  0.4314
19267TIP3    H279293   3.681   5.032   5.486  0.3546 -1.6885  0.3370
19268TIP3   OH279294   5.533   2.144   0.522  1.0920  0.3659 -0.3116
19268TIP3    H179295   5.565   2.233   0.508  1.5618  0.0872 -1.0461
19268TIP3    H279296   5.527   2.135   0.617 -1.9518  2.2467 -0.1650
19269TIP3   OH279297   6.556   6.000  12.627 -0.0268 -0.2959 -0.1120
19269TIP3    H179298   6.504   5.921  12.612  0.1682 -0.6307  0.8846
19269TIP3    H279299   6.517   6.066  12.570 -2.6990 -0.0344  1.8204
19270TIP3   OH279300   4.550   2.014  15.321  0.2343 -0.1989 -0.4573
19270TIP3    H179301   4.521   2.042  15.234  0.8798 -0.8247 -0.8771
19270TIP3    H279302   4.611   2.083  15.349  2.3283 -1.3941 -1.7672
19271TIP3   OH279303   1.268   0.928   1.309 -0.3523  0.5269  0.5798
19271TIP3    H179304   1.257   0.899   1.218  0.3219 -0.4871  0.8002
19271TIP3    H279305   1.275   1.023   1.303 -3.7723  0.8684 -0.0749
19272TIP3   OH279306   3.052   5.420   0.786 -0.1615 -0.3396  0.0986
19272TIP3    H179307   3.074   5.328   0.770 -0.8431 -0.3269 -1.0143
19272TIP3    H279308   3.011   5.450   0.704  0.0686  0.9615  0.4270
19273TIP3   OH279309   2.231   6.814   0.546  0.2845  0.4821  0.1033
19273TIP3    H179310   2.288   6.818   0.469 -1.3803 -1.1098 -1.3284
19273TIP3    H279311   2.256   6.732   0.589 -0.7570 -0.1458 -0.4489
19274TIP3   OH279312   2.355   5.631  10.922  0.3965  0.2059  0.8275
19274TIP3    H179313   2.333   5.717  10.885  1.8376  0.2516 -0.0088
19274TIP3    H279314   2.293   5.619  10.994 -0.1746  1.7110  0.6252
19275TIP3   OH279315   2.458   1.642   1.791  0.4282  0.6594  0.0166
19275TIP3    H179316   2.471   1.581   1.863  3.2995  1.2671  0.1105
19275TIP3    H279317   2.522   1.711   1.805 -0.9739  2.3864 -1.5085
19276TIP3   OH279318   0.151   5.772   0.687 -0.5406 -0.2248 -0.3203
19276TIP3    H179319   0.166   5.867   0.687 -2.4472  0.1273 -0.6254
19276TIP3    H279320   0.237   5.734   0.703  0.4328  1.5294 -1.0651
19277TIP3   OH279321   1.324   4.732  14.576 -0.2178 -0.0148  0.6244
19277TIP3    H179322   1.244   4.712  14.626 -0.4821 -0.5701 -0.0146
19277TIP3    H279323   1.391   4.675  14.614 -0.4594 -0.5632  0.2306
19278TIP3   OH279324   5.377   0.758   1.570 -0.2668  0.2549  0.2312
19278TIP3    H179325   5.430   0.813   1.513  0.9318 -1.0000  0.0763
19278TIP3    H279326   5.438   0.730   1.639 -0.9095 -0.6775  0.4351
19279TIP3   OH279327   1.166   4.916  12.839  0.3760 -0.0609 -0.2739
19279TIP3    H179328   1.160   4.964  12.757  0.5957  1.2772  0.4554
19279TIP3    H279329   1.087   4.940  12.888  2.2604  2.7959  1.7007
19280TIP3   OH279330   5.878   2.590   4.493 -0.0316 -0.1511  0.2461
19280TIP3    H179331   5.928   2.616   4.417 -1.6026  0.5951 -0.5827
19280TIP3    H279332   5.797   2.554   4.457  0.2283 -2.1560  1.4979
19281TIP3   OH279333   1.251   5.722   5.552  0.4756  0.2660  0.0336
19281TIP3    H179334   1.231   5.755   5.639 -0.1506  0.1733 -0.0760
19281TIP3    H279335   1.212   5.635   5.549 -1.3570  1.0686 -1.0505
19282TIP3   OH279336   0.796   1.821   3.487  0.2171  0.3395  0.9489
19282TIP3    H179337   0.824   1.779   3.406 -0.1366 -2.1021  2.0035
19282TIP3    H279338   0.712   1.862   3.465 -1.3593 -2.7517  0.6733
19283TIP3   OH279339   5.351   1.789   6.098 -0.4709  0.6953  0.0909
19283TIP3    H179340   5.330   1.745   6.015 -0.6366  1.0824 -0.0722
19283TIP3    H279341   5.270   1.783   6.149  0.1555 -1.1837  0.9747
19284TIP3   OH279342   6.614   5.272   1.131  0.4148  0.2452  0.8526
19284TIP3    H179343   6.611   5.223   1.213  0.0591 -4.0422 -1.3888
19284TIP3    H279344   6.707   5.285   1.115  0.5281  0.2683  1.5043
19285TIP3   OH279345   6.396   2.354  11.588 -0.4361  0.0013 -0.0037
19285TIP3    H179346   6.328   2.398  11.638 -0.9994 -1.0995  0.2306
19285TIP3    H279347   6.373   2.261  11.592 -0.8799 -0.0928 -2.8730
19286TIP3   OH279348   5.811   6.238   6.713  0.4105  0.3389 -0.1295
19286TIP3    H179349   5.775   6.182   6.644  0.9927  2.5785 -2.4004
19286TIP3    H279350   5.889   6.191   6.743  1.1012  0.0485 -2.2220
19287TIP3   OH279351   3.992   1.422  12.219 -0.5640 -0.7076  0.1381
19287TIP3    H179352   3.978   1.494  12.281 -0.5149 -0.5019 -0.0847
19287TIP3    H279353   4.086   1.422  12.202 -0.9065  1.6403 -2.7143
19288TIP3   OH279354   2.952   0.195   1.964  0.3266  0.0810 -0.2632
19288TIP3    H179355   3.029   0.152   2.003  1.2879  0.9067 -1.1730
19288TIP3    H279356   2.879   0.137   1.984  1.2385 -0.8829  0.3694
19289TIP3   OH279357   2.453   4.135   4.920  0.4496 -0.0993  0.1227
19289TIP3    H179358   2.425   4.221   4.889 -1.1639 -0.8703 -0.6885
19289TIP3    H279359   2.516   4.106   4.854 -0.6339 -0.4255 -0.7980
19290TIP3   OH279360   4.424   0.936  14.314  0.6366 -0.1037 -0.0111
19290TIP3    H179361   4.368   0.950  14.391  0.7665 -1.4025  0.3469
19290TIP3    H279362   4.394   0.853  14.278  1.7476 -0.3791 -0.3396
19291TIP3   OH279363   2.096   6.299   3.956 -0.0377  0.2191 -0.0613
19291TIP3    H179364   2.171   6.275   3.902  0.9041  0.7880  0.9559
19291TIP3    H279365   2.040   6.221   3.955  1.5326 -0.9732  0.7915
19292TIP3   OH279366   1.011   5.882   0.138  0.4530 -0.1135 -0.1442
19292TIP3    H179367   0.975   5.955   0.189 -1.4372 -0.1051 -1.3706
19292TIP3    H279368   0.959   5.806   0.165 -0.4740 -0.1410 -1.8652
19293TIP3   OH279369   5.606   2.068   3.065 -0.0961 -0.4602  0.3254
19293TIP3    H179370   5.628   1.983   3.026 -1.8465 -0.8095  0.0338
19293TIP3    H279371   5.651   2.132   3.009  0.9223 -1.1499  0.3218
19294TIP3   OH279372   4.669   2.187   0.617  0.4393  0.5551 -0.0951
19294TIP3    H179373   4.706   2.109   0.575 -0.6728  0.5579 -1.1321
19294TIP3    H279374   4.742   2.224   0.667  1.6525  0.2118 -1.5395
19295TIP3   OH279375   0.071   3.943  11.212 -0.5733 -0.2593  0.2717
19295TIP3    H179376   0.025   4.020  11.245  0.4636  0.7494 -0.5453
19295TIP3    H279377   0.088   3.964  11.120 -0.3063 -1.4893  0.0296
19296TIP3   OH279378   0.046   0.670   4.839 -0.1787  0.0667  1.3033
19296TIP3    H179379   0.093   0.679   4.755 -0.4966  0.2710  1.1452
19296TIP3    H279380   0.114   0.679   4.905 -0.4165  4.5753  1.2568
19297TIP3   OH279381   4.532   3.508   1.417  0.3566  0.3421 -0.4225
19297TIP3    H179382   4.504   3.590   1.458  1.7955  1.0510 -0.7704
19297TIP3    H279383   4.512   3.441   1.481 -1.3723  0.8681 -0.3521
19298TIP3   OH279384   1.622   4.736   1.568 -0.1226  0.0235  0.5462
19298TIP3    H179385   1.715   4.758   1.561  0.0793 -1.1622 -1.1174
19298TIP3    H279386   1.577   4.816   1.538  0.4160  0.0957 -0.1075
19299TIP3   OH279387   3.701   2.696   2.991 -0.1522  0.0099  0.4294
19299TIP3    H179388   3.711   2.780   3.035 -2.1627  0.2124  0.5521
19299TIP3    H279389   3.755   2.636   3.042  0.7222  1.0562  0.7701
19300TIP3   OH279390   2.215   3.509   0.136  0.0937  0.0637 -0.1920
19300TIP3    H179391   2.214   3.414   0.134  0.0727  0.0759 -0.8674
19300TIP3    H279392   2.204   3.536   0.045  0.9428  0.6996 -0.1221
19301TIP3   OH279393   1.357   5.537   5.114  0.1840 -0.3150 -0.5176
19301TIP3    H179394   1.290   5.549   5.182  0.2603 -0.8816 -0.3380
19301TIP3    H279395   1.440   5.533   5.162  0.2914 -0.1524 -0.6912
19302TIP3   OH279396   6.645   1.764   2.624 -0.0933  0.1927  0.2735
19302TIP3    H179397   6.633   1.669   2.622 -1.5441  0.3682 -0.7832
19302TIP3    H279398   6.671   1.783   2.715 -0.7378 -1.1008  0.7541
19303TIP3   OH279399   4.880   0.865  11.324 -0.1787 -0.1511  0.0005
19303TIP3    H179400   4.813   0.866  11.392  0.2746 -2.5063  0.5544
19303TIP3    H279401   4.840   0.820  11.250  0.6284 -1.1978  0.1806
19304TIP3   OH279402   0.202   5.759   3.165  0.2168  0.0779 -0.0588
19304TIP3    H179403   0.228   5.685   3.219  0.4787 -1.7310 -2.4551
19304TIP3    H279404   0.279   5.817   3.166  0.8626 -0.7539  0.1652
19305TIP3   OH279405   4.503   0.321   0.209 -0.0512  0.2009  0.0014
19305TIP3    H179406   4.442   0.248   0.201 -0.3599  0.4992 -0.4270
19305TIP3    H279407   4.483   0.360   0.294 -0.8608  0.6497 -0.3822
19306TIP3   OH279408   1.969   5.131   4.420  0.1731  0.4802 -0.0391
19306TIP3    H179409   1.926   5.212   4.391  0.2868  0.5246 -0.0824
19306TIP3    H279410   1.989   5.146   4.512 -0.0770  0.3864  0.0325
19307TIP3   OH279411   5.669   1.353  16.338  0.2860  0.1210  0.2207
19307TIP3    H179412   5.637   1.373  16.250  2.1983 -1.3327 -0.9137
19307TIP3    H279413   5.610   1.285  16.370 -1.6091  2.0121  0.9453
19308TIP3   OH279414   1.204   1.227  16.440  0.3041  0.1427 -0.1248
19308TIP3    H179415   1.149   1.200  16.366  1.6035  0.2641 -1.1698
19308TIP3    H279416   1.143   1.231  16.514 -1.0855  0.2413 -1.2184
19309TIP3   OH279417   1.131   0.919   2.731 -0.2711 -0.2609  0.1926
19309TIP3    H179418   1.109   0.905   2.638  0.4462 -0.4798  0.0486
19309TIP3    H279419   1.222   0.946   2.729 -0.2739 -0.2122  0.8366
19310TIP3   OH279420   6.383   6.443   0.223 -0.5057 -0.0183  0.3859
19310TIP3    H179421   6.436   6.368   0.250 -1.7044 -1.6125 -1.4769
19310TIP3    H279422   6.447   6.509   0.196  0.5675 -1.3044 -0.3170
19311TIP3   OH279423   4.568   5.685   2.790  0.0963  0.4527 -0.1423
19311TIP3    H179424   4.533   5.608   2.746 -2.0237  1.4626 -0.3498
19311TIP3    H279425   4.646   5.709   2.740 -0.1967 -0.5487 -1.1046
19312TIP3   OH279426   2.522   0.373   2.621 -0.0281  0.1093  0.2524
19312TIP3    H179427   2.571   0.361   2.540  0.5605 -2.5042  0.9303
19312TIP3    H279428   2.432   0.350   2.598 -0.1033  0.5476  0.0858
19313TIP3   OH279429   2.974   6.747   1.578  0.1037 -0.7414 -0.3087
19313TIP3    H179430   3.005   6.740   1.668 -0.7420 -0.4482  0.0089
19313TIP3    H279431   3.027   6.683   1.530  0.5403 -0.9232  0.3958
19314TIP3   OH279432   6.260   4.959  13.478 -0.2644  0.0281 -0.0197
19314TIP3    H179433   6.258   5.053  13.457 -0.6279 -0.0774 -0.4661
19314TIP3    H279434   6.168   4.934  13.486 -0.1652 -0.2677  0.2249
19315TIP3   OH279435   1.824   5.121  12.154 -0.0442  0.5096 -0.3942
19315TIP3    H179436   1.740   5.114  12.198  0.6162  0.4737  0.9068
19315TIP3    H279437   1.847   5.214  12.160  0.0622  0.5017 -0.6506
19316TIP3   OH279438   2.868   4.284  10.307 -0.2903  0.1803  0.1646
19316TIP3    H179439   2.815   4.231  10.366 -0.0255 -1.5702 -1.0971
19316TIP3    H279440   2.926   4.221  10.264 -1.0800  1.1957 -2.6043
19317TIP3   OH279441   6.018   5.932  13.960 -0.6264  0.5325 -0.4722
19317TIP3    H179442   6.090   5.911  13.899 -2.2677  0.5517 -2.5300
19317TIP3    H279443   6.062   5.958  14.041  1.6570 -0.6690 -1.2317
19318TIP3   OH279444   2.339   6.261   0.051  0.1173 -0.0571  0.1131
19318TIP3    H179445   2.424   6.270   0.007  0.8861  1.3969  1.7927
19318TIP3    H279446   2.292   6.341   0.028 -0.5958 -0.6064 -0.3626
19319TIP3   OH279447   5.138   2.232   6.112  0.3461  0.1360 -1.0843
19319TIP3    H179448   5.129   2.284   6.191  1.4925  0.6392 -1.2533
19319TIP3    H279449   5.062   2.174   6.111  1.3244 -1.3122  1.4487
19320TIP3   OH279450   6.192   3.086  11.936  0.0299 -0.2578  0.1045
19320TIP3    H179451   6.239   3.003  11.950 -0.2807 -0.3528  0.6082
19320TIP3    H279452   6.123   3.064  11.874  0.6132 -0.1305 -0.5981
19321TIP3   OH279453   0.184   0.675   4.584  0.2088 -0.5078  0.4881
19321TIP3    H179454   0.277   0.694   4.569  0.2762  0.1056  1.5291
19321TIP3    H279455   0.141   0.696   4.501  0.7219  1.3097  0.6365
19322TIP3   OH279456   3.978   5.862  12.019 -0.0327  0.3189  0.1761
19322TIP3    H179457   3.926   5.803  12.072  2.1673 -0.0128  2.1182
19322TIP3    H279458   3.997   5.813  11.939  0.4238 -1.0009  1.0729
19323TIP3   OH279459   2.245   3.231  13.880 -0.0077  0.3077 -0.1976
19323TIP3    H179460   2.210   3.318  13.860 -0.2099 -0.0082 -1.2756
19323TIP3    H279461   2.328   3.248  13.924 -0.3371  1.0485  0.1518
19324TIP3   OH279462   2.009   6.537  12.884  0.3169 -0.3836 -0.1005
19324TIP3    H179463   1.925   6.580  12.901  0.8322  0.1687  1.2053
19324TIP3    H279464   2.018   6.474  12.955  0.1992 -1.7378 -1.2433
19325TIP3   OH279465   5.288   6.723   3.189 -0.4483 -0.1389 -0.1889
19325TIP3    H179466   5.285   6.722   3.285  0.3661  0.7088 -0.1363
19325TIP3    H279467   5.208   6.679   3.162 -2.1087  2.0157  0.8927
19326TIP3   OH279468   0.632   0.634  13.373 -0.2375 -0.3386 -0.3325
19326TIP3    H179469   0.544   0.612  13.405 -2.4841  4.1163 -2.5080
19326TIP3    H279470   0.651   0.718  13.413  1.2813  0.5949 -2.7943
19327TIP3   OH279471   3.081   5.432   0.475 -0.9312  0.1362 -0.1655
19327TIP3    H179472   2.994   5.397   0.455 -0.4166 -0.8835 -0.6737
19327TIP3    H279473   3.133   5.356   0.499  0.0141  0.6467 -0.5546
19328TIP3   OH279474   1.480   6.612   1.733 -0.2626 -0.0169  0.3869
19328TIP3    H179475   1.517   6.634   1.819  0.6728  0.7686 -0.1862
19328TIP3    H279476   1.457   6.697   1.695  1.6929 -0.0798 -1.1346
19329TIP3   OH279477   6.817   5.785   4.866 -0.0253  0.2130 -0.1463
19329TIP3    H179478   6.901   5.788   4.820 -0.1462 -0.3538 -0.4258
19329TIP3    H279479   6.839   5.762   4.956  0.0626 -1.0945 -0.4687
19330TIP3   OH279480   6.243   2.689   3.226 -0.3636 -0.3476  0.2073
19330TIP3    H179481   6.280   2.747   3.292 -1.9569  3.3815 -1.8542
19330TIP3    H279482   6.281   2.719   3.144 -0.4195 -3.0855 -0.9223
19331TIP3   OH279483   2.050   5.678  15.276 -0.5259 -0.4295  0.2846
19331TIP3    H179484   2.094   5.659  15.194 -0.0560  0.4602  0.3249
19331TIP3    H279485   2.061   5.598  15.329 -1.0606 -1.1041 -0.5939
19332TIP3   OH279486   1.888   1.865   3.300 -0.0849  0.2393  0.2117
19332TIP3    H179487   1.891   1.783   3.250 -1.7779  0.8134 -0.9395
19332TIP3    H279488   1.977   1.899   3.296 -0.3133  0.8259 -3.5043
19333TIP3   OH279489   0.185   4.805   2.371 -0.3767 -0.1287 -0.0287
19333TIP3    H179490   0.116   4.863   2.338 -0.9723  0.1012  1.5441
19333TIP3    H279491   0.192   4.825   2.464  1.7238 -0.2650 -0.0961
19334TIP3   OH279492   4.480   3.287  15.219  0.1882 -0.0341 -0.0420
19334TIP3    H179493   4.466   3.271  15.126  0.7292  0.3722 -0.1968
19334TIP3    H279494   4.537   3.364  15.222 -2.8171  2.3411  0.6745
19335TIP3   OH279495   1.246   4.626  14.190 -0.4527 -0.7835  0.4362
19335TIP3    H179496   1.308   4.698  14.206 -0.5237 -0.2551 -1.5094
19335TIP3    H279497   1.194   4.622  14.270  0.6790  0.1869  1.2666
19336TIP3   OH279498   2.746   1.713   5.431 -0.1161  0.3286 -0.0844
19336TIP3    H179499   2.650   1.716   5.434 -0.1272 -0.6975  0.8318
19336TIP3    H279500   2.766   1.696   5.339 -0.8727 -0.8281 -0.0582
19337TIP3   OH279501   0.927   2.992   3.692  0.1594 -0.2075 -0.6496
19337TIP3    H179502   0.915   3.072   3.642 -0.3788 -0.0422 -0.2771
19337TIP3    H279503   1.019   2.968   3.680  0.3518  0.5304 -0.6660
19338TIP3   OH279504   0.972   4.535  11.499  0.6168 -0.7495  0.0850
19338TIP3    H179505   0.976   4.575  11.585  0.6001  0.6711 -0.5451
19338TIP3    H279506   0.896   4.477  11.502 -0.1645  0.2803  0.6190
19339TIP3   OH279507   5.806   1.466   1.088  0.1156 -0.1768 -0.6462
19339TIP3    H179508   5.832   1.558   1.098 -1.9117  0.2830  1.2112
19339TIP3    H279509   5.841   1.440   1.003 -2.0793  3.3641 -2.9113
19340TIP3   OH279510   2.568   1.066  11.608 -0.6248 -0.0200 -0.7403
19340TIP3    H179511   2.644   1.019  11.573  0.2206 -0.1350  1.1395
19340TIP3    H279512   2.515   0.998  11.648 -0.7060  0.3100 -0.2875
19341TIP3   OH279513   2.312   6.225  12.148 -0.1815 -0.0696  0.2779
19341TIP3    H179514   2.339   6.188  12.232 -0.5709  2.5931  1.6803
19341TIP3    H279515   2.372   6.187  12.084  2.9643  1.0241  2.3848
19342TIP3   OH279516   3.262   3.850   1.256  0.3262 -0.7755 -0.2972
19342TIP3    H179517   3.227   3.761   1.254  1.9835 -1.4702 -0.2074
19342TIP3    H279518   3.222   3.894   1.181  0.7501 -2.1104 -1.3380
19343TIP3   OH279519   6.091   1.285  16.433 -0.0871 -0.3875  0.4730
19343TIP3    H179520   6.120   1.337  16.508  0.4894  0.8865 -0.5848
19343TIP3    H279521   6.099   1.345  16.359 -0.7647 -1.5734 -0.5901
19344TIP3   OH279522   5.591   0.431  16.737  0.7456  0.7018 -0.0173
19344TIP3    H179523   5.548   0.346  16.725  0.5295  0.9770 -1.4481
19344TIP3    H279524   5.684   0.410  16.746  0.7822  0.3358 -1.0854
19345TIP3   OH279525   0.304   1.439  16.885  0.1202  0.6361 -0.3010
19345TIP3    H179526   0.291   1.373  16.953 -1.2008  1.1447 -0.0156
19345TIP3    H279527   0.217   1.477  16.872  0.4024  0.7886 -2.0412
19346TIP3   OH279528   2.612   2.685  12.007  0.0614 -0.3107 -0.0864
19346TIP3    H179529   2.561   2.642  11.938  1.6021 -2.0016 -0.2624
19346TIP3    H279530   2.630   2.615  12.070  3.4118 -0.3091 -0.8171
19347TIP3   OH279531   2.700   4.668  16.279  0.2297 -0.8636  0.3274
19347TIP3    H179532   2.673   4.587  16.236  1.1777 -1.7790  1.4044
19347TIP3    H279533   2.722   4.727  16.207 -0.6135 -1.4984 -0.4729
19348TIP3   OH279534   1.225   4.422   3.318  0.4833 -0.3338  0.3490
19348TIP3    H179535   1.130   4.430   3.328  0.5104 -0.4347  0.7044
19348TIP3    H279536   1.261   4.467   3.395  0.7326 -0.0051  0.0464
19349TIP3   OH279537   0.044   3.217  11.073  0.6107 -0.4577  0.2779
19349TIP3    H179538  -0.023   3.226  11.004 -1.0273  0.0332  1.8708
19349TIP3    H279539   0.009   3.150  11.131  0.4217  1.3278  2.3219
19350TIP3   OH279540   2.404   1.709   4.716 -0.5887  0.0384 -0.2870
19350TIP3    H179541   2.467   1.776   4.740 -0.1319  0.1988 -1.8348
19350TIP3    H279542   2.455   1.628   4.714 -0.6484  0.0093 -0.6076
19351TIP3   OH279543   2.133   4.508  14.402 -0.0608  0.5189  0.3781
19351TIP3    H179544   2.221   4.478  14.377 -1.1518 -1.8262 -0.9873
19351TIP3    H279545   2.073   4.452  14.353 -2.3680  1.5067  1.8594
19352TIP3   OH279546   2.069   3.846  12.779  0.0482 -0.3863  0.6178
19352TIP3    H179547   2.078   3.808  12.691  0.0552 -0.6559  0.7359
19352TIP3    H279548   2.094   3.776  12.838  1.0785  0.1265  0.8020
19353TIP3   OH279549   1.555   5.521   1.417 -0.2630  0.4501 -0.4358
19353TIP3    H179550   1.615   5.450   1.442 -2.0387 -1.4714 -1.3351
19353TIP3    H279551   1.505   5.486   1.344 -0.5341  3.0666 -1.6094
19354TIP3   OH279552   4.428   2.365   6.028 -0.0833  0.5156 -0.2198
19354TIP3    H179553   4.465   2.341   5.944 -0.3575 -0.3234 -0.1054
19354TIP3    H279554   4.473   2.309   6.092 -0.3195  0.7059  0.1198
19355TIP3   OH279555   1.850   1.451  12.807  0.4639  0.2027  0.1813
19355TIP3    H179556   1.785   1.381  12.818  0.5093  0.5060  3.4018
19355TIP3    H279557   1.804   1.531  12.833  1.2970  0.8933 -0.4201
19356TIP3   OH279558   1.918   3.823  17.136  0.4291  0.2120  0.1920
19356TIP3    H179559   1.946   3.803  17.225 -1.4489 -2.5787  0.2764
19356TIP3    H279560   1.866   3.903  17.145  0.6326  0.2263  1.5173
19357TIP3   OH279561   0.681   6.285  14.636 -0.6924 -0.2637  0.1797
19357TIP3    H179562   0.627   6.360  14.610 -0.6911  0.4040  1.9693
19357TIP3    H279563   0.619   6.213  14.645 -0.5675 -0.8481 -2.5693
19358TIP3   OH279564   0.189   2.780   3.746  0.1579  0.4070 -0.4765
19358TIP3    H179565   0.274   2.738   3.733 -0.0545 -0.4951  0.8072
19358TIP3    H279566   0.209   2.873   3.757  0.8374  0.3799 -1.4006
19359TIP3   OH279567   0.976   4.184  12.049 -0.3065 -0.4181  0.5169
19359TIP3    H179568   1.045   4.248  12.034 -1.5231  0.8433  0.0438
19359TIP3    H279569   0.917   4.228  12.111 -0.6618 -1.4894  0.9605
19360TIP3   OH279570   6.062   6.663   0.612 -0.3595  0.0343  0.3392
19360TIP3    H179571   6.138   6.617   0.576 -0.1295  1.6813 -1.5012
19360TIP3    H279572   5.997   6.660   0.542 -2.1296 -1.5083  1.9507
19361TIP3   OH279573   2.399   3.263  10.986  0.6624 -0.3951 -0.0625
19361TIP3    H179574   2.437   3.195  11.041 -0.4408  0.0799  1.3525
19361TIP3    H279575   2.321   3.222  10.948  1.3798 -0.6995 -1.2665
19362TIP3   OH279576   4.084   5.363  14.854  0.0168  0.7415  0.1282
19362TIP3    H179577   4.124   5.277  14.865  0.6587  0.9399 -0.6417
19362TIP3    H279578   4.003   5.346  14.806 -0.2217  0.4951  0.6014
19363TIP3   OH279579   0.515   2.299  15.376  0.7186  0.0672  0.6732
19363TIP3    H179580   0.579   2.269  15.312 -1.5661 -2.3551 -0.6669
19363TIP3    H279581   0.430   2.285  15.334 -0.8313 -0.0108  3.5608
19364TIP3   OH279582   5.756   2.228  11.672 -0.7108  0.1049  0.1909
19364TIP3    H179583   5.667   2.255  11.651 -0.6264 -1.1344 -2.0662
19364TIP3    H279584   5.753   2.133  11.672  0.6665  0.0364 -0.3384
19365TIP3   OH279585   5.610   1.580  16.582 -0.3303 -0.2931 -0.4662
19365TIP3    H179586   5.690   1.540  16.547  0.5444  1.6407 -0.8210
19365TIP3    H279587   5.592   1.653  16.522 -2.2003 -0.4914 -0.2000
19366TIP3   OH279588   6.733   6.430   6.031  0.3133 -0.4084  0.4113
19366TIP3    H179589   6.827   6.447   6.030  0.4334 -0.8976  1.6730
19366TIP3    H279590   6.700   6.485   6.102 -0.6225  0.9427 -0.9898
19367TIP3   OH279591   3.754   6.166   3.425  0.0061  0.0934  0.7313
19367TIP3    H179592   3.679   6.225   3.417 -0.5808 -0.6577  0.6071
19367TIP3    H279593   3.779   6.170   3.517 -0.3801  0.1138  0.8366
19368TIP3   OH279594   4.005   3.172  14.054 -0.0689 -0.3953 -0.2894
19368TIP3    H179595   4.018   3.249  14.000 -0.4372  0.4859  0.8439
19368TIP3    H279596   3.936   3.123  14.009  1.0701 -0.7536 -1.7111
19369TIP3   OH279597   3.990   4.600  15.986 -0.6311 -0.3305  0.4135
19369TIP3    H179598   3.981   4.586  16.080  1.0283  0.4344  0.7312
19369TIP3    H279599   3.944   4.527  15.946 -0.0124 -1.5681  1.8519
19370TIP3   OH279600   5.403   1.480   4.079  0.9764 -0.5212  0.1997
19370TIP3    H179601   5.307   1.484   4.080  0.9643 -0.1567  2.4674
19370TIP3    H279602   5.423   1.400   4.030 -0.4609 -0.5494 -0.4042
19371TIP3   OH279603   0.429   0.370  16.982 -0.6444 -0.6407  0.2973
19371TIP3    H179604   0.374   0.438  16.943 -0.5254 -0.2187  0.8526
19371TIP3    H279605   0.464   0.410  17.061  3.5884  0.5877 -1.8451
19372TIP3   OH279606   3.662   6.506  13.506  0.4551 -0.3959  0.6400
19372TIP3    H179607   3.616   6.576  13.461 -1.1855 -0.3586  2.2276
19372TIP3    H279608   3.697   6.451  13.436  0.4221  1.1302 -0.6290
19373TIP3   OH279609   1.597   4.058   4.801  0.2005 -0.1624 -0.4032
19373TIP3    H179610   1.666   4.081   4.739  1.4056 -0.2293  0.8602
19373TIP3    H279611   1.581   3.965   4.785 -0.0941  0.0161 -1.1686
19374TIP3   OH279612   0.304   5.358  16.859 -0.6832 -0.2061  0.6156
19374TIP3    H179613   0.373   5.400  16.911  0.5034 -1.3318 -0.0047
19374TIP3    H279614   0.321   5.264  16.867 -0.2361 -0.4433 -2.0258
19375TIP3   OH279615   3.084   5.333  15.292  0.3879  0.8499  0.2606
19375TIP3    H179616   3.129   5.249  15.278  0.9212  1.3903 -1.6218
19375TIP3    H279617   2.994   5.315  15.264  0.7484  1.1371 -1.1749
19376TIP3   OH279618   1.522   4.201  17.309 -0.4540 -0.3946 -0.1498
19376TIP3    H179619   1.427   4.208  17.299 -0.9061 -1.1871  2.6681
19376TIP3    H279620   1.548   4.286  17.345 -0.2359 -0.5137 -0.0286
19377TIP3   OH279621   0.220   5.900   1.427 -0.2248 -0.7163 -0.3313
19377TIP3    H179622   0.167   5.890   1.348 -0.1672  1.4494 -0.7272
19377TIP3    H279623   0.298   5.947   1.397  0.8047 -1.7463  0.6697
19378TIP3   OH279624   3.642   2.326   3.426  0.3962 -0.0846  0.2008
19378TIP3    H179625   3.735   2.314   3.446  1.4011  1.2736 -2.9168
19378TIP3    H279626   3.611   2.238   3.404  0.6266 -0.6973  2.1247
19379TIP3   OH279627   5.058   1.356   5.878 -0.3584  0.7478 -1.0260
19379TIP3    H179628   5.030   1.293   5.812  0.6134 -0.3674 -0.3965
19379TIP3    H279629   4.977   1.383   5.922 -0.7864  0.0264 -1.3602
19380TIP3   OH279630   2.979   3.515   3.491 -0.3369  0.1119 -0.2097
19380TIP3    H179631   3.029   3.465   3.555 -2.0073 -1.9258 -0.3726
19380TIP3    H279632   2.985   3.463   3.410 -0.8305  1.0128 -0.8389
19381TIP3   OH279633   3.905   4.120   3.296  0.1034 -0.2085  0.1376
19381TIP3    H179634   3.996   4.148   3.285 -0.4661  1.9455  0.3542
19381TIP3    H279635   3.854   4.196   3.270 -1.6962 -1.6979 -0.9266
19382TIP3   OH279636   3.411   4.624  16.609 -0.5310  0.3553 -0.2112
19382TIP3    H179637   3.429   4.717  16.595  2.1763  0.0896  0.8455
19382TIP3    H279638   3.450   4.580  16.533 -0.8294  0.0120 -0.1670
19383TIP3   OH279639   4.577   5.083   5.196  0.9246 -0.2681 -0.1652
19383TIP3    H179640   4.564   4.993   5.166  0.2070 -0.5291  0.8992
19383TIP3    H279641   4.653   5.078   5.254  0.7845 -0.2065  0.0206
19384TIP3   OH279642   3.958   5.131   5.025  0.2249 -0.0301  0.1198
19384TIP3    H179643   3.924   5.045   5.000  1.3281 -0.9640  1.6879
19384TIP3    H279644   3.883   5.177   5.064  0.2859 -1.4419  2.0371
19385TIP3   OH279645   6.388   5.542   2.900  1.3157  0.0455 -0.5810
19385TIP3    H179646   6.365   5.570   2.989  0.4099 -2.3942  0.0328
19385TIP3    H279647   6.480   5.566   2.890  1.4138  0.4448  0.9989
19386TIP3   OH279648   2.216   3.254  14.541 -0.4143 -0.1231 -0.2774
19386TIP3    H179649   2.262   3.324  14.495  0.7495 -0.5864  0.1566
19386TIP3    H279650   2.210   3.284  14.631  0.7380 -0.8734  0.0676
19387TIP3   OH279651   0.283   3.906  12.157 -0.2258 -0.3074  0.7697
19387TIP3    H179652   0.312   3.871  12.241 -0.7725 -0.3651  0.9350
19387TIP3    H279653   0.329   3.989  12.148  0.3215 -0.6005  0.8299
19388TIP3   OH279654   6.472   3.954  16.885  0.1648  0.8278  0.3247
19388TIP3    H179655   6.566   3.948  16.906 -0.1326  0.7997  1.7448
19388TIP3    H279656   6.452   4.047  16.893  0.1282  0.8787 -0.3038
19389TIP3   OH279657   4.361   1.028   6.010 -0.7818  0.1510  0.0530
19389TIP3    H179658   4.432   1.030   5.946 -1.0015  0.9824 -0.1804
19389TIP3    H279659   4.328   0.938   6.007  0.6836 -0.4309  0.6525
19390TIP3   OH279660   6.792   2.936  11.829  0.5077 -0.3243  0.0875
19390TIP3    H179661   6.782   2.972  11.740 -0.4897 -0.6352  0.0592
19390TIP3    H279662   6.763   3.007  11.886 -0.1185 -0.5724  0.0928
19391TIP3   OH279663   2.701   5.725  11.155  0.4936  0.0247 -0.1209
19391TIP3    H179664   2.726   5.805  11.200  2.0975 -0.1256 -0.7026
19391TIP3    H279665   2.770   5.710  11.090  0.1957 -1.7759 -0.0809
19392TIP3   OH279666   6.460   1.338   2.374  0.6664 -0.2743 -0.0720
19392TIP3    H179667   6.415   1.325   2.290 -0.4503 -3.0986  0.8575
19392TIP3    H279668   6.530   1.272   2.374  1.6113  0.6901  0.6544
19393TIP3   OH279669   1.631   4.681  15.362  0.2111 -0.0759  0.7659
19393TIP3    H179670   1.654   4.689  15.270 -0.2382 -1.6481  0.4941
19393TIP3    H279671   1.612   4.770  15.390  0.0704  0.3809 -0.7226
19394TIP3   OH279672   0.140   4.610  15.179 -0.3392  0.1851  0.3816
19394TIP3    H179673   0.061   4.568  15.214 -0.3738 -0.9142 -0.9198
19394TIP3    H279674   0.133   4.599  15.084  2.6407 -2.4389  0.2956
19395TIP3   OH279675   3.340   5.709   5.189 -0.7899  0.8245 -0.2182
19395TIP3    H179676   3.319   5.802   5.194  1.1662  1.3052 -0.0283
19395TIP3    H279677   3.319   5.675   5.276  1.3842  1.8200  0.7752
19396TIP3   OH279678   1.321   6.033   1.025  0.2432  0.1869  0.0363
19396TIP3    H179679   1.261   6.098   0.988 -2.1783 -1.5348  0.7021
19396TIP3    H279680   1.270   5.952   1.026  2.6547 -1.4060  0.5922
19397TIP3   OH279681   4.975   5.989   1.671 -0.3724 -0.5118  0.2580
19397TIP3    H179682   5.034   5.921   1.638 -3.7614 -2.6319 -2.0525
19397TIP3    H279683   4.932   5.948   1.746  0.0469  0.5169  1.0945
19398TIP3   OH279684   3.730   4.548  14.760 -1.0851 -0.4484 -0.0382
19398TIP3    H179685   3.766   4.469  14.800 -0.8148 -1.3719 -2.0257
19398TIP3    H279686   3.791   4.570  14.691 -0.2105  2.5774  1.5337
19399TIP3   OH279687   6.719   3.337   4.097  0.3322  0.1322 -0.6558
19399TIP3    H179688   6.797   3.346   4.153 -1.0541  0.7493  1.2697
19399TIP3    H279689   6.653   3.298   4.154 -1.2708  1.1327 -1.7454
19400TIP3   OH279690   3.050   5.538  15.634 -0.2809 -0.3561 -0.4678
19400TIP3    H179691   3.092   5.494  15.560 -1.3219 -1.0234 -0.6858
19400TIP3    H279692   3.078   5.489  15.711 -0.7612 -0.8987 -0.6274
19401TIP3   OH279693   4.648   6.345  15.985  0.4786 -0.3896 -0.0693
19401TIP3    H179694   4.594   6.423  15.975  0.9447 -0.2637 -2.1466
19401TIP3    H279695   4.595   6.274  15.950  0.5714 -0.7689  0.5527
19402TIP3   OH279696   5.109   4.341  12.328  0.2622 -0.0817  0.2289
19402TIP3    H179697   5.071   4.428  12.338 -1.2742 -0.7858  0.8965
19402TIP3    H279698   5.069   4.306  12.248  1.9765  0.3312 -0.8549
19403TIP3   OH279699   1.418   0.424   5.102  0.0905  0.7654 -0.0590
19403TIP3    H179700   1.349   0.447   5.164  0.7601  0.8344  0.6747
19403TIP3    H279701   1.436   0.506   5.055  0.8155  1.1720  0.8984
19404TIP3   OH279702   0.761   4.433  10.558 -0.2147  1.1743 -0.5369
19404TIP3    H179703   0.812   4.441  10.478 -1.3762 -0.2527 -1.4617
19404TIP3    H279704   0.679   4.393  10.530 -0.6828  0.7354  1.3488
19405TIP3   OH279705   6.403   4.476  15.271 -0.2682  0.2760 -0.4658
19405TIP3    H179706   6.431   4.427  15.194  1.1398  1.7146 -0.9552
19405TIP3    H279707   6.395   4.567  15.240  0.2422  0.8787  1.0428
19406TIP3   OH279708   5.643   1.181   0.046 -0.1135 -0.2168 -0.2703
19406TIP3    H179709   5.702   1.194   0.119 -1.4717 -0.9948  1.0198
19406TIP3    H279710   5.676   1.240  -0.023  2.0198 -0.5172  0.4309
19407TIP3   OH279711   4.148   5.841   4.068 -0.2574 -0.1948 -1.0021
19407TIP3    H179712   4.238   5.868   4.050 -0.1029 -0.3084 -0.4182
19407TIP3    H279713   4.152   5.801   4.155 -1.0535  0.6489 -0.5627
19408TIP3   OH279714   0.747   3.678   0.297  0.3372  0.4682 -0.3391
19408TIP3    H179715   0.792   3.597   0.322 -3.0347 -0.8073  2.4316
19408TIP3    H279716   0.807   3.748   0.321  1.1410 -1.1233  2.7954
19409TIP3   OH279717   5.491   6.505   1.955  0.0343  0.0415 -0.1191
19409TIP3    H179718   5.435   6.512   2.032 -0.0701 -2.2434  0.0929
19409TIP3    H279719   5.479   6.588   1.908 -2.4998  0.1601  0.6119
19410TIP3   OH279720   4.651   0.323  13.615  0.7638  0.5301  0.0230
19410TIP3    H179721   4.622   0.345  13.703  2.2107 -1.0361  0.9557
19410TIP3    H279722   4.676   0.231  13.621 -1.8632 -0.5450 -2.7694
19411TIP3   OH279723   1.683   0.692   3.039  0.2105 -0.0517 -0.4752
19411TIP3    H179724   1.688   0.775   2.991 -1.5881  0.2636 -0.1842
19411TIP3    H279725   1.674   0.626   2.970  0.1736  0.1493 -0.6671
19412TIP3   OH279726   3.691   3.519  16.475  0.2605  0.3987 -0.1406
19412TIP3    H179727   3.769   3.532  16.420  0.9364  0.1884  0.7379
19412TIP3    H279728   3.635   3.594  16.456 -0.5071 -0.6929 -2.6791
19413TIP3   OH279729   1.867   3.103  11.156  0.1029  0.1502  0.5325
19413TIP3    H179730   1.918   3.131  11.081  1.5688  1.3369  1.8862
19413TIP3    H279731   1.870   3.178  11.216 -0.3812 -1.0073  2.0724
19414TIP3   OH279732   6.524   1.754   4.467 -0.5144  0.5142 -0.1833
19414TIP3    H179733   6.462   1.808   4.418 -0.9479  2.0420  1.9139
19414TIP3    H279734   6.468   1.695   4.518 -0.2613  1.3431  1.0932
19415TIP3   OH279735   5.718   0.751  13.178 -0.4061  0.6190  0.3373
19415TIP3    H179736   5.686   0.662  13.194 -0.7200  0.3354 -1.6489
19415TIP3    H279737   5.729   0.788  13.266  3.3153 -2.5520  1.5008
19416TIP3   OH279738   3.510   0.440  10.888  0.2472  0.1536  0.0715
19416TIP3    H179739   3.588   0.413  10.937  0.2111 -0.7665 -0.3453
19416TIP3    H279740   3.510   0.383  10.811 -0.6210  0.4252 -0.1399
19417TIP3   OH279741   4.986   1.930   2.452 -0.2995  0.3103  0.1756
19417TIP3    H179742   5.028   1.965   2.531  1.3987 -1.6180  0.2040
19417TIP3    H279743   4.933   1.857   2.485 -1.7884  1.1908 -0.1808
19418TIP3   OH279744   0.150   4.866   3.062  0.2876 -0.6138 -0.0035
19418TIP3    H179745   0.239   4.834   3.049  0.3064 -0.0649 -1.3990
19418TIP3    H279746   0.157   4.961   3.056 -0.3668 -0.5616 -0.0394
19419TIP3   OH279747   0.000   6.249  15.503  0.1913  0.0844  0.5924
19419TIP3    H179748   0.085   6.280  15.473 -0.1938  1.5455  0.9205
19419TIP3    H279749   0.015   6.158  15.527  1.3443 -0.0641 -0.5863
19420TIP3   OH279750   5.830   5.638  16.191  0.3171  0.5589  0.1585
19420TIP3    H179751   5.872   5.661  16.274 -1.2662  0.7717  0.9411
19420TIP3    H279752   5.811   5.544  16.200 -0.1699  0.6583  0.1954
19421TIP3   OH279753   2.933   2.823  12.943  0.0096  0.2917 -0.5754
19421TIP3    H179754   2.946   2.774  13.025  0.6927 -0.7701 -1.3043
19421TIP3    H279755   2.839   2.843  12.943  0.4262  2.8474  1.8390
19422TIP3   OH279756   3.635   5.588  13.861 -0.6453  0.6679  0.1992
19422TIP3    H179757   3.652   5.633  13.778 -2.8228  1.0367 -0.1091
19422TIP3    H279758   3.676   5.643  13.928 -0.6060  1.4618 -0.4663
19423TIP3   OH279759   1.638   6.603   0.788  0.1842  0.6016  0.4660
19423TIP3    H179760   1.558   6.569   0.748  1.2120 -0.5584 -0.6588
19423TIP3    H279761   1.656   6.544   0.861  1.7711 -1.2193 -1.2718
19424TIP3   OH279762   5.707   5.504   3.009 -0.0947  0.5598  0.0782
19424TIP3    H179763   5.769   5.566   3.048  0.9189  0.0756 -0.7090
19424TIP3    H279764   5.645   5.486   3.079  1.1889  0.3520  1.2154
19425TIP3   OH279765   6.778   6.427  16.742  0.0046  0.1196 -0.0138
19425TIP3    H179766   6.823   6.480  16.675 -0.0394 -0.9625 -0.9234
19425TIP3    H279767   6.844   6.414  16.810  0.6418 -0.3106 -0.7077
19426TIP3   OH279768   1.640   6.680  10.516 -0.1741 -0.0873  0.6211
19426TIP3    H179769   1.552   6.714  10.497  0.4282  2.1145  1.4228
19426TIP3    H279770   1.698   6.727  10.456  0.5442 -0.8788  0.6860
19427TIP3   OH279771   6.666   4.542   4.650  0.1879  0.0911 -0.3319
19427TIP3    H179772   6.666   4.629   4.610  0.6620 -0.7341 -2.2212
19427TIP3    H279773   6.582   4.537   4.697  0.3810  1.7319  0.2571
19428TIP3   OH279774   3.414   4.690  16.170  0.2006  0.5232  0.1379
19428TIP3    H179775   3.477   4.644  16.115  1.2300  3.2153 -1.1255
19428TIP3    H279776   3.338   4.702  16.113 -0.1817  0.1400  0.5625
19429TIP3   OH279777   4.922   1.418  12.357 -0.3641 -0.4605 -0.1802
19429TIP3    H179778   4.861   1.491  12.370  1.0442  1.2976 -2.6165
19429TIP3    H279779   4.881   1.344  12.402 -2.6736  1.4012  1.0057
19430TIP3   OH279780   3.582   3.385  11.881 -0.0350  0.4257  0.0154
19430TIP3    H179781   3.494   3.416  11.861 -0.3093 -1.2569 -1.7090
19430TIP3    H279782   3.571   3.291  11.897  1.0725  0.6614  2.7355
19431TIP3   OH279783   4.563   4.110   4.794  0.0973  0.3806 -0.1239
19431TIP3    H179784   4.607   4.146   4.717 -0.6668 -0.4602 -0.9726
19431TIP3    H279785   4.570   4.179   4.860  1.4717  0.7953 -0.6706
19432TIP3   OH279786   1.332   1.305  12.393 -0.6317  0.2432 -0.6932
19432TIP3    H179787   1.411   1.251  12.403  0.6474  1.7888 -1.9189
19432TIP3    H279788   1.272   1.250  12.342 -0.8809 -1.4078  1.2611
19433TIP3   OH279789   6.219   0.575  10.854 -0.7442  0.3254 -0.7428
19433TIP3    H179790   6.298   0.530  10.882 -1.5439 -0.2798  0.6377
19433TIP3    H279791   6.250   0.642  10.793  1.0224  1.1201  0.9256
19434TIP3   OH279792   0.420   4.177  12.324 -0.0108 -0.0219  0.2575
19434TIP3    H179793   0.438   4.162  12.417 -1.2210 -3.2403  0.0755
19434TIP3    H279794   0.497   4.142  12.279  0.4626  1.3127 -0.0359
19435TIP3   OH279795   3.564   5.031   4.820  0.0176 -0.3189  0.4079
19435TIP3    H179796   3.601   4.995   4.901 -0.9125  0.0254  1.0018
19435TIP3    H279797   3.607   4.982   4.750 -0.1655 -1.5629  1.1513
19436TIP3   OH279798   6.078   1.006  14.303  0.3158  0.0098  0.0626
19436TIP3    H179799   6.123   1.081  14.342  0.0719  0.9420 -1.3564
19436TIP3    H279800   6.076   1.026  14.209 -1.1313 -1.0374 -0.1637
19437TIP3   OH279801   0.458   4.656  13.226 -0.3642  0.0573 -0.4912
19437TIP3    H179802   0.485   4.664  13.135 -1.0570  1.2670 -0.6127
19437TIP3    H279803   0.385   4.594  13.225  0.3433 -0.7913 -0.5886
19438TIP3   OH279804   4.966   2.851  16.489 -0.7296  0.0376 -0.1577
19438TIP3    H179805   4.993   2.930  16.442  0.1757 -0.1437  0.0281
19438TIP3    H279806   5.047   2.800  16.496 -0.8811 -0.0215  1.4230
19439TIP3   OH279807   4.534   0.825  14.692  0.7463  0.7059  0.1499
19439TIP3    H179808   4.439   0.832  14.690  0.4753 -1.9423 -0.8681
19439TIP3    H279809   4.564   0.902  14.740 -1.9677  1.0276  1.4802
19440TIP3   OH279810   2.042   3.866  11.029 -0.2948  0.4416 -0.1981
19440TIP3    H179811   2.127   3.831  11.004  0.7113  1.1544  2.0049
19440TIP3    H279812   1.991   3.864  10.948  1.5744 -0.6275 -1.4302
19441TIP3   OH279813   6.018   4.037  15.696  0.0226  1.0264 -0.1198
19441TIP3    H179814   6.047   3.998  15.778 -0.0165  0.4629 -0.3681
19441TIP3    H279815   6.052   4.126  15.698 -0.5693  1.2491  0.8252
19442TIP3   OH279816   0.274   1.113   2.607 -0.0206  0.1281 -0.8526
19442TIP3    H179817   0.341   1.110   2.676 -0.4987 -2.5925 -0.4048
19442TIP3    H279818   0.293   1.038   2.551 -1.3793  0.6044 -2.0074
19443TIP3   OH279819   3.628   2.206   5.605  0.2260 -0.1629  0.3261
19443TIP3    H179820   3.714   2.167   5.596  0.5525  0.4691  0.6095
19443TIP3    H279821   3.567   2.139   5.574  0.8891 -0.1897 -0.9414
19444TIP3   OH279822   3.061   6.336   1.616 -0.0202 -0.1015 -0.4650
19444TIP3    H179823   3.041   6.242   1.618  0.9981 -0.3453  2.0560
19444TIP3    H279824   3.069   6.360   1.708  1.0381  2.1971 -1.0995
19445TIP3   OH279825   3.634   2.234  15.565 -1.4321  0.4068 -0.0778
19445TIP3    H179826   3.714   2.284  15.575 -1.5550  0.6060 -0.0809
19445TIP3    H279827   3.630   2.178  15.643 -1.9034  1.2673  0.5289
19446TIP3   OH279828   0.087   6.588   6.793 -0.6141 -0.1988  0.5004
19446TIP3    H179829   0.033   6.514   6.821  0.1511  0.3940  3.9894
19446TIP3    H279830   0.052   6.663   6.842  1.7397  0.6984  0.9393
19447TIP3   OH279831   1.068   1.189  11.179  0.4412 -0.2703  0.0729
19447TIP3    H179832   1.099   1.222  11.263 -0.7306  1.3693 -0.1008
19447TIP3    H279833   0.975   1.209  11.178 -0.2065 -2.8991 -0.4266
19448TIP3   OH279834   2.953   4.505   0.806 -0.4457  0.2383  0.2302
19448TIP3    H179835   2.951   4.488   0.711  1.5194  1.2146 -0.0566
19448TIP3    H279836   2.931   4.598   0.814  0.0923  0.3386  0.6410
19449TIP3   OH279837   5.733   4.594   2.976 -0.5182  0.5758  0.4825
19449TIP3    H179838   5.793   4.665   2.954  0.9385 -0.4397  1.0584
19449TIP3    H279839   5.737   4.534   2.902  1.6804 -1.0610  1.7759
19450TIP3   OH279840   6.769   0.642  10.700 -0.3987 -0.7646 -0.5463
19450TIP3    H179841   6.731   0.693  10.771  0.7958 -0.7056  0.0702
19450TIP3    H279842   6.845   0.598  10.739  0.2989 -0.7073 -1.7868
19451TIP3   OH279843   6.061   5.135  11.949  0.3178  0.1691  0.3078
19451TIP3    H179844   5.968   5.150  11.966 -0.1017 -1.7079 -0.0633
19451TIP3    H279845   6.077   5.170  11.862 -0.1169  0.2129  0.2469
19452TIP3   OH279846   2.766   2.498  13.780 -0.5042  0.2157 -0.1827
19452TIP3    H179847   2.808   2.433  13.724 -0.7923  0.5381 -0.7776
19452TIP3    H279848   2.693   2.451  13.820  0.5063 -0.4095  1.0229
19453TIP3   OH279849   3.856   0.541  15.364 -0.2107 -0.1731 -0.5546
19453TIP3    H179850   3.902   0.614  15.324  0.4825 -0.3999 -0.1778
19453TIP3    H279851   3.845   0.566  15.456 -1.5183  0.2071 -0.7830
19454TIP3   OH279852   6.594   5.929  11.861  0.1804  0.0323 -0.2236
19454TIP3    H179853   6.503   5.902  11.873  0.7478 -1.8383  0.1530
19454TIP3    H279854   6.639   5.850  11.833  1.6173  1.0532 -0.9189
19455TIP3   OH279855   4.262   5.532   3.144 -0.0903  0.6393  0.5136
19455TIP3    H179856   4.316   5.481   3.084 -1.9622 -1.3780  0.4132
19455TIP3    H279857   4.173   5.500   3.129 -0.8720  1.4023  3.0330
19456TIP3   OH279858   3.553   3.769   5.091 -0.3090  0.9132 -0.3869
19456TIP3    H179859   3.508   3.816   5.161 -1.2380  1.2877 -1.2155
19456TIP3    H279860   3.592   3.837   5.036  3.7702  0.6499  1.7533
19457TIP3   OH279861   6.141   0.029   5.348  0.0551  0.4622 -0.7445
19457TIP3    H179862   6.076   0.077   5.297  0.2556  1.3924 -0.1539
19457TIP3    H279863   6.089  -0.029   5.404 -0.3202  1.7610  0.2812
19458TIP3   OH279864   0.067   4.992  11.877 -0.1685 -1.1689 -0.2696
19458TIP3    H179865   0.111   5.058  11.824  1.0655 -0.6288  1.3357
19458TIP3    H279866  -0.021   4.985  11.839 -0.3310  1.3668 -0.5462
19459TIP3   OH279867   2.685   0.189   0.035 -0.2951  0.3307  0.8964
19459TIP3    H179868   2.705   0.159   0.124 -0.5417 -1.1442  0.4838
19459TIP3    H279869   2.616   0.254   0.046 -0.2821  0.1986  1.7913
19460TIP3   OH279870   6.499   0.538  11.726 -0.0013 -0.1091  0.3247
19460TIP3    H179871   6.503   0.622  11.680  0.2605  0.2962  1.0793
19460TIP3    H279872   6.467   0.476  11.660 -2.5044  1.0255  0.3475
19461TIP3   OH279873   5.738   4.437   1.349  0.1907  0.2500  0.3565
19461TIP3    H179874   5.700   4.372   1.408  0.9969 -0.1551  0.4451
19461TIP3    H279875   5.755   4.390   1.268  0.2478  0.4963  0.2226
19462TIP3   OH279876   2.362   0.118   2.601 -0.0034  0.3426 -0.5477
19462TIP3    H179877   2.379   0.024   2.594  2.1124  0.6340 -0.2194
19462TIP3    H279878   2.344   0.146   2.511  0.4172 -0.2153 -0.8097
19463TIP3   OH279879   2.095   0.807  15.096 -0.1938  0.3500 -0.1970
19463TIP3    H179880   2.143   0.888  15.082 -0.5385  0.1651 -3.1142
19463TIP3    H279881   2.154   0.752  15.147  1.3185  1.3289 -0.8363
19464TIP3   OH279882   1.243   1.473  16.323  0.5159  0.4456 -0.5369
19464TIP3    H179883   1.226   1.412  16.394 -1.8635  0.1249 -1.2759
19464TIP3    H279884   1.242   1.418  16.244 -0.2988  1.2257 -1.0891
19465TIP3   OH279885   1.948   3.485   2.388  0.3403 -0.9726 -0.3400
19465TIP3    H179886   1.919   3.458   2.300 -1.5100  0.4647 -0.2383
19465TIP3    H279887   1.874   3.463   2.445  0.3581  0.6431  0.3584
19466TIP3   OH279888   4.144   5.094   3.229  0.1423  0.1058 -0.1360
19466TIP3    H179889   4.113   5.032   3.162  2.2190  0.1188 -1.1858
19466TIP3    H279890   4.090   5.172   3.216 -0.2467 -0.2983 -1.0454
19467TIP3   OH279891   2.839   5.577   1.786  0.2808 -0.3084 -0.6057
19467TIP3    H179892   2.751   5.574   1.823 -0.1729  1.4545 -1.4376
19467TIP3    H279893   2.857   5.486   1.760 -2.9897 -0.2289 -4.1348
19468TIP3   OH279894   3.537   6.250  11.259 -0.1995 -0.1843 -0.2258
19468TIP3    H179895   3.587   6.329  11.280 -1.8646  0.0908  3.5943
19468TIP3    H279896   3.545   6.196  11.338 -3.2469 -1.4755 -0.6631
19469TIP3   OH279897   6.670   3.776   3.537 -0.2709  0.2269 -0.5146
19469TIP3    H179898   6.758   3.739   3.531 -0.7105 -0.7016 -1.6393
19469TIP3    H279899   6.660   3.827   3.457 -1.0252 -0.3326 -0.7936
19470TIP3   OH279900   5.965   2.929  16.125 -0.0620  0.6754  0.0607
19470TIP3    H179901   6.037   2.867  16.133 -0.1770  0.5084 -0.2092
19470TIP3    H279902   5.959   2.969  16.212 -1.1078 -0.9436  0.7959
19471TIP3   OH279903   6.600   3.659   5.188 -0.1556  0.5179  0.1156
19471TIP3    H179904   6.674   3.665   5.128  1.1177  0.6469  1.6201
19471TIP3    H279905   6.598   3.745   5.231  0.3922 -0.2661  1.7961
19472TIP3   OH279906   4.756   4.296   5.640  0.5037 -0.9240 -0.4299
19472TIP3    H179907   4.748   4.238   5.564 -0.1860 -1.1944 -0.1632
19472TIP3    H279908   4.666   4.306   5.672  0.9129 -2.0194  1.2288
19473TIP3   OH279909   5.100   4.578   5.331 -0.4374 -0.4349  0.2810
19473TIP3    H179910   5.030   4.601   5.269 -1.7615 -0.8158  1.5864
19473TIP3    H279911   5.054   4.542   5.407  1.1106  0.3252  1.6456
19474TIP3   OH279912   4.564   0.462   2.597  0.4929  0.3629  0.1642
19474TIP3    H179913   4.561   0.501   2.510 -0.2564 -0.2148 -0.0767
19474TIP3    H279914   4.552   0.368   2.582  0.6843  0.2167  0.8639
19475TIP3   OH279915   1.874   1.156   1.442  0.0942 -0.2830 -0.1358
19475TIP3    H179916   1.830   1.089   1.494  0.3080  0.5730  1.2027
19475TIP3    H279917   1.804   1.197   1.391 -0.2081 -0.7681 -0.1169
19476TIP3   OH279918   5.511   2.929   3.704 -0.4816  0.1583 -0.3618
19476TIP3    H179919   5.583   2.984   3.735  0.1016 -0.7397 -0.0956
19476TIP3    H279920   5.537   2.902   3.616 -0.6883  0.1813 -0.4303
19477TIP3   OH279921   0.418   5.005  17.098 -0.0022 -0.3041  0.3660
19477TIP3    H179922   0.335   4.961  17.114 -0.5923  0.6197 -0.0697
19477TIP3    H279923   0.411   5.041  17.010 -0.0684  1.7414  1.1581
19478TIP3   OH279924   1.336   2.240   2.070 -0.1392 -0.1786  0.1868
19478TIP3    H179925   1.307   2.330   2.082  0.3130  0.1654 -1.1848
19478TIP3    H279926   1.419   2.247   2.024  0.2389 -1.2829  0.6575
19479TIP3   OH279927   6.164   1.458   4.463 -0.4151  0.4771 -0.5483
19479TIP3    H179928   6.162   1.467   4.368  0.2871 -1.3362 -0.7650
19479TIP3    H279929   6.256   1.452   4.485 -0.5287  1.7280  0.3724
19480TIP3   OH279930   2.014   5.395  15.126 -0.0824  0.9006  0.7604
19480TIP3    H179931   2.061   5.464  15.079  2.0372 -0.4013  0.8634
19480TIP3    H279932   2.012   5.425  15.217  2.2111  0.1878  1.0964
19481TIP3   OH279933   6.504   1.146   1.740  0.3085 -0.3010 -0.3074
19481TIP3    H179934   6.415   1.176   1.722  0.2844 -0.3137 -0.2068
19481TIP3    H279935   6.557   1.226   1.739  0.4590 -0.4000 -1.3770
19482TIP3   OH279936   5.113   1.341  11.525 -0.2774 -0.0683  0.0594
19482TIP3    H179937   5.185   1.296  11.482 -1.7912 -2.2243 -0.3818
19482TIP3    H279938   5.130   1.331  11.619  0.0432 -0.4606 -0.0436
19483TIP3   OH279939   0.397   1.008   5.115 -0.0084  0.5832  0.0602
19483TIP3    H179940   0.356   1.090   5.142 -1.9686 -0.7770  1.4191
19483TIP3    H279941   0.336   0.939   5.141  1.4638 -1.3449 -1.2058
19484TIP3   OH279942   4.526   3.591  16.894 -0.2436 -0.3206  0.0389
19484TIP3    H179943   4.611   3.566  16.930 -1.0108 -3.2173  0.1118
19484TIP3    H279944   4.503   3.520  16.834 -2.4499  0.5475 -0.2547
19485TIP3   OH279945   2.017   2.932  16.089  0.2255  0.1699 -0.1923
19485TIP3    H179946   2.044   2.948  16.179 -1.0983 -0.2874  0.3172
19485TIP3    H279947   2.078   2.866  16.057 -0.8383 -1.6566  1.2805
19486TIP3   OH279948   6.333   5.023  14.970 -0.9600 -0.3182 -0.3635
19486TIP3    H179949   6.394   5.069  14.912  0.6500  0.1194  1.5706
19486TIP3    H279950   6.328   4.935  14.933  2.9697 -1.2148  0.7343
19487TIP3   OH279951   6.220   0.606  12.601 -0.0384 -0.0511  0.1634
19487TIP3    H179952   6.280   0.680  12.608 -0.3396  0.1812  0.2794
19487TIP3    H279953   6.199   0.602  12.507  0.4436 -0.3608  0.0646
19488TIP3   OH279954   5.545   4.487  15.582 -0.4927  0.0871  0.0868
19488TIP3    H179955   5.575   4.437  15.507  1.8620  0.9739  0.3609
19488TIP3    H279956   5.492   4.426  15.633 -1.0711 -0.8845 -1.6209
19489TIP3   OH279957   1.007   6.681   0.556  0.1097 -0.2197 -0.1036
19489TIP3    H179958   0.935   6.710   0.500 -0.2638 -1.3202 -0.2038
19489TIP3    H279959   0.979   6.597   0.592  2.3508 -2.0170 -2.1745
19490TIP3   OH279960   3.089   3.456  13.809  0.0965  0.1081 -0.1516
19490TIP3    H179961   3.010   3.408  13.836  0.2239 -0.5197 -0.8448
19490TIP3    H279962   3.056   3.541  13.780 -0.3043 -0.0674 -0.2285
19491TIP3   OH279963   3.141   3.608  11.277 -0.5831  0.1937  0.3079
19491TIP3    H179964   3.170   3.531  11.229 -1.2207 -0.2593  0.6368
19491TIP3    H279965   3.061   3.635  11.232  0.3176  1.4661 -0.6271
19492TIP3   OH279966   1.255   2.016  16.709  0.0010  0.0484 -0.5269
19492TIP3    H179967   1.295   1.936  16.745 -0.4173 -0.5853 -1.4242
19492TIP3    H279968   1.328   2.063  16.669  0.1640 -0.1597 -0.4791
19493TIP3   OH279969   2.415   1.540  12.963 -0.5892  0.0884  0.0397
19493TIP3    H179970   2.354   1.491  12.907 -2.1009  0.0132  1.6740
19493TIP3    H279971   2.411   1.629  12.929 -0.2156 -0.2713 -0.9943
19494TIP3   OH279972   0.698   0.956   2.905 -0.1567 -0.5796  0.2768
19494TIP3    H179973   0.738   0.945   2.818  0.6012  0.1164  0.5228
19494TIP3    H279974   0.751   0.902   2.963  1.4274  1.4882  0.8727
19495TIP3   OH279975   3.730   3.418   2.426  0.0993  0.1661  0.4367
19495TIP3    H179976   3.811   3.466   2.442  0.9490 -1.2726  0.6604
19495TIP3    H279977   3.753   3.354   2.358 -1.0971  0.3324 -0.1393
19496TIP3   OH279978   3.380   2.386  15.472 -0.4854  0.1517 -0.3328
19496TIP3    H179979   3.452   2.369  15.411 -1.2951 -1.3506 -0.9363
19496TIP3    H279980   3.420   2.378  15.558  0.0906 -0.6487 -0.6581
19497TIP3   OH279981   3.687   6.119  15.949  0.3087  0.6445  0.0545
19497TIP3    H179982   3.768   6.068  15.941  0.2465  0.7263 -1.3075
19497TIP3    H279983   3.693   6.185  15.879  0.3610  2.4899  1.7133
19498TIP3   OH279984   2.437   5.826  16.992  0.6555  0.0587  0.1046
19498TIP3    H179985   2.520   5.805  17.034 -0.2684 -2.4344  0.8519
19498TIP3    H279986   2.454   5.908  16.946  2.7579  1.0579  2.3902
19499TIP3   OH279987   5.697   6.719   0.966 -0.0142 -0.2628  0.0806
19499TIP3    H179988   5.605   6.726   0.991  0.2274  0.7954  0.7546
19499TIP3    H279989   5.735   6.659   1.030  0.0747  0.4877  0.7403
19500TIP3   OH279990   3.372   2.861  14.633  0.1152 -0.0005 -0.2975
19500TIP3    H179991   3.463   2.883  14.654 -0.3079  1.5630  0.0229
19500TIP3    H279992   3.350   2.789  14.692  1.0733 -0.2582 -0.2344
19501TIP3   OH279993   5.965   3.941   4.654 -0.5878 -0.1220 -0.2054
19501TIP3    H179994   5.936   4.029   4.679 -3.1512 -0.3620 -1.9485
19501TIP3    H279995   6.058   3.938   4.678 -0.4388  3.0150 -0.0446
19502TIP3   OH279996   5.648   0.393   3.967 -0.6732 -0.0649 -0.1596
19502TIP3    H179997   5.676   0.477   4.002 -1.0574 -0.0730  0.1769
19502TIP3    H279998   5.701   0.381   3.888  0.9346 -0.4950  0.9245
19503TIP3   OH279999   1.985   0.660   3.700  0.2881  0.0791 -0.3432
19503TIP3    H180000   2.004   0.577   3.657 -0.9013 -0.6472  0.4905
19503TIP3    H280001   1.890   0.664   3.705  0.2971  1.8110 -0.9531
19504TIP3   OH280002   1.954   4.257   1.193 -0.1176  0.1609  0.1698
19504TIP3    H180003   1.870   4.212   1.180  0.0557  0.3708 -2.0178
19504TIP3    H280004   1.967   4.255   1.288 -1.8117 -1.2800  0.4366
19505TIP3   OH280005   1.149   4.603   0.981  0.0869  0.0415 -0.7162
19505TIP3    H180006   1.085   4.581   0.914  0.1674  1.7702 -1.4157
19505TIP3    H280007   1.230   4.619   0.932  1.2299 -2.4793  0.1800
19506TIP3   OH280008   2.535   5.126   3.463  0.5659  0.0336 -0.4113
19506TIP3    H180009   2.592   5.057   3.430  0.8307 -0.0373  0.1729
19506TIP3    H280010   2.522   5.185   3.389  1.4806  0.0983 -0.5276
19507TIP3   OH280011   4.290   2.819  11.346  0.0957 -0.0789  0.3010
19507TIP3    H180012   4.373   2.779  11.374 -0.9151 -2.6358 -0.1369
19507TIP3    H280013   4.222   2.765  11.386 -1.3977  1.2167 -0.3633
19508TIP3   OH280014   2.740   2.757  16.821  0.2518 -0.1117 -0.1166
19508TIP3    H180015   2.803   2.816  16.863  0.5158 -0.0984 -0.5364
19508TIP3    H280016   2.715   2.802  16.740 -0.4022 -0.0493  0.1143
19509TIP3   OH280017   1.687   0.265  15.572 -0.0045 -0.7055  0.1754
19509TIP3    H180018   1.622   0.200  15.548 -0.9156 -0.1553  1.0943
19509TIP3    H280019   1.771   0.225  15.547 -0.6655 -1.4287 -0.9995
19510TIP3   OH280020   0.497   0.515  12.836 -0.5253 -0.1290 -0.3157
19510TIP3    H180021   0.546   0.586  12.795 -0.3639  0.3583  0.6845
19510TIP3    H280022   0.424   0.558  12.879 -1.1633 -0.7222 -0.7723
19511TIP3   OH280023   6.111   6.005   1.801  0.7858 -0.0202  0.5917
19511TIP3    H180024   6.018   6.008   1.821  0.2889 -0.8170 -1.4030
19511TIP3    H280025   6.149   5.955   1.873 -0.5265 -0.8095  0.7679
19512TIP3   OH280026   5.440   6.635  12.117 -0.4232  0.6001  0.1533
19512TIP3    H180027   5.368   6.612  12.175  0.0932  0.2172  0.6516
19512TIP3    H280028   5.409   6.610  12.030 -0.3773 -0.8623  0.5190
19513TIP3   OH280029   3.006   2.639   3.616  0.2421 -0.3357  0.4306
19513TIP3    H180030   3.020   2.671   3.705  0.5456 -0.2535  0.3542
19513TIP3    H280031   3.069   2.568   3.605 -0.1524 -0.6893  0.4586
19514TIP3   OH280032   0.621   6.530   1.925  0.5464  0.0437 -0.1301
19514TIP3    H180033   0.694   6.469   1.934  0.8993  0.5308  0.3571
19514TIP3    H280034   0.645   6.605   1.980 -0.9228 -0.3534  1.1050
19515TIP3   OH280035   0.702   3.773  13.373  0.4323  0.3527 -0.2402
19515TIP3    H180036   0.721   3.860  13.408 -2.8004  0.7197  0.9323
19515TIP3    H280037   0.728   3.713  13.443 -1.8498  0.7892  1.0633
19516TIP3   OH280038   6.824   4.486  16.374  0.0484 -0.1438  0.4132
19516TIP3    H180039   6.783   4.401  16.392  1.0154 -1.7588 -3.8109
19516TIP3    H280040   6.760   4.532  16.318  0.7801  0.5817  0.1551
19517TIP3   OH280041   1.850   4.059  14.569  0.1576  0.2439 -0.2862
19517TIP3    H180042   1.792   4.124  14.529  1.5984  0.1745 -2.6446
19517TIP3    H280043   1.814   3.975  14.542 -0.6738  0.0576  1.2843
19518TIP3   OH280044   0.760   0.377  10.348 -0.1566 -0.3671 -0.3565
19518TIP3    H180045   0.708   0.437  10.401 -0.0933 -0.1636 -0.5240
19518TIP3    H280046   0.699   0.342  10.284  0.0923  0.5124 -1.0957
19519TIP3   OH280047   6.799   0.073   1.289 -0.1112  0.5793 -0.1936
19519TIP3    H180048   6.866   0.006   1.290 -0.6237  0.0476  1.7273
19519TIP3    H280049   6.727   0.035   1.238  0.8303  0.9815 -1.8752
19520TIP3   OH280050   5.578   4.924  15.959  0.0702 -0.3112  0.7033
19520TIP3    H180051   5.597   4.988  15.890  0.7458 -1.0418  0.1849
19520TIP3    H280052   5.654   4.866  15.958 -0.1721 -0.6530  1.7015
19521TIP3   OH280053   3.241   3.766   3.676  0.0938 -0.6212 -0.2319
19521TIP3    H180054   3.232   3.861   3.685  1.1486 -0.2344 -2.6619
19521TIP3    H280055   3.326   3.746   3.714  0.3076 -0.4359 -0.6073
19522TIP3   OH280056   4.993   2.990   3.079  0.7608 -0.2327  0.0552
19522TIP3    H180057   4.958   3.069   3.120 -1.9992 -0.5992 -1.3883
19522TIP3    H280058   4.985   2.923   3.146 -0.4065 -0.0649  0.1070
19523TIP3   OH280059   4.720   6.540   0.348 -0.2550  0.4582 -0.1193
19523TIP3    H180060   4.699   6.600   0.277 -0.5021 -0.0229 -0.4572
19523TIP3    H280061   4.642   6.487   0.358 -1.0547  1.8798  1.9304
19524TIP3   OH280062   0.206   1.112  14.518 -0.2250 -0.2972 -0.3584
19524TIP3    H180063   0.128   1.075  14.476 -0.3594 -0.8337  0.3534
19524TIP3    H280064   0.256   1.149  14.445  0.4589 -2.8313 -1.3001
19525TIP3   OH280065   6.814   3.512   1.484 -0.0626  0.7293  0.0051
19525TIP3    H180066   6.832   3.505   1.391  0.5160 -0.4439  0.1891
19525TIP3    H280067   6.731   3.465   1.497  0.1543  0.3815  0.1595
19526TIP3   OH280068   2.622   4.827   2.960 -0.1427  0.2069 -0.2988
19526TIP3    H180069   2.566   4.904   2.967  0.4922  0.7705 -1.1743
19526TIP3    H280070   2.573   4.767   2.904  0.7167  1.3248 -2.3977
19527TIP3   OH280071   3.862   5.243  14.698 -0.8108  0.0486 -0.0373
19527TIP3    H180072   3.807   5.175  14.737 -1.0388 -0.7972 -1.7398
19527TIP3    H280073   3.908   5.199  14.627  0.3325  1.2960 -0.1162
19528TIP3   OH280074   4.744   3.575   3.683  0.4049 -0.1558  0.4464
19528TIP3    H180075   4.720   3.662   3.653 -1.8714 -0.2986  1.5799
19528TIP3    H280076   4.696   3.564   3.766  0.4921 -2.5084  0.2701
19529TIP3   OH280077   1.693   3.438   0.867  0.1460 -0.4509  0.7667
19529TIP3    H180078   1.672   3.431   0.960 -0.0847 -0.1489  0.7419
19529TIP3    H280079   1.723   3.351   0.841  1.5256 -0.1992  1.4438
19530TIP3   OH280080   1.758   1.485  11.960  0.1610  0.0700  0.0975
19530TIP3    H180081   1.713   1.421  12.015 -1.7560  0.0341 -1.4459
19530TIP3    H280082   1.718   1.569  11.983  2.5286  0.8301  1.9764
19531TIP3   OH280083   6.289   6.596   2.932 -0.1178  0.4781  0.1791
19531TIP3    H180084   6.239   6.574   3.011  0.0010  0.7172  0.3214
19531TIP3    H280085   6.308   6.511   2.892 -0.1625  0.3528  0.4186
19532TIP3   OH280086   5.245   2.645  12.717 -0.5458 -0.2489 -0.3164
19532TIP3    H180087   5.275   2.729  12.684 -1.9105  0.3737 -0.0128
19532TIP3    H280088   5.189   2.610  12.647 -1.1315 -0.2499  0.1532
19533TIP3   OH280089   0.695   0.118  11.391 -0.1661  0.4149  0.2638
19533TIP3    H180090   0.727   0.195  11.343  1.1702 -0.9194 -1.0781
19533TIP3    H280091   0.638   0.074  11.328 -0.3715 -0.0614  0.7845
19534TIP3   OH280092   5.547   5.384   1.905 -0.0980 -0.4943  0.0273
19534TIP3    H180093   5.561   5.433   1.823 -1.7793 -1.5010 -0.9135
19534TIP3    H280094   5.462   5.342   1.894 -0.6703 -0.1848  2.5635
19535TIP3   OH280095   2.832   1.089  13.037 -0.2743  0.2287  0.3944
19535TIP3    H180096   2.767   1.138  13.087  0.7186  0.4501  1.4971
19535TIP3    H280097   2.916   1.127  13.062  0.2762  0.4081 -1.5109
19536TIP3   OH280098   4.963   1.679   1.357 -0.2902 -0.3319  0.0187
19536TIP3    H180099   4.974   1.714   1.269  1.3644  0.0412  0.3456
19536TIP3    H280100   5.018   1.601   1.360 -2.8133 -2.2340 -0.2354
19537TIP3   OH280101   0.276   2.814   4.415 -0.4915 -0.0042  0.3650
19537TIP3    H180102   0.360   2.799   4.460  0.1261  0.4386 -0.5933
19537TIP3    H280103   0.291   2.780   4.327 -0.4059  2.4774 -0.6348
19538TIP3   OH280104   2.566   4.436  11.159  0.3233  0.5150  0.0480
19538TIP3    H180105   2.501   4.506  11.171 -0.5981 -0.1377 -0.9983
19538TIP3    H280106   2.583   4.404  11.248 -2.8475 -1.1146  0.2203
19539TIP3   OH280107   6.681   4.980   4.718  0.2646 -0.2438  0.1664
19539TIP3    H180108   6.770   4.994   4.751 -0.4839  1.0841  1.7389
19539TIP3    H280109   6.633   4.945   4.793 -0.8246  0.1835 -0.3184
19540TIP3   OH280110   4.396   1.367   5.796  0.4158 -0.0355 -0.6965
19540TIP3    H180111   4.317   1.413   5.766  0.4713  1.2365  0.9656
19540TIP3    H280112   4.375   1.274   5.784 -0.5491  0.3271 -2.1253
19541TIP3   OH280113   3.950   4.936   1.044  0.0708 -0.0520  0.2881
19541TIP3    H180114   3.931   4.911   0.953 -0.1479  0.4802  0.1822
19541TIP3    H280115   3.864   4.957   1.081  0.2716  0.9047  0.2524
19542TIP3   OH280116   5.028   5.514  12.558  0.5360  0.7773 -0.0373
19542TIP3    H180117   4.979   5.568  12.496 -1.2712 -0.2717  0.4327
19542TIP3    H280118   4.990   5.427  12.551  2.3185 -0.0780  0.3962
19543TIP3   OH280119   0.700   6.109  12.570  0.2800 -0.0415 -0.1781
19543TIP3    H180120   0.612   6.077  12.590  0.9348 -1.6670  0.2618
19543TIP3    H280121   0.696   6.203  12.588 -1.2926 -0.1137  0.0255
19544TIP3   OH280122   5.977   4.583   4.478 -0.0600  0.2697 -0.5902
19544TIP3    H180123   5.999   4.564   4.387  1.1052 -1.2997 -0.0209
19544TIP3    H280124   5.908   4.521   4.500 -0.1488  0.4597 -0.3284
19545TIP3   OH280125   2.787   5.720   3.094 -0.3154  0.0027 -0.2094
19545TIP3    H180126   2.695   5.719   3.121 -0.0024  0.4825  0.9083
19545TIP3    H280127   2.796   5.802   3.045 -0.2962  0.3600  0.3819
19546TIP3   OH280128   4.630   4.454   1.328  0.0176  0.4218  0.7095
19546TIP3    H180129   4.537   4.445   1.346 -0.2251 -0.5988 -0.8955
19546TIP3    H280130   4.648   4.547   1.339 -1.4770  0.8587 -0.3068
19547TIP3   OH280131   0.442   1.947   4.742 -0.0306 -0.2327 -0.1390
19547TIP3    H180132   0.385   1.872   4.721  0.7952 -0.9233  0.0402
19547TIP3    H280133   0.527   1.922   4.707 -0.4126  2.0356 -3.1275
19548TIP3   OH280134   4.970   3.435   2.018  0.2691  0.1782 -0.0273
19548TIP3    H180135   4.921   3.395   2.090 -1.2037  0.8908 -0.5742
19548TIP3    H280136   4.945   3.382   1.941  0.5232  0.4262 -0.2795
19549TIP3   OH280137   6.778   3.739   0.628  0.3392 -0.2536  0.4676
19549TIP3    H180138   6.751   3.789   0.704  2.4697  0.8385  0.5514
19549TIP3    H280139   6.715   3.666   0.624 -0.3709  0.1705  2.6937
19550TIP3   OH280140   2.261   6.314  14.311 -0.4819  0.7586 -0.7256
19550TIP3    H180141   2.328   6.344  14.249 -0.6543 -2.3184 -2.5952
19550TIP3    H280142   2.307   6.255  14.370 -1.2512 -0.2392 -1.1065
19551TIP3   OH280143   1.689   0.673   2.598 -0.1483  0.6852  0.1378
19551TIP3    H180144   1.781   0.700   2.600  0.3567 -0.9209 -0.0288
19551TIP3    H280145   1.655   0.710   2.516  0.2027  1.7130  0.4444
19552TIP3   OH280146   6.738   3.278   2.409 -0.1972 -0.2716  0.8290
19552TIP3    H180147   6.703   3.298   2.496 -1.6406  0.7330  0.0660
19552TIP3    H280148   6.798   3.351   2.391  0.0902 -0.4719  0.9726
19553TIP3   OH280149   6.567   2.965   1.617  0.2274  0.1610  0.0646
19553TIP3    H180150   6.493   2.993   1.671 -0.4655  0.0273 -0.7942
19553TIP3    H280151   6.626   3.041   1.617 -0.0691  0.3981  0.4595
19554TIP3   OH280152   4.605   2.218  13.871 -0.0860  0.7843 -0.0387
19554TIP3    H180153   4.596   2.314  13.872 -0.5296  0.7451 -0.1899
19554TIP3    H280154   4.699   2.203  13.860 -0.0033  1.2036  0.0814
19555TIP3   OH280155   4.944   3.168   0.067 -0.3450 -0.2391  0.0357
19555TIP3    H180156   5.029   3.125   0.052  0.5948  0.4248  2.8148
19555TIP3    H280157   4.882   3.117   0.015  1.5361 -1.6444 -0.9501
19556TIP3   OH280158   2.291   3.007  12.594  0.5735  0.1242  0.2018
19556TIP3    H180159   2.207   2.961  12.604  1.7787 -1.8634  2.1436
19556TIP3    H280160   2.313   3.036  12.682  2.4032 -0.3108 -0.0705
19557TIP3   OH280161   0.497   0.007  16.199  0.2106  0.3938 -0.0665
19557TIP3    H180162   0.495  -0.088  16.206 -0.9730  0.1060 -3.1332
19557TIP3    H280163   0.406   0.034  16.211  0.5488  1.1759  0.8509
19558TIP3   OH280164   1.423   1.530   1.666 -0.7098 -0.2606  0.7144
19558TIP3    H180165   1.437   1.552   1.758 -1.4848  1.2960  0.4935
19558TIP3    H280166   1.511   1.527   1.629 -0.4698  3.0530  0.7097
19559TIP3   OH280167   0.731   6.297   4.245  0.0158 -0.1498  0.1589
19559TIP3    H180168   0.703   6.290   4.335  0.7003  1.0705  0.4999
19559TIP3    H280169   0.774   6.383   4.240 -0.5114  0.0566 -1.4573
19560TIP3   OH280170   5.466   1.171  16.460 -0.3598  0.4624  0.6447
19560TIP3    H180171   5.382   1.217  16.472  1.0729  3.4520  0.1173
19560TIP3    H280172   5.458   1.093  16.515 -3.5534  0.4973  0.4285
19561TIP3   OH280173   5.670   5.358  15.549  0.3575 -0.3214  0.2107
19561TIP3    H180174   5.651   5.395  15.635  1.4192 -0.4654  0.5287
19561TIP3    H280175   5.749   5.404  15.521  2.2326 -2.8368  0.9795
19562TIP3   OH280176   5.099   6.176  16.733 -0.1701 -0.6264 -0.2880
19562TIP3    H180177   5.073   6.122  16.807 -1.2803 -1.3692 -1.1801
19562TIP3    H280178   5.024   6.173  16.673  1.8658 -2.8497 -3.0250
19563TIP3   OH280179   3.828   0.790   3.362 -0.1265 -0.0701 -0.2226
19563TIP3    H180180   3.815   0.878   3.326  0.4487  0.3668  0.6078
19563TIP3    H280181   3.923   0.783   3.374 -0.2097 -0.6380  0.1343
19564TIP3   OH280182   4.244   4.792  14.752  0.0358 -0.4848 -0.1985
19564TIP3    H180183   4.325   4.761  14.712 -0.0527 -1.6807  0.5085
19564TIP3    H280184   4.176   4.774  14.687  0.1339 -0.8162 -0.2077
19565TIP3   OH280185   2.645   6.777  13.603  0.4807 -0.2876  0.1320
19565TIP3    H180186   2.581   6.707  13.620 -2.4583  2.2941  0.5009
19565TIP3    H280187   2.657   6.776  13.509 -1.6868  0.3599 -0.2092
19566TIP3   OH280188   0.798   3.168   0.106 -0.2689  0.4031  0.2112
19566TIP3    H180189   0.833   3.220   0.179 -1.0432  0.7530  0.3426
19566TIP3    H280190   0.874   3.122   0.071  0.5354  1.9314 -0.1525
19567TIP3   OH280191   2.595   5.356   1.450 -0.3524 -0.0649  0.5525
19567TIP3    H180192   2.511   5.335   1.491 -0.8616 -0.2567 -0.5549
19567TIP3    H280193   2.571   5.400   1.368  0.6292  0.1267  0.3613
19568TIP3   OH280194   4.785   2.116   3.693  0.0116  0.0296 -0.7851
19568TIP3    H180195   4.726   2.142   3.622  1.5762  3.5874 -0.9715
19568TIP3    H280196   4.755   2.166   3.769  0.5918 -0.9551  0.1187
19569TIP3   OH280197   1.215   3.212  14.370  0.1674  0.0432  0.2514
19569TIP3    H180198   1.189   3.293  14.327  0.3633 -0.3785 -0.6962
19569TIP3    H280199   1.302   3.193  14.335 -0.3461 -1.1628 -0.4236
19570TIP3   OH280200   4.863   1.811   1.807 -0.1304  0.2397 -0.3956
19570TIP3    H180201   4.958   1.798   1.809 -0.2657 -0.7887  0.5814
19570TIP3    H280202   4.832   1.753   1.738 -0.0788  0.3376 -0.5010
19571TIP3   OH280203   5.013   5.131  16.754 -0.0302 -0.7794  0.0802
19571TIP3    H180204   5.047   5.057  16.703 -1.4294 -1.5508  0.2153
19571TIP3    H280205   5.037   5.111  16.845 -0.6497 -1.2410  0.1534
19572TIP3   OH280206   2.850   3.949   3.407  0.3624 -0.0842 -0.2466
19572TIP3    H180207   2.843   4.044   3.418 -0.3318 -0.3545  2.2031
19572TIP3    H280208   2.945   3.933   3.401  0.4801  0.7642 -0.8179
19573TIP3   OH280209   3.430   6.109  13.244  0.4751 -0.4968  0.7429
19573TIP3    H180210   3.399   6.160  13.170 -0.5469 -3.6009 -1.1692
19573TIP3    H280211   3.524   6.098  13.229  0.1438 -1.7466 -0.5931
19574TIP3   OH280212   2.205   1.082   5.827 -0.5029 -0.0676 -0.4207
19574TIP3    H180213   2.179   1.173   5.809  0.8262  0.2147 -0.9963
19574TIP3    H280214   2.284   1.089   5.881  0.7996 -0.8236 -2.1309
19575TIP3   OH280215   0.805   4.101   4.561 -0.0168  0.3026  0.1179
19575TIP3    H180216   0.832   4.028   4.616  1.7068  0.7615 -0.0777
19575TIP3    H280217   0.809   4.177   4.619  2.0889  0.8347 -0.6490
19576TIP3   OH280218   6.750   1.654   3.699 -0.0112 -0.0314 -0.1655
19576TIP3    H180219   6.713   1.718   3.761 -0.7240 -0.8202  0.2443
19576TIP3    H280220   6.842   1.679   3.691  0.0944  0.1217  1.1939
19577TIP3   OH280221   6.086   6.528   2.247  0.6446  0.2780  0.5118
19577TIP3    H180222   6.170   6.560   2.216  0.5925 -0.9319 -1.0248
19577TIP3    H280223   6.099   6.434   2.261 -0.1417  0.2807  1.3735
19578TIP3   OH280224   6.571   4.034   0.530 -0.1923  0.4308  0.2686
19578TIP3    H180225   6.521   3.953   0.529  0.1815  0.1986 -0.9297
19578TIP3    H280226   6.514   4.098   0.487 -0.1345  0.5981  0.4366
19579TIP3   OH280227   0.887   0.261  15.552 -0.1269  1.1078  0.2550
19579TIP3    H180228   0.960   0.280  15.610 -0.2972  0.8121  0.5739
19579TIP3    H280229   0.843   0.186  15.593 -0.8822  1.5745  0.3256
19580TIP3   OH280230   1.817   6.500   2.700 -0.0591  0.4085 -0.3800
19580TIP3    H180231   1.849   6.461   2.619  1.5855 -0.0960  0.4906
19580TIP3    H280232   1.726   6.471   2.706  0.3682 -1.1717 -1.0558
19581TIP3   OH280233   5.154   2.745  15.839 -0.1684 -0.1920 -0.0325
19581TIP3    H180234   5.114   2.771  15.922 -1.1147  1.2079 -0.8827
19581TIP3    H280235   5.109   2.663  15.815  1.2249 -1.5072  1.5522
19582TIP3   OH280236   4.071   6.543  12.839 -0.1031  0.1260  0.5005
19582TIP3    H180237   4.070   6.632  12.874  2.9830 -0.0181  1.1878
19582TIP3    H280238   4.086   6.554  12.745 -1.6297  0.3248  0.2520
19583TIP3   OH280239   5.254   0.973   4.175 -0.4062 -0.8232 -0.2009
19583TIP3    H180240   5.217   0.989   4.089  0.5748 -0.1246 -0.5186
19583TIP3    H280241   5.291   1.058   4.201 -1.4841 -0.7653  1.3144
19584TIP3   OH280242   3.768   2.450  15.093 -0.3667 -0.4946 -1.0431
19584TIP3    H180243   3.812   2.376  15.050 -0.3869 -1.2468  0.1963
19584TIP3    H280244   3.835   2.519  15.095  1.1428 -1.8863  1.5439
19585TIP3   OH280245   5.400   2.991   4.341  0.4677  0.2948 -0.1404
19585TIP3    H180246   5.389   2.901   4.370 -1.5349  1.1379  2.0148
19585TIP3    H280247   5.349   2.997   4.260 -0.5900 -0.1931  0.4700
19586TIP3   OH280248   6.623   4.877  17.267  0.5376 -0.0633  0.3440
19586TIP3    H180249   6.688   4.826  17.314  0.3486 -0.7896 -0.1657
19586TIP3    H280250   6.541   4.861  17.314 -0.2879 -3.1706 -1.7974
19587TIP3   OH280251   0.451   0.734   1.506  0.3190  0.4150 -0.1117
19587TIP3    H180252   0.490   0.772   1.426 -0.8513  0.3461 -0.7402
19587TIP3    H280253   0.373   0.688   1.475 -0.1767  0.4125  1.0848
19588TIP3   OH280254   0.012   0.643  16.166 -0.6205  0.0268  0.1348
19588TIP3    H180255   0.100   0.621  16.197 -1.5582 -2.2553  1.5059
19588TIP3    H280256  -0.002   0.585  16.091 -0.4572  1.4651 -1.0520
19589TIP3   OH280257   1.004   3.823   0.610 -0.0933 -0.3029  0.1190
19589TIP3    H180258   1.070   3.865   0.666 -0.9404  1.5709 -0.2246
19589TIP3    H280259   0.921   3.838   0.655 -0.7296  0.8130 -1.3489
19590TIP3   OH280260   4.195   1.774   0.944 -0.0574 -0.6051 -0.3984
19590TIP3    H180261   4.135   1.753   0.872 -0.3256 -3.3314  0.5385
19590TIP3    H280262   4.150   1.744   1.023  1.4623 -0.3230  0.6202
19591TIP3   OH280263   5.098   4.872  16.165  0.2386  0.5194 -0.0029
19591TIP3    H180264   5.087   4.966  16.183  0.4129  0.6465 -0.5586
19591TIP3    H280265   5.191   4.861  16.149  0.3256  0.1302  0.6997
19592TIP3   OH280266   3.460   3.379  13.509  0.1517 -0.3627  0.1400
19592TIP3    H180267   3.518   3.445  13.469 -0.2160  0.1500  0.4411
19592TIP3    H280268   3.431   3.419  13.591  0.1766 -1.0366  0.4838
19593TIP3   OH280269   6.039   6.229  16.346 -0.0011 -0.2845  0.3488
19593TIP3    H180270   6.019   6.247  16.254  0.0609 -0.7899  0.2352
19593TIP3    H280271   5.969   6.170  16.374  0.2973 -0.5792  0.4677
19594TIP3   OH280272   4.607   1.923   4.796 -0.6109 -0.2007 -0.0273
19594TIP3    H180273   4.522   1.967   4.791 -0.0903  0.7737 -0.4877
19594TIP3    H280274   4.628   1.900   4.706  0.3798  1.0768 -0.1445
19595TIP3   OH280275   4.410   2.056   6.053 -0.1797  0.3910  0.6770
19595TIP3    H180276   4.402   1.993   6.125  4.0803  0.9699  1.8979
19595TIP3    H280277   4.407   2.141   6.096  1.4706  0.7687  0.0989
19596TIP3   OH280278   4.649   0.707   0.298  0.1872 -0.7077 -0.5392
19596TIP3    H180279   4.715   0.684   0.233  0.5336 -1.2358 -0.0098
19596TIP3    H280280   4.691   0.688   0.382 -0.6530 -1.0827 -0.1943
19597TIP3   OH280281   5.167   4.879   3.767 -0.7051  0.5810 -0.4669
19597TIP3    H180282   5.189   4.973   3.763 -2.0192  0.9060 -0.5349
19597TIP3    H280283   5.073   4.876   3.750 -0.4176 -0.9051 -2.0494
19598TIP3   OH280284   6.744   4.016  15.828  0.1534  0.3777 -0.0282
19598TIP3    H180285   6.742   3.939  15.772 -0.2641  1.1646 -1.1444
19598TIP3    H280286   6.767   3.983  15.915 -0.4582 -1.0474 -0.3850
19599TIP3   OH280287   6.066   1.365  11.805  0.7157  0.0581 -0.3819
19599TIP3    H180288   6.061   1.443  11.860 -0.2267 -0.3260  0.0860
19599TIP3    H280289   6.025   1.296  11.857  1.1295 -0.6495 -0.9758
19600TIP3   OH280290   1.867   1.406  12.509 -0.5982  0.1453 -0.2816
19600TIP3    H180291   1.853   1.465  12.583 -0.8785 -0.9565  0.5706
19600TIP3    H280292   1.788   1.352  12.506 -0.0804 -0.6086 -0.6391
19601TIP3   OH280293   3.056   1.510   2.596  0.3272 -0.4390  0.3484
19601TIP3    H180294   3.128   1.480   2.540 -0.1511  1.2998 -1.2894
19601TIP3    H280295   2.983   1.451   2.574  0.1236  0.2587 -0.9901
19602TIP3   OH280296   4.074   5.220   0.733 -0.2345  0.4730  0.0460
19602TIP3    H180297   4.046   5.143   0.683 -1.1560  1.4020 -0.9371
19602TIP3    H280298   4.164   5.200   0.759  0.8735  0.4905 -3.2572
19603TIP3   OH280299   4.698   1.598  11.696 -0.3637  0.5172  0.1344
19603TIP3    H180300   4.739   1.513  11.710  0.0671  0.5444 -0.8658
19603TIP3    H280301   4.768   1.662  11.712  0.2278  0.5405 -2.1888
19604TIP3   OH280302   6.332   3.508   0.689 -0.0812  0.0565 -0.1259
19604TIP3    H180303   6.290   3.437   0.738 -0.0871 -0.3430 -0.6956
19604TIP3    H280304   6.310   3.587   0.738 -2.3869  0.0034 -0.9197
19605TIP3   OH280305   6.304   3.020  16.052  0.3068 -0.0571  0.0425
19605TIP3    H180306   6.382   3.045  16.003  0.7867 -0.8114  0.3981
19605TIP3    H280307   6.231   3.040  15.994  0.7772  0.4351 -0.3870
19606TIP3   OH280308   3.546   6.735   2.766 -0.3947  0.0167  0.4081
19606TIP3    H180309   3.519   6.791   2.839 -0.5714 -1.6485  1.6604
19606TIP3    H280310   3.603   6.669   2.805  1.6607  0.5806 -1.4098
19607TIP3   OH280311   2.993   1.134   0.520 -0.5289 -0.0603 -0.2586
19607TIP3    H180312   2.914   1.126   0.467 -0.2032 -0.8998 -0.6282
19607TIP3    H280313   2.989   1.060   0.580 -0.2851  0.2018  0.0868
19608TIP3   OH280314   4.543   5.916  15.556  0.3799  0.1608  0.4412
19608TIP3    H180315   4.518   5.902  15.647  1.3995 -0.2637  0.6595
19608TIP3    H280316   4.521   5.833  15.513  0.2741  0.2228  0.3745
19609TIP3   OH280317   1.897   3.016  14.376 -0.4092 -0.1730  0.9537
19609TIP3    H180318   1.982   2.978  14.353 -1.4697 -2.3700  0.4048
19609TIP3    H280319   1.897   3.102  14.333  0.5797 -1.1533 -1.1361
19610TIP3   OH280320   6.509   1.975  16.466  0.8187 -0.1654  0.3818
19610TIP3    H180321   6.551   1.892  16.444 -0.7262 -0.7952 -0.3479
19610TIP3    H280322   6.572   2.042  16.438  2.0255 -1.0735  0.8616
19611TIP3   OH280323   1.162   0.262  14.455 -0.5363  0.0270  0.2270
19611TIP3    H180324   1.200   0.182  14.418  0.2770 -0.3407  1.7879
19611TIP3    H280325   1.068   0.252  14.442 -0.4347 -1.1306  0.2710
19612TIP3   OH280326   0.254   6.085  12.329 -0.5520 -0.2797  0.4919
19612TIP3    H180327   0.273   6.149  12.398 -1.0892  0.3594  0.0654
19612TIP3    H280328   0.339   6.047  12.307 -0.3918 -0.5642  1.5644
19613TIP3   OH280329   4.879   2.899  11.385  0.5315  0.2857  0.2625
19613TIP3    H180330   4.924   2.983  11.398 -0.5953  0.9910 -0.2734
19613TIP3    H280331   4.864   2.866  11.474  1.5505  0.3296  0.4576
19614TIP3   OH280332   3.537   2.285  14.005 -0.5267  0.3704 -0.1365
19614TIP3    H180333   3.512   2.257  14.093 -1.6294  1.1972 -0.1645
19614TIP3    H280334   3.535   2.381  14.009  3.1629  0.5571 -0.0255
19615TIP3   OH280335   2.410   3.227  14.833 -0.3018  0.0152 -0.2955
19615TIP3    H180336   2.449   3.275  14.760  1.3057 -2.9136 -1.5466
19615TIP3    H280337   2.316   3.230  14.817 -0.1270  1.3021 -1.2252
19616TIP3   OH280338   4.537   2.492  14.926 -0.1648 -0.5371  0.9658
19616TIP3    H180339   4.619   2.448  14.950 -0.1841 -0.5408  1.0255
19616TIP3    H280340   4.538   2.573  14.977 -0.1214 -0.4599  0.8429
19617TIP3   OH280341   6.760   2.292  12.012  0.1903 -0.7546  0.1761
19617TIP3    H180342   6.776   2.353  12.084  1.8414 -0.0419 -0.7305
19617TIP3    H280343   6.674   2.256  12.030  1.0810 -1.6774  3.2604
19618TIP3   OH280344   2.814   3.643   0.504 -0.0828 -0.6566  0.0329
19618TIP3    H180345   2.896   3.639   0.454 -0.2867  1.2382 -0.5171
19618TIP3    H280346   2.759   3.575   0.465 -0.5351  1.2501 -2.9863
19619TIP3   OH280347   4.949   5.451  14.056 -0.3847 -0.8526  0.1719
19619TIP3    H180348   4.855   5.469  14.055 -0.0672  1.0866 -1.4156
19619TIP3    H280349   4.984   5.514  14.118  0.0539 -0.1555 -0.7522
19620TIP3   OH280350   6.096   1.275  17.271  0.9370  1.5755 -0.2322
19620TIP3    H180351   6.032   1.341  17.244 -0.9115 -0.2695 -0.6820
19620TIP3    H280352   6.075   1.258  17.363  0.9771  1.2026 -0.2889
19621TIP3   OH280353   1.086   0.089   4.827  0.4399  0.4188  0.0072
19621TIP3    H180354   1.025   0.088   4.900 -2.4534 -1.4925 -2.2426
19621TIP3    H280355   1.173   0.095   4.868 -1.0378 -0.1625  3.5258
19622TIP3   OH280356   4.557   4.130   3.257 -0.5684  0.7186  0.3515
19622TIP3    H180357   4.635   4.168   3.217 -0.1952 -1.4317 -1.1653
19622TIP3    H280358   4.489   4.139   3.189 -0.3860 -1.4567 -0.1841
19623TIP3   OH280359   3.906   6.021  16.263  0.1403  0.2772  0.4688
19623TIP3    H180360   3.894   6.108  16.224  2.0272  0.5787  0.4342
19623TIP3    H280361   3.990   5.991  16.227 -0.8059 -1.8728 -0.0698
19624TIP3   OH280362   3.208   4.959  11.535  0.2202 -0.4798 -0.0675
19624TIP3    H180363   3.141   4.892  11.551 -0.1167 -0.4470 -1.2569
19624TIP3    H280364   3.258   4.962  11.617 -0.2562 -1.6084  0.2942
19625TIP3   OH280365   3.492   3.209  17.256  0.6239  0.0595  0.2602
19625TIP3    H180366   3.410   3.209  17.207  1.5533 -1.4527 -1.3958
19625TIP3    H280367   3.469   3.174  17.342 -1.3489  4.1726  1.7174
19626TIP3   OH280368   3.176   3.898   4.695  0.1308 -0.2122 -0.1860
19626TIP3    H180369   3.177   3.945   4.778  3.1508 -0.7008  0.1685
19626TIP3    H280370   3.193   3.966   4.629  0.7263 -0.2299 -0.0602
19627TIP3   OH280371   5.810   0.255   3.360 -0.9356 -0.5937 -0.6843
19627TIP3    H180372   5.832   0.176   3.311 -1.7796 -1.2862  0.0242
19627TIP3    H280373   5.883   0.269   3.420 -0.2500 -0.1689 -1.5908
19628TIP3   OH280374   5.140   0.331   4.577 -0.0978 -0.5952  0.2650
19628TIP3    H180375   5.206   0.365   4.638  1.3265 -1.0036 -0.9851
19628TIP3    H280376   5.060   0.379   4.600  0.9780  1.0234  0.8584
19629TIP3   OH280377   1.467   4.226  11.974  0.0695  0.5456 -0.0609
19629TIP3    H180378   1.416   4.257  12.048 -0.5017  1.7780 -0.9381
19629TIP3    H280379   1.536   4.291  11.964  0.1958  0.3383 -0.5433
19630TIP3   OH280380   4.057   5.704   3.162 -0.2877  0.6127  0.1263
19630TIP3    H180381   4.000   5.704   3.238  0.7257  1.5256  0.9248
19630TIP3    H280382   4.135   5.657   3.190 -0.3342  0.0151 -0.7080
19631TIP3   OH280383   4.036   3.676   5.568  0.1659 -0.2353 -0.6057
19631TIP3    H180384   4.079   3.756   5.538 -1.0133  0.6686  0.0150
19631TIP3    H280385   3.964   3.664   5.506 -0.6709  0.1450  0.2800
19632TIP3   OH280386   5.074   3.069   0.332  0.2494 -0.2518  1.0065
19632TIP3    H180387   5.108   3.075   0.243 -2.3157 -0.0702 -0.0245
19632TIP3    H280388   5.125   3.133   0.381  0.9079  0.4920 -0.5788
19633TIP3   OH280389   3.230   5.477  13.547 -0.3998 -0.0397  0.1756
19633TIP3    H180390   3.319   5.509  13.560 -0.3689 -0.0086 -0.1087
19633TIP3    H280391   3.212   5.492  13.454 -0.5832 -0.3455  0.1600
19634TIP3   OH280392   1.034   5.600  12.668 -0.2655  0.5669 -0.7888
19634TIP3    H180393   1.012   5.517  12.711  0.1586 -0.2005 -1.9991
19634TIP3    H280394   1.118   5.584  12.626 -0.4350  1.4372 -1.4960
19635TIP3   OH280395   2.257   4.025  13.115 -0.1659  0.1980  0.3729
19635TIP3    H180396   2.289   4.079  13.043  2.0653 -1.6109 -0.1196
19635TIP3    H280397   2.203   4.084  13.168  1.4283  2.6402 -0.5691
19636TIP3   OH280398   5.703   1.979  13.190 -0.2829  0.1872  0.4048
19636TIP3    H180399   5.797   1.967  13.195 -0.4531 -1.3152  0.3860
19636TIP3    H280400   5.668   1.931  13.265 -1.1108 -0.2866 -0.2625
19637TIP3   OH280401   3.524   2.239  13.424  0.1435  0.2415  0.5323
19637TIP3    H180402   3.603   2.232  13.478  1.6376  2.4074 -1.1647
19637TIP3    H280403   3.521   2.331  13.399 -2.1257 -0.0979 -0.6730
19638TIP3   OH280404   3.012   1.630  15.092  0.4475  0.0155  0.4729
19638TIP3    H180405   3.023   1.607  15.185 -0.5079  0.3425  0.6818
19638TIP3    H280406   3.098   1.661  15.065  0.9125 -0.7320  1.0623
19639TIP3   OH280407   0.232   5.524   1.844  0.4434  0.1410  0.0928
19639TIP3    H180408   0.288   5.536   1.921 -0.5080 -2.7676  1.3856
19639TIP3    H280409   0.143   5.533   1.878  0.0298  1.1816 -1.1992
19640TIP3   OH280410   5.226   5.837   0.907  0.1367  0.6349  0.2843
19640TIP3    H180411   5.199   5.834   0.816 -0.9674 -0.9611  0.6220
19640TIP3    H280412   5.155   5.883   0.952 -0.5765 -0.8059  0.6925
19641TIP3   OH280413   5.429   4.278  12.615  0.3153  0.6051  0.1975
19641TIP3    H180414   5.519   4.260  12.642  0.5687  2.4135  0.7049
19641TIP3    H280415   5.378   4.272  12.696  0.3731  1.7934  0.3404
19642TIP3   OH280416   4.635   2.424  17.282  0.0476  0.2208 -0.2857
19642TIP3    H180417   4.649   2.384  17.196  0.6948  0.0623 -0.1095
19642TIP3    H280418   4.722   2.450  17.312  0.0732 -1.2729  1.0750
19643TIP3   OH280419   5.502   0.566  12.383  0.1242  0.0399 -0.1206
19643TIP3    H180420   5.572   0.596  12.325 -0.4885  1.1893 -0.2795
19643TIP3    H280421   5.461   0.646  12.416 -0.2073 -0.5988  1.0965
19644TIP3   OH280422   0.884   3.098   4.042 -0.1986 -0.0619 -0.0559
19644TIP3    H180423   0.902   3.062   4.129  2.4516  0.1602 -0.4354
19644TIP3    H280424   0.857   3.188   4.059  0.5138  0.0487  0.5409
19645TIP3   OH280425   3.906   6.411  16.850 -0.1396  0.0974  0.4540
19645TIP3    H180426   3.924   6.478  16.916 -0.5349  2.0639 -1.3501
19645TIP3    H280427   3.815   6.426  16.825 -0.3574 -1.3947  0.2752
19646TIP3   OH280428   6.137   6.791   4.477 -0.0281  0.2190 -0.4081
19646TIP3    H180429   6.146   6.751   4.563  0.8662  0.8365 -0.1929
19646TIP3    H280430   6.073   6.737   4.431 -0.5514 -0.0869  0.6580
19647TIP3   OH280431   6.105   5.852  16.556  0.3608 -0.2147  0.1825
19647TIP3    H180432   6.161   5.781  16.585  0.4835 -0.0093  0.4465
19647TIP3    H280433   6.087   5.832  16.464  0.6827 -0.3984  0.1580
19648TIP3   OH280434   1.607   2.585   2.158  0.5510 -0.4163 -0.3800
19648TIP3    H180435   1.681   2.621   2.111  1.2703 -0.3415  0.7580
19648TIP3    H280436   1.593   2.645   2.231  0.2629 -1.1560  0.1959
19649TIP3   OH280437   4.524   3.957  15.780  0.7445  0.2812  0.0748
19649TIP3    H180438   4.509   4.051  15.782  1.2584  0.3622  1.4549
19649TIP3    H280439   4.456   3.922  15.723  0.7166  1.5086 -0.6637
19650TIP3   OH280440   5.488   5.735   2.580  0.6056  0.1976 -0.2481
19650TIP3    H180441   5.423   5.773   2.639 -0.2427  0.8945 -1.5830
19650TIP3    H280442   5.536   5.811   2.546 -0.1244 -0.0233 -1.8224
19651TIP3   OH280443   4.064   4.723  12.601  0.0482  0.0489  0.0328
19651TIP3    H180444   4.067   4.633  12.570 -0.9731 -0.1526  0.4608
19651TIP3    H280445   4.062   4.776  12.521  0.4419 -0.3183 -0.2235
19652TIP3   OH280446   1.369   5.469  10.662  0.6449 -1.1290 -0.5758
19652TIP3    H180447   1.422   5.493  10.586  1.0296 -1.3910 -0.3941
19652TIP3    H280448   1.409   5.516  10.735  0.0627 -0.5998 -0.5884
19653TIP3   OH280449   3.590   0.049  17.049  0.3791  0.2537  0.2492
19653TIP3    H180450   3.538   0.048  16.969  0.0492 -0.7737  0.4628
19653TIP3    H280451   3.527   0.039  17.120  0.5982  1.8332  0.7069
19654TIP3   OH280452   5.438   1.205  12.038  0.2332  0.2561 -0.1521
19654TIP3    H180453   5.457   1.142  12.108  2.8627  0.7595 -0.2851
19654TIP3    H280454   5.402   1.153  11.967 -1.7996 -0.3774  1.2499
19655TIP3   OH280455   3.762   5.611   2.870 -0.0773  0.0438  0.0067
19655TIP3    H180456   3.828   5.679   2.859 -0.1306  0.1124  0.1031
19655TIP3    H280457   3.681   5.659   2.887 -0.2911 -0.0215 -0.7933
19656TIP3   OH280458   4.504   4.541  14.412 -0.9411 -0.0396 -0.1224
19656TIP3    H180459   4.567   4.613  14.418 -1.4152  0.5241 -1.5024
19656TIP3    H280460   4.552   4.465  14.444 -0.5288  0.9207  1.6817
19657TIP3   OH280461   6.183   6.028  13.038  0.2759 -1.1482 -0.4811
19657TIP3    H180462   6.266   5.988  13.063  0.8967  0.6573  0.5800
19657TIP3    H280463   6.196   6.057  12.948  1.3100  0.2273  0.0687
19658TIP3   OH280464   3.339   4.223  16.849 -0.2290 -0.2144 -0.0634
19658TIP3    H180465   3.338   4.193  16.941 -0.3327 -0.1276 -0.0374
19658TIP3    H280466   3.412   4.285  16.845  0.8772 -1.4937 -0.4484
19659TIP3   OH280467   4.131   5.414   2.488  0.4397  0.2807 -0.1477
19659TIP3    H180468   4.203   5.477   2.479  0.3842  0.6858  1.9591
19659TIP3    H280469   4.137   5.383   2.578  0.7996 -3.1748 -1.1993
19660TIP3   OH280470   2.693   4.254  15.231 -0.3780  0.0193 -0.0471
19660TIP3    H180471   2.743   4.289  15.158 -3.1009  0.2458 -1.9203
19660TIP3    H280472   2.678   4.162  15.208 -1.5028  0.1632  0.0875
19661TIP3   OH280473   2.078   6.418   0.923 -0.4161 -0.0287  0.3307
19661TIP3    H180474   2.071   6.423   1.019 -2.0868 -1.3192  0.3308
19661TIP3    H280475   2.167   6.389   0.906  0.3642  1.5911  1.4058
19662TIP3   OH280476   1.719   4.094   0.658 -0.1990  0.5104  0.0802
19662TIP3    H180477   1.786   4.102   0.727 -1.7989 -1.0983  1.9126
19662TIP3    H280478   1.656   4.164   0.678  0.5663  1.6767 -1.3315
19663TIP3   OH280479   4.482   2.169  14.717  0.1111  0.2426 -0.1664
19663TIP3    H180480   4.446   2.155  14.630 -0.2298 -0.5341  0.0928
19663TIP3    H280481   4.454   2.093  14.767  1.0484  0.2459  0.3851
19664TIP3   OH280482   6.398   3.342   2.302  0.2217 -0.0517 -0.0949
19664TIP3    H180483   6.450   3.295   2.237  0.1959  0.4038 -0.4492
19664TIP3    H280484   6.335   3.276   2.334 -1.0980  0.2097 -1.9863
19665TIP3   OH280485   4.168   5.686  14.285 -0.1083 -0.0447  0.3113
19665TIP3    H180486   4.164   5.767  14.234 -1.1650  1.4496  2.6013
19665TIP3    H280487   4.194   5.714  14.372  0.5541 -2.3493  0.9177
19666TIP3   OH280488   3.729   3.949   0.537 -0.2769 -0.4584 -0.5805
19666TIP3    H180489   3.781   3.937   0.458 -0.3284 -0.1688 -0.6593
19666TIP3    H280490   3.652   3.894   0.524 -0.4569 -0.1340 -0.8866
19667TIP3   OH280491   5.413   0.713   4.815  0.1106  0.3045 -0.3280
19667TIP3    H180492   5.373   0.754   4.739  0.5234 -0.3359 -0.9019
19667TIP3    H280493   5.453   0.786   4.863  0.5668  0.6205 -1.1642
19668TIP3   OH280494   3.324   4.021  11.765 -0.0026  0.1240  0.4272
19668TIP3    H180495   3.339   4.024  11.859 -0.3993 -0.1130  0.5007
19668TIP3    H280496   3.230   4.035  11.756 -0.0070 -0.1174  0.0827
19669TIP3   OH280497   0.549   2.244  12.314 -0.4972 -0.2324  0.0262
19669TIP3    H180498   0.551   2.320  12.373 -0.3173  0.3066 -0.6560
19669TIP3    H280499   0.474   2.261  12.256 -1.6926 -1.5543  1.1105
19670TIP3   OH280500   3.777   5.767  14.020 -0.2851  0.3193 -0.3983
19670TIP3    H180501   3.783   5.802  14.109  1.7939  0.4206 -0.5365
19670TIP3    H280502   3.734   5.837  13.970  0.4193  1.1473  0.1145
19671TIP3   OH280503   0.422   4.669   2.354 -0.1934 -0.0069 -0.0254
19671TIP3    H180504   0.401   4.592   2.301 -0.2977 -0.4586  0.6608
19671TIP3    H280505   0.352   4.732   2.334  0.3648  0.2621 -1.2504
19672TIP3   OH280506   1.009   0.507   0.103 -0.2686 -0.1266  0.1441
19672TIP3    H180507   1.058   0.429   0.075 -1.4340 -0.8175 -0.0008
19672TIP3    H280508   0.949   0.525   0.031  0.2274  1.1488  0.0105
19673TIP3   OH280509   6.026   6.129  15.696 -0.1035 -0.1968  0.0032
19673TIP3    H180510   5.962   6.185  15.741  0.3689 -0.2639  0.7816
19673TIP3    H280511   5.988   6.041  15.701  0.0740 -0.2471  0.5254
19674TIP3   OH280512   3.507   3.682  14.595 -0.6232  0.0265  0.0543
19674TIP3    H180513   3.556   3.730  14.528 -0.2194  1.2215  1.1484
19674TIP3    H280514   3.573   3.627  14.637 -1.2013 -2.0650 -1.6072
19675TIP3   OH280515   0.348   0.473  12.102 -0.1693  0.3725 -0.3804
19675TIP3    H180516   0.340   0.453  12.195 -0.3693  0.6320 -0.3408
19675TIP3    H280517   0.283   0.419  12.059  0.9847 -0.9453 -0.5425
19676TIP3   OH280518   4.664   0.577  14.588 -0.3926 -0.3313  0.2554
19676TIP3    H180519   4.595   0.643  14.599 -0.4600 -0.1002 -1.2470
19676TIP3    H280520   4.722   0.589  14.663  0.0341  2.0023 -0.3628
19677TIP3   OH280521   2.687   3.160  13.979  0.8187 -0.1822  0.9992
19677TIP3    H180522   2.602   3.197  14.004  0.2489 -1.2898  0.7456
19677TIP3    H280523   2.672   3.117  13.895  1.3956 -1.1880  1.3863
19678TIP3   OH280524   1.417   2.403   3.723 -0.6104 -0.2505 -0.6897
19678TIP3    H180525   1.500   2.385   3.766  0.4370  1.9731 -1.6113
19678TIP3    H280526   1.351   2.362   3.779  1.0801 -2.2034 -0.0118
19679TIP3   OH280527   4.253   2.287   4.256 -0.1241  0.1935  0.6613
19679TIP3    H180528   4.288   2.207   4.218  2.3552  1.5232 -0.0208
19679TIP3    H280529   4.272   2.280   4.349 -0.0615 -0.0815  0.6273
19680TIP3   OH280530   6.454   3.357   1.933  0.2126  0.0412 -0.1534
19680TIP3    H180531   6.378   3.336   1.879  0.8836 -1.3050 -0.6202
19680TIP3    H280532   6.444   3.301   2.010  0.5280  0.1548 -0.0298
19681TIP3   OH280533   2.628   3.032   5.450  0.0705 -0.5576 -0.8314
19681TIP3    H180534   2.549   2.984   5.425  0.9261 -1.2641 -2.3073
19681TIP3    H280535   2.595   3.114   5.487 -1.3621 -1.2604 -0.4499
19682TIP3   OH280536   0.988   5.646   1.594  0.0875 -0.6693  0.1198
19682TIP3    H180537   1.003   5.578   1.528 -1.3190  0.2432 -1.2079
19682TIP3    H280538   0.951   5.599   1.669 -1.1557 -1.3847 -0.8887
19683TIP3   OH280539   0.878   1.874  10.852 -0.5466 -0.4292  0.0149
19683TIP3    H180540   0.947   1.857  10.916  0.3575  2.1558 -0.1864
19683TIP3    H280541   0.798   1.843  10.894  0.0948  0.7022  2.2116
19684TIP3   OH280542   4.340   3.465   4.868  0.1431  0.8364  0.1974
19684TIP3    H180543   4.280   3.483   4.940 -0.9221  1.1757 -0.7524
19684TIP3    H280544   4.427   3.467   4.908 -0.4799 -0.0439  1.6795
19685TIP3   OH280545   5.250   3.857  15.147  0.0011 -0.2095  0.0203
19685TIP3    H180546   5.314   3.799  15.106 -1.7951 -3.1090  1.0406
19685TIP3    H280547   5.302   3.911  15.207  1.6962 -1.3756 -0.3312
19686TIP3   OH280548   3.557   1.693   3.154 -0.3948  0.5948  0.2532
19686TIP3    H180549   3.598   1.664   3.073  3.2035 -0.1810  2.1343
19686TIP3    H280550   3.533   1.612   3.199 -2.5208  1.0209 -0.0337
19687TIP3   OH280551   1.293   5.628  14.017 -0.0126 -0.7698 -0.2484
19687TIP3    H180552   1.345   5.708  14.026 -0.7738 -0.4908  2.7006
19687TIP3    H280553   1.338   5.564  14.073 -0.6801 -1.7284 -0.7769
19688TIP3   OH280554   6.118   5.480   5.380  0.3506  0.0550 -0.0623
19688TIP3    H180555   6.194   5.538   5.375 -0.1129  0.6188 -0.9547
19688TIP3    H280556   6.109   5.445   5.291  0.3508 -1.0452  0.3546
19689TIP3   OH280557   5.882   5.665  16.496 -0.2754  0.5575  0.2411
19689TIP3    H180558   5.897   5.713  16.576 -1.6281  1.7120 -0.1563
19689TIP3    H280559   5.969   5.643  16.464  0.2902  0.0626  1.9975
19690TIP3   OH280560   5.568   5.640   3.995  0.4150  0.1820  0.5822
19690TIP3    H180561   5.576   5.709   3.929  0.8006  0.9239  1.3741
19690TIP3    H280562   5.598   5.561   3.951 -2.1639  0.0057 -1.0553
19691TIP3   OH280563   6.029   2.169  11.853 -0.3578 -0.2309 -0.2325
19691TIP3    H180564   5.944   2.210  11.868  0.4720  1.3214  0.5563
19691TIP3    H280565   6.040   2.170  11.758 -1.6026 -1.3163 -0.4026
19692TIP3   OH280566   0.323   3.445  16.376  0.4925  0.0832  0.0822
19692TIP3    H180567   0.352   3.354  16.384 -0.4923 -0.2272  0.2387
19692TIP3    H280568   0.390   3.486  16.322  0.1248 -1.1264 -1.3760
19693TIP3   OH280569   4.743   3.983   0.366  0.0701  0.0492 -0.1081
19693TIP3    H180570   4.784   4.062   0.401  0.5641 -0.7983  1.3036
19693TIP3    H280571   4.664   4.014   0.323 -1.4732  1.0570  3.1459
19694TIP3   OH280572   1.236   3.773   1.611  0.2850 -0.0011 -0.4092
19694TIP3    H180573   1.146   3.740   1.615  0.8172 -1.4468  1.0671
19694TIP3    H280574   1.228   3.867   1.625 -0.9784 -0.1432 -0.0591
19695TIP3   OH280575   1.426   6.452  11.161 -0.1705 -0.6721  0.4563
19695TIP3    H180576   1.404   6.467  11.069  1.4822 -1.1952 -0.0695
19695TIP3    H280577   1.358   6.497  11.211  0.3716  1.9453 -1.0023
19696TIP3   OH280578   2.616   2.986   0.983  0.1344  0.1440  0.5248
19696TIP3    H180579   2.573   3.044   1.046  0.3160  1.1436 -0.2428
19696TIP3    H280580   2.708   2.987   1.008  0.2511  0.7557  0.1045
19697TIP3   OH280581   5.396   1.216   4.258  0.0506  0.2306  0.4815
19697TIP3    H180582   5.474   1.218   4.313  0.4581 -0.1186 -0.0783
19697TIP3    H280583   5.412   1.282   4.191 -0.4057  0.5911  0.7224
19698TIP3   OH280584   5.211   4.431   3.977  0.4730  0.4652 -0.0119
19698TIP3    H180585   5.229   4.357   4.035  0.2443  0.8014  0.4964
19698TIP3    H280586   5.117   4.447   3.987  0.4335  0.5386 -0.4622
19699TIP3   OH280587   1.170   0.103  17.125  0.0200 -0.4746  0.3842
19699TIP3    H180588   1.182   0.092  17.031 -1.2412 -2.1221  0.3754
19699TIP3    H280589   1.250   0.067  17.164 -0.1641 -1.3296 -0.0114
19700TIP3   OH280590   4.932   4.392  15.699 -0.0019  0.1680 -0.2426
19700TIP3    H180591   5.006   4.374  15.757 -1.5213  0.7620  2.0143
19700TIP3    H280592   4.879   4.312  15.702 -0.5864  0.5592 -0.0233
19701TIP3   OH280593   1.595   2.345  12.526 -0.4295 -0.0272  0.4605
19701TIP3    H180594   1.537   2.300  12.587  0.2665 -1.4049  0.1661
19701TIP3    H280595   1.679   2.351  12.573 -0.4581  0.8210  0.4198
19702TIP3   OH280596   6.786   2.556  10.499  0.1150 -0.3094  0.4081
19702TIP3    H180597   6.743   2.642  10.495  0.8711  0.1492  1.5716
19702TIP3    H280598   6.796   2.530  10.408  1.1894  1.5293 -0.0392
19703TIP3   OH280599   4.170   2.977   2.844  0.7072 -0.1746  0.0985
19703TIP3    H180600   4.257   3.016   2.843  0.2450  0.8972  0.4294
19703TIP3    H280601   4.126   3.017   2.919  0.9178 -2.9755  1.8700
19704TIP3   OH280602   1.723   6.632   3.653 -0.0116 -0.0998 -0.3087
19704TIP3    H180603   1.695   6.719   3.682  2.0360  0.7907 -0.7978
19704TIP3    H280604   1.721   6.578   3.732 -3.8209 -0.4374 -0.4374
19705TIP3   OH280605   2.065   5.005  13.611  0.1038  0.3993  0.1522
19705TIP3    H180606   2.119   4.996  13.533 -0.1772  0.8964 -0.1035
19705TIP3    H280607   2.011   4.926  13.613 -0.8295  0.9784 -0.8892
19706TIP3   OH280608   0.862   0.823  12.992  0.2894 -0.2479  0.1669
19706TIP3    H180609   0.821   0.899  13.034 -1.9633 -1.2837 -0.0103
19706TIP3    H280610   0.827   0.748  13.040  2.2408 -1.2307  0.1492
19707TIP3   OH280611   6.163   5.812   0.023 -0.4487  0.3552  0.3178
19707TIP3    H180612   6.086   5.763   0.050 -1.2808  1.3760 -0.1183
19707TIP3    H280613   6.129   5.880  -0.035  0.2103  3.2632  3.0417
19708TIP3   OH280614   2.396   0.436  16.026 -0.0112 -0.2718 -0.1718
19708TIP3    H180615   2.360   0.379  15.957 -0.5397 -0.8602  0.5775
19708TIP3    H280616   2.382   0.525  15.993 -1.2462 -0.5153 -0.3471
19709TIP3   OH280617   5.616   2.085   6.321  0.2978  0.3853  0.2213
19709TIP3    H180618   5.548   2.107   6.385 -0.1599 -2.0737  0.6921
19709TIP3    H280619   5.696   2.125   6.356 -0.4992  1.5034  0.7935
19710TIP3   OH280620   3.248   2.556  12.153  0.4478 -0.3598 -0.6957
19710TIP3    H180621   3.192   2.567  12.229  0.8744  2.6481 -0.6715
19710TIP3    H280622   3.190   2.522  12.085 -0.1399 -2.2236  0.6722
19711TIP3   OH280623   6.267   2.327  16.173  0.3545  0.4163  0.0676
19711TIP3    H180624   6.345   2.383  16.170 -0.0833  1.1022  0.8018
19711TIP3    H280625   6.194   2.388  16.160 -0.0788 -0.1645 -0.2690
19712TIP3   OH280626   5.674   4.562  10.830  0.4262 -0.5908  0.0528
19712TIP3    H180627   5.685   4.538  10.738  2.5348  0.7991 -0.1275
19712TIP3    H280628   5.606   4.630  10.828  1.2958  0.2949 -0.6724
19713TIP3   OH280629   4.886   2.998  12.810 -0.2105 -0.0290 -0.9931
19713TIP3    H180630   4.828   2.927  12.782 -1.1171 -0.0311  0.7376
19713TIP3    H280631   4.845   3.033  12.889  1.5500  0.7533 -0.3604
19714TIP3   OH280632   3.232   5.339   3.979  0.3726 -0.5235 -0.1659
19714TIP3    H180633   3.235   5.368   3.887  0.5006 -0.2351 -0.0724
19714TIP3    H280634   3.141   5.354   4.005  0.4389 -0.1875 -0.1161
19715TIP3   OH280635   4.131   1.621   4.550  0.1178  0.6380 -0.2860
19715TIP3    H180636   4.224   1.644   4.550  0.2712  0.3370  2.3759
19715TIP3    H280637   4.087   1.702   4.575 -0.1679  0.3703  0.0844
19716TIP3   OH280638   0.674   1.790  12.875 -0.3300 -1.0966 -0.4373
19716TIP3    H180639   0.680   1.792  12.970  1.4820 -0.0340 -0.5315
19716TIP3    H280640   0.760   1.818  12.845 -0.7855 -1.6567 -2.4029
19717TIP3   OH280641   6.237   1.680  14.671 -0.0704  0.0460  0.1835
19717TIP3    H180642   6.165   1.627  14.704 -0.3502 -0.6624 -1.4417
19717TIP3    H280643   6.212   1.770  14.690  0.1394 -0.3363  2.4829
19718TIP3   OH280644   0.827   5.003   3.536 -0.2372  0.9311  0.2788
19718TIP3    H180645   0.817   5.090   3.575  0.0632  1.3389 -0.5425
19718TIP3    H280646   0.744   4.988   3.490 -0.2630  0.8022  0.3655
19719TIP3   OH280647   3.074   5.686  14.856 -0.1321 -0.1995  0.3385
19719TIP3    H180648   2.993   5.714  14.899 -0.0630 -1.9246  1.6760
19719TIP3    H280649   3.133   5.762  14.864 -1.4530  0.9396 -0.3347
19720TIP3   OH280650   2.608   1.925   4.473  0.0833 -0.0420 -0.2566
19720TIP3    H180651   2.677   1.976   4.516 -0.4598  1.2525 -0.8438
19720TIP3    H280652   2.536   1.924   4.536 -0.1997  0.6389 -0.5582
19721TIP3   OH280653   5.617   2.735   2.004 -0.0152 -0.2187  0.2440
19721TIP3    H180654   5.592   2.737   2.096  0.0585  1.2581  0.2444
19721TIP3    H280655   5.595   2.646   1.976 -0.8789 -0.4092  1.4405
19722TIP3   OH280656   5.423   0.146  11.039 -0.2564  0.9877 -0.5960
19722TIP3    H180657   5.388   0.171  11.124  0.1861  0.4808 -0.2568
19722TIP3    H280658   5.389   0.057  11.024 -0.8480  1.3159 -1.2413
19723TIP3   OH280659   0.640   2.397   2.456 -0.0593  0.5026  0.7200
19723TIP3    H180660   0.687   2.313   2.457  1.1665  1.1375  2.5335
19723TIP3    H280661   0.707   2.461   2.433 -0.8226  1.0873  0.0781
19724TIP3   OH280662   1.612   1.045  11.407  0.3922 -0.2748 -0.7787
19724TIP3    H180663   1.697   1.003  11.423  0.8090  0.6399 -0.4747
19724TIP3    H280664   1.607   1.114  11.473  0.5765  1.3499 -2.3841
19725TIP3   OH280665   1.139   3.170  17.111  0.2095  0.6163  0.8041
19725TIP3    H180666   1.082   3.106  17.155  0.4022  0.5112  0.9009
19725TIP3    H280667   1.089   3.252  17.114 -0.4634  0.2613 -0.1798
19726TIP3   OH280668   1.988   5.338   3.295  0.5021  0.0684  0.5050
19726TIP3    H180669   2.071   5.314   3.334  0.9760  1.5614  0.4761
19726TIP3    H280670   1.933   5.260   3.305  0.8697  0.0684  3.3631
19727TIP3   OH280671   3.386   6.298  15.152  0.0700 -0.0714 -0.4282
19727TIP3    H180672   3.416   6.388  15.168  2.3859 -1.1636  2.3179
19727TIP3    H280673   3.304   6.308  15.104  0.4243  3.4728 -0.5611
19728TIP3   OH280674   1.119   1.612  14.764  0.6794  0.0342  0.0195
19728TIP3    H180675   1.201   1.590  14.719 -0.6283 -2.5309 -1.3678
19728TIP3    H280676   1.128   1.704  14.788  4.8262 -0.6645  1.9569
19729TIP3   OH280677   6.405   2.644  13.998 -0.3961 -0.2785 -0.5759
19729TIP3    H180678   6.341   2.698  14.043 -0.6536 -1.0911  0.0663
19729TIP3    H280679   6.452   2.704  13.940 -1.9407  0.2971 -1.2978
19730TIP3   OH280680   3.789   6.280   1.438  0.1982 -0.5701  0.6279
19730TIP3    H180681   3.727   6.209   1.428  1.2796 -1.4107 -0.3510
19730TIP3    H280682   3.742   6.358   1.407 -0.2250 -1.2567 -0.4806
19731TIP3   OH280683   6.793   0.921   0.272 -0.4824  0.1974  0.4926
19731TIP3    H180684   6.794   0.831   0.305 -1.4154  0.6487  1.8337
19731TIP3    H280685   6.865   0.924   0.209  0.3146 -1.1826  1.2783
19732TIP3   OH280686   5.221   3.220   0.527  0.3551 -0.2007 -0.4317
19732TIP3    H180687   5.181   3.214   0.614  1.1208 -0.0198 -0.0567
19732TIP3    H280688   5.261   3.307   0.526 -1.6875  0.7938 -1.8692
19733TIP3   OH280689   6.781   1.428   2.160  0.2264 -0.4081  0.2688
19733TIP3    H180690   6.779   1.465   2.248  2.4001  1.3564 -0.3212
19733TIP3    H280691   6.691   1.432   2.129 -0.6314 -1.2979  2.4578
19734TIP3   OH280692   5.651   1.814   2.961 -0.3805 -0.0230  0.6305
19734TIP3    H180693   5.688   1.729   2.936  1.4550  1.3165 -1.5918
19734TIP3    H280694   5.556   1.802   2.950 -0.0335 -1.2414 -1.6110
19735TIP3   OH280695   1.132   1.340   2.166  0.0866  0.1977  0.2174
19735TIP3    H180696   1.194   1.358   2.096  1.0870 -1.3435  0.6485
19735TIP3    H280697   1.094   1.255   2.144 -0.9930  0.5639  0.5850
19736TIP3   OH280698   2.803   4.951  10.950 -0.6795  0.0857 -0.5541
19736TIP3    H180699   2.769   5.032  10.990 -0.9810 -0.4090  0.2080
19736TIP3    H280700   2.890   4.975  10.920 -0.4361  0.4885  0.4156
19737TIP3   OH280701   1.552   6.667  14.842  0.8057  0.3336 -0.2775
19737TIP3    H180702   1.498   6.602  14.887  2.5134 -1.0886 -0.2181
19737TIP3    H280703   1.510   6.751  14.863  0.4095 -0.4411  2.3159
19738TIP3   OH280704   0.547   2.219  16.928  0.1096 -0.5952 -0.9147
19738TIP3    H180705   0.535   2.309  16.957  1.0609 -0.6647 -0.2540
19738TIP3    H280706   0.518   2.165  17.002  2.4284 -0.7735 -0.0542
19739TIP3   OH280707   1.542   0.309  17.135  0.6284  0.5351 -0.7661
19739TIP3    H180708   1.553   0.231  17.080 -0.9703 -0.9992  0.9494
19739TIP3    H280709   1.530   0.274  17.223  1.3090  2.8346  0.2969
19740TIP3   OH280710   3.613   4.578   1.544  0.4502 -0.3311 -0.8038
19740TIP3    H180711   3.674   4.633   1.496  2.5832 -2.3656 -0.6027
19740TIP3    H280712   3.634   4.489   1.517 -0.9638 -1.2723  0.9563
19741TIP3   OH280713   5.334   5.975  16.885 -0.4141  0.2530 -0.3345
19741TIP3    H180714   5.416   6.022  16.873  0.1995 -0.8670 -0.6069
19741TIP3    H280715   5.290   6.021  16.957 -0.3881  1.9559 -1.3547
19742TIP3   OH280716   5.090   2.605  12.213 -0.1208 -0.2867 -0.1279
19742TIP3    H180717   5.165   2.659  12.239 -0.5876 -0.0852  0.8157
19742TIP3    H280718   5.047   2.656  12.144  0.5594 -0.3657 -0.6186
19743TIP3   OH280719   1.656   5.165   4.167 -0.1119  0.1173 -0.2113
19743TIP3    H180720   1.693   5.106   4.101  0.0688  0.2945 -0.2703
19743TIP3    H280721   1.710   5.244   4.161  0.6919 -0.3192  0.9981
19744TIP3   OH280722   3.203   3.724  13.417  0.5144  0.0504  0.5118
19744TIP3    H180723   3.115   3.690  13.435  0.1315  0.2298 -0.9606
19744TIP3    H280724   3.192   3.819  13.413  0.8087  0.0826  0.4490
19745TIP3   OH280725   1.737   1.693   2.032 -0.8230  0.3593  0.0702
19745TIP3    H180726   1.795   1.635   2.082  0.0266  1.9137  0.9783
19745TIP3    H280727   1.746   1.778   2.075  0.1252  1.8554 -2.8287
19746TIP3   OH280728   0.429   4.676  12.092  0.0310  0.4146 -0.3495
19746TIP3    H180729   0.435   4.743  12.160 -1.2580  0.2642 -0.0655
19746TIP3    H280730   0.362   4.709  12.032 -1.9582 -1.4119  0.7400
19747TIP3   OH280731   6.072   1.377   3.881  0.3082  0.4263  0.2869
19747TIP3    H180732   6.132   1.319   3.835  0.1090  0.6198 -0.2222
19747TIP3    H280733   6.004   1.320   3.915  0.5912  0.2509  0.5640
19748TIP3   OH280734   2.332   5.891  15.150 -0.3354 -0.2712  0.2372
19748TIP3    H180735   2.403   5.953  15.131 -0.3908 -0.0727  0.6642
19748TIP3    H280736   2.375   5.822  15.201 -0.1931 -0.7863 -0.5547
19749TIP3   OH280737   5.416   2.791   4.720  0.3205  0.0398 -0.6728
19749TIP3    H180738   5.385   2.839   4.797  2.0138  0.3038 -0.0958
19749TIP3    H280739   5.357   2.716   4.713 -0.7285  0.7641  0.0253
19750TIP3   OH280740   2.682   2.453  14.720 -0.0215 -0.2686 -0.0193
19750TIP3    H180741   2.661   2.513  14.791 -0.2657  0.8314 -0.9969
19750TIP3    H280742   2.761   2.488  14.680  0.6068 -1.3614  0.2276
19751TIP3   OH280743   2.515   6.480   5.463 -0.1301 -0.1465 -0.3498
19751TIP3    H180744   2.535   6.451   5.374  0.4111 -0.4274 -0.1368
19751TIP3    H280745   2.595   6.523   5.493 -0.5184  0.5158 -0.2225
19752TIP3   OH280746   0.211   2.070  11.203 -0.2840 -0.0089  0.1790
19752TIP3    H180747   0.196   2.136  11.136 -1.9945 -1.7446 -1.2575
19752TIP3    H280748   0.134   2.075  11.260  0.3607  0.3152  1.0534
19753TIP3   OH280749   2.444   5.772   1.204 -0.0099  0.8490 -0.0013
19753TIP3    H180750   2.518   5.721   1.237  0.5104  0.9145 -1.0368
19753TIP3    H280751   2.442   5.753   1.110 -1.0251  1.2086 -0.0621
19754TIP3   OH280752   5.338   4.031   1.757 -0.1686 -0.3063 -0.0025
19754TIP3    H180753   5.294   4.106   1.718  0.1914  0.1162  0.4065
19754TIP3    H280754   5.300   4.024   1.845  1.6419  1.0012  0.9436
19755TIP3   OH280755   3.913   2.589  11.006  0.2707  0.4479  0.0873
19755TIP3    H180756   3.872   2.533  10.940 -0.9777  1.8503 -0.3736
19755TIP3    H280757   3.990   2.540  11.035 -0.2210 -1.0376 -1.0233
19756TIP3   OH280758   1.149   2.739  12.417  0.7044  0.1061  0.6073
19756TIP3    H180759   1.203   2.802  12.464 -0.3772  0.8416  0.8936
19756TIP3    H280760   1.067   2.735  12.467  0.1024 -0.2294 -0.3719
19757TIP3   OH280761   0.523   3.780   0.423  0.8744  0.0014  0.1960
19757TIP3    H180762   0.596   3.726   0.395 -0.9605 -1.8599 -1.3078
19757TIP3    H280763   0.469   3.722   0.477  0.0056  1.0105  0.4492
19758TIP3   OH280764   3.310   6.670   5.519  0.5794 -0.2177  0.3958
19758TIP3    H180765   3.228   6.707   5.551  0.9835  0.8210  0.2654
19758TIP3    H280766   3.373   6.688   5.589  0.4519 -2.1315  1.0667
19759TIP3   OH280767   3.861   6.801  15.932 -0.3127 -0.0558 -0.3930
19759TIP3    H180768   3.870   6.789  15.837  0.3035  0.9408 -0.4666
19759TIP3    H280769   3.861   6.712  15.967  0.1160 -0.4141 -1.2696
19760TIP3   OH280770   3.231   5.832   1.915 -0.1663  0.7811  0.4743
19760TIP3    H180771   3.232   5.850   1.821  0.2147  1.6826  0.6436
19760TIP3    H280772   3.199   5.913   1.955 -0.8313  0.2244  1.0899
19761TIP3   OH280773   5.541   0.877  15.278 -0.3188  0.0074 -0.1859
19761TIP3    H180774   5.612   0.939  15.258 -0.0368  0.1137  1.0567
19761TIP3    H280775   5.583   0.791  15.277  0.0727  0.1429  1.4615
19762TIP3   OH280776   6.725   6.295   5.024  0.3004 -0.6672  0.2397
19762TIP3    H180777   6.718   6.364   4.958 -0.0044 -0.7360  0.1968
19762TIP3    H280778   6.651   6.312   5.083  2.1818  1.1561  2.2596
19763TIP3   OH280779   0.335   0.117  12.691 -0.6132  0.2291 -0.0616
19763TIP3    H180780   0.270   0.145  12.756 -0.2083 -0.3677  0.6185
19763TIP3    H280781   0.332   0.185  12.624 -0.9745  0.9237  0.6317
19764TIP3   OH280782   5.315   0.182  11.543 -0.6280  0.0871 -0.2407
19764TIP3    H180783   5.238   0.237  11.529 -0.8803 -0.0387  0.6079
19764TIP3    H280784   5.322   0.174  11.638  1.7488  1.9702 -0.1667
19765TIP3   OH280785   1.246   4.632  13.379  0.0382 -0.4770  0.1341
19765TIP3    H180786   1.240   4.724  13.404  0.6295 -0.5695  0.6585
19765TIP3    H280787   1.155   4.601  13.381 -0.3014  0.3750 -1.2020
19766TIP3   OH280788   5.849   3.097   0.047 -0.3904 -0.2475 -0.8502
19766TIP3    H180789   5.875   3.138  -0.035  0.5501 -0.8713 -0.8860
19766TIP3    H280790   5.919   3.120   0.109 -0.0523 -1.4100 -0.7659
19767TIP3   OH280791   0.347   2.306  17.298  0.1566 -0.3401 -0.2172
19767TIP3    H180792   0.392   2.371  17.245  0.0599 -0.2468 -0.1838
19767TIP3    H280793   0.382   2.319  17.386  0.6825 -0.8174 -0.3456
19768TIP3   OH280794   6.488   2.129  12.890  0.1865 -0.0762  0.1591
19768TIP3    H180795   6.570   2.121  12.938  0.5181  1.3583 -0.1084
19768TIP3    H280796   6.424   2.157  12.956  0.2071  0.0479  0.1265
19769TIP3   OH280797   3.661   6.209   2.246 -0.0604 -0.3496  0.2926
19769TIP3    H180798   3.701   6.261   2.177  0.1385  0.3421  0.9106
19769TIP3    H280799   3.670   6.119   2.217 -0.4481 -0.0358 -0.8203
19770TIP3   OH280800   4.820   3.638  16.173  0.6883  0.0240  0.1779
19770TIP3    H180801   4.892   3.578  16.191 -0.6311 -1.1835  1.8344
19770TIP3    H280802   4.791   3.666  16.260 -1.5865 -0.5194 -0.3392
19771TIP3   OH280803   6.119   1.654  11.477 -0.0521 -0.2382 -0.7962
19771TIP3    H180804   6.128   1.653  11.572  0.6233 -0.9236 -0.8629
19771TIP3    H280805   6.195   1.704  11.446  0.4409 -1.1281 -1.0439
19772TIP3   OH280806   1.979   4.223  13.078  0.3930  0.0730  0.1362
19772TIP3    H180807   1.988   4.263  12.991  2.0988  0.9264  0.6612
19772TIP3    H280808   1.897   4.259  13.113 -0.0890  0.0506 -0.9308
19773TIP3   OH280809   3.076   5.553  11.650 -0.5867  0.1218  1.2563
19773TIP3    H180810   3.082   5.457  11.653 -0.4883  0.0787  0.1546
19773TIP3    H280811   3.164   5.581  11.625 -0.5028  0.5344  1.9921
19774TIP3   OH280812   5.971   0.854  13.751  0.0640  0.4856 -0.5611
19774TIP3    H180813   6.038   0.799  13.792 -0.0653 -0.7037 -1.8835
19774TIP3    H280814   6.008   0.878  13.666  0.0173  2.2992 -0.1153
19775TIP3   OH280815   1.199   4.265  14.737 -0.4963  0.0623  0.1615
19775TIP3    H180816   1.263   4.238  14.803  0.7528  0.2287 -0.9517
19775TIP3    H280817   1.187   4.359  14.753 -0.0099  0.1544  0.0136
19776TIP3   OH280818   4.532   5.794  12.028  0.6031 -0.6761  0.6814
19776TIP3    H180819   4.526   5.814  11.935  2.0806  0.3565  0.7656
19776TIP3    H280820   4.458   5.839  12.068  0.6201 -0.1533  0.1359
19777TIP3   OH280821   0.051   5.174   2.718 -0.4355 -0.3438  0.8156
19777TIP3    H180822   0.078   5.094   2.764  0.2102  0.5259  2.0129
19777TIP3    H280823   0.133   5.223   2.706 -0.9618  0.6033  1.0395
19778TIP3   OH280824   1.818   4.332   0.910  0.4719 -0.4664  0.0769
19778TIP3    H180825   1.867   4.277   0.849  1.9134 -0.1785  0.9313
19778TIP3    H280826   1.833   4.294   0.996  2.2006  1.6515  0.8061
19779TIP3   OH280827   6.508   6.399   2.406 -0.0548 -0.2771  0.1360
19779TIP3    H180828   6.555   6.324   2.444  0.5266  0.4143  0.8207
19779TIP3    H280829   6.525   6.471   2.467  0.6011  0.7805 -1.2325
19780TIP3   OH280830   5.451   3.048   0.617 -0.2088  0.2830  0.0115
19780TIP3    H180831   5.416   3.020   0.702 -1.1937 -0.2878 -0.5604
19780TIP3    H280832   5.401   3.127   0.595  0.0182  0.4083 -0.0628
19781TIP3   OH280833   2.055   0.625   3.114 -0.1556  0.2950  0.0200
19781TIP3    H180834   1.972   0.669   3.132  0.0056 -0.3352  2.7865
19781TIP3    H280835   2.031   0.543   3.072 -1.3398 -1.3104  3.4662
19782TIP3   OH280836   2.637   0.452   3.778 -0.0220 -0.4345 -0.2163
19782TIP3    H180837   2.621   0.541   3.746  3.2700  0.2177 -0.3678
19782TIP3    H280838   2.601   0.453   3.867  0.2321  1.1791 -0.0871
19783TIP3   OH280839   1.483   4.015  13.369  0.5980 -0.1375  0.0392
19783TIP3    H180840   1.459   4.050  13.455  4.9725  0.7357  1.1623
19783TIP3    H280841   1.431   3.935  13.361 -1.0516  0.5141  2.8067
19784TIP3   OH280842   2.224   6.064   2.079 -0.2317 -0.1268  0.1112
19784TIP3    H180843   2.222   6.159   2.065 -1.3762 -0.1728 -0.1628
19784TIP3    H280844   2.278   6.053   2.157 -0.2594  0.7714  0.2722
19785TIP3   OH280845   3.240   5.567   1.789 -0.1463  0.1764 -0.0858
19785TIP3    H180846   3.276   5.638   1.736  0.6779  0.6838  1.1293
19785TIP3    H280847   3.228   5.605   1.876 -1.5138 -0.6371  0.1141
19786TIP3   OH280848   4.099   3.171   0.612  0.1842  0.0063  0.8825
19786TIP3    H180849   4.063   3.127   0.689 -1.6036 -0.0620  0.0681
19786TIP3    H280850   4.023   3.212   0.571  1.5215  2.5338  0.7299
19787TIP3   OH280851   4.273   3.115  12.806  0.0600 -0.0907 -0.1793
19787TIP3    H180852   4.275   3.040  12.865 -0.1310 -0.5405 -0.7283
19787TIP3    H280853   4.315   3.083  12.725 -1.0017  0.0432 -0.8021
19788TIP3   OH280854   6.035   4.517  15.848  0.3165  0.3626 -0.0770
19788TIP3    H180855   6.008   4.537  15.938 -0.7085 -1.6224  0.1058
19788TIP3    H280856   5.956   4.528  15.796  0.0923 -1.5687 -0.1988
19789TIP3   OH280857   4.920   6.517   3.617 -0.0527 -0.1837  0.0035
19789TIP3    H180858   5.010   6.487   3.632  0.4219  0.5515 -1.2537
19789TIP3    H280859   4.875   6.440   3.583  0.5817 -0.0944 -1.0772
19790TIP3   OH280860   4.333   5.634   6.123 -0.5309 -0.4823 -0.5779
19790TIP3    H180861   4.245   5.667   6.141 -0.8352  0.1166 -2.8526
19790TIP3    H280862   4.318   5.547   6.085 -0.3730  0.3844 -2.8224
19791TIP3   OH280863   0.509   6.233  11.906 -0.4046  0.0836  0.1922
19791TIP3    H180864   0.586   6.183  11.934  0.6736  1.6771  0.2158
19791TIP3    H280865   0.437   6.170  11.908  0.8730 -1.4302  0.2781
19792TIP3   OH280866   6.319   3.709  15.898  0.1037  0.4846  0.3124
19792TIP3    H180867   6.374   3.762  15.841  1.6640 -1.7010 -0.3324
19792TIP3    H280868   6.355   3.723  15.986 -1.5969  2.9674  0.7347
19793TIP3   OH280869   2.414   1.751   2.355 -0.1988  0.0487 -0.4142
19793TIP3    H180870   2.401   1.843   2.333 -0.4686 -0.4860 -2.7679
19793TIP3    H280871   2.508   1.743   2.370 -0.2883  0.8462  0.7132
19794TIP3   OH280872   1.694   1.537   1.574  0.1111 -0.2418 -0.9960
19794TIP3    H180873   1.704   1.538   1.479  1.9467 -0.1394 -0.8353
19794TIP3    H280874   1.695   1.444   1.598 -1.7366 -0.3425 -1.1607
19795TIP3   OH280875   1.281   3.909  14.480  0.4280 -0.3050  0.3363
19795TIP3    H180876   1.289   3.881  14.571  0.8806 -0.7038  0.1757
19795TIP3    H280877   1.227   3.841  14.438  3.1904 -2.1079 -0.5327
19796TIP3   OH280878   1.633   3.308  14.092  0.5159 -0.1124 -0.7398
19796TIP3    H180879   1.601   3.299  14.002  1.6515  0.0461 -1.1666
19796TIP3    H280880   1.605   3.396  14.118 -3.2128 -1.4440  0.4844
19797TIP3   OH280881   3.141   2.632  14.942 -0.1916 -0.0155 -0.1167
19797TIP3    H180882   3.211   2.568  14.925  0.0310  0.5149 -1.2871
19797TIP3    H280883   3.078   2.617  14.871  0.3944  1.7924 -1.0590
19798TIP3   OH280884   0.057   0.218  11.876  0.6696 -0.0246  0.3068
19798TIP3    H180885  -0.014   0.283  11.880  0.0284 -0.7331  0.9269
19798TIP3    H280886   0.102   0.226  11.960 -1.6306 -2.7377  1.9886
19799TIP3   OH280887   2.631   4.620   0.745  0.5576  0.3707  0.0331
19799TIP3    H180888   2.633   4.658   0.657 -0.6444  0.6540  0.1161
19799TIP3    H280889   2.663   4.690   0.802 -1.2662  1.1722  0.1364
19800TIP3   OH280890   0.040   2.172  13.436 -0.1019 -0.1189 -0.1454
19800TIP3    H180891   0.008   2.261  13.420  0.9329  0.2147 -0.4599
19800TIP3    H280892   0.083   2.147  13.354 -1.0223 -1.2032 -0.3193
19801TIP3   OH280893   6.352   4.662   1.087  0.3199 -0.1624  0.0701
19801TIP3    H180894   6.343   4.675   0.993 -0.6404 -0.0973  0.1611
19801TIP3    H280895   6.282   4.601   1.110  1.1562 -0.9725  0.5903
19802TIP3   OH280896   2.807   0.355   0.941  0.5386  0.7878 -0.4205
19802TIP3    H180897   2.820   0.301   1.020 -3.2760 -4.4497 -2.7995
19802TIP3    H280898   2.752   0.428   0.971  0.7529  0.0464  2.0271
19803TIP3   OH280899   3.520   2.365  12.429  0.1099  0.2644  0.1508
19803TIP3    H180900   3.576   2.407  12.494 -0.2471 -0.5155  0.9917
19803TIP3    H280901   3.535   2.414  12.348  0.8524  1.0130  0.7285
19804TIP3   OH280902   4.458   4.385  11.579  0.2230  0.0805 -0.2789
19804TIP3    H180903   4.540   4.420  11.613 -0.5947  1.5520  0.2684
19804TIP3    H280904   4.469   4.384  11.484  1.1030 -0.3861 -0.1802
19805TIP3   OH280905   4.179   0.561  12.788 -0.3061 -0.1455  0.3871
19805TIP3    H180906   4.135   0.539  12.706 -0.8037 -1.1061  0.8897
19805TIP3    H280907   4.186   0.477  12.835 -0.2701  0.4265  1.4374
19806TIP3   OH280908   1.965   4.080   2.789  0.5395 -0.0605  0.5352
19806TIP3    H180909   1.957   4.096   2.695 -1.3546  0.9409  0.8181
19806TIP3    H280910   2.004   4.160   2.824 -0.1983  0.2060  0.7752
19807TIP3   OH280911   1.708   0.535   1.034 -0.1816  0.1556  0.7129
19807TIP3    H180912   1.760   0.599   1.083 -1.0036  2.5286 -1.2968
19807TIP3    H280913   1.647   0.499   1.098  1.9909 -0.6211  2.4844
19808TIP3   OH280914   3.783   4.372   4.960  0.0164  0.5186 -0.1194
19808TIP3    H180915   3.849   4.309   4.988 -0.3460 -0.1113 -0.6600
19808TIP3    H280916   3.823   4.457   4.977  0.1876  0.1697  1.4002
19809TIP3   OH280917   2.627   1.788  13.728  0.0632  0.8551 -0.2463
19809TIP3    H180918   2.708   1.740  13.711  0.5603  1.0903  1.3098
19809TIP3    H280919   2.610   1.774  13.821 -2.7379 -0.7826 -0.9093
19810TIP3   OH280920   1.708   4.104  13.599 -0.4385  0.4714  0.5159
19810TIP3    H180921   1.701   4.194  13.631 -0.4211  0.8347 -0.4490
19810TIP3    H280922   1.690   4.111  13.505  0.4020 -0.4062  0.2697
19811TIP3   OH280923   2.008   5.965  16.116 -0.2589 -0.4272 -0.2285
19811TIP3    H180924   1.919   5.930  16.111 -0.9563  1.1021  0.6584
19811TIP3    H280925   1.996   6.056  16.143  1.5514  0.0116 -0.7709
19812TIP3   OH280926   0.676   4.790  12.966  0.2227  0.0064 -0.2531
19812TIP3    H180927   0.590   4.798  12.923  0.4595  0.5380 -0.6486
19812TIP3    H280928   0.731   4.747  12.901  0.2642 -0.3171 -0.0058
19813TIP3   OH280929   2.346   1.463  15.662  0.1814 -0.5251 -0.2263
19813TIP3    H180930   2.417   1.455  15.599  1.5045  0.3103  1.0975
19813TIP3    H280931   2.276   1.508  15.614  2.0900  2.4969 -0.4853
19814TIP3   OH280932   4.787   3.246   6.144  0.2470  0.1740 -0.5767
19814TIP3    H180933   4.815   3.163   6.182 -0.3222  0.8011  1.3497
19814TIP3    H280934   4.789   3.231   6.049  0.0821 -2.0460 -0.2874
19815TIP3   OH280935   4.827   4.301   2.664 -0.0886  0.0136 -0.3843
19815TIP3    H180936   4.767   4.325   2.734 -0.6553 -1.0703 -0.4665
19815TIP3    H280937   4.870   4.222   2.696  0.3092  0.0207 -0.8853
19816TIP3   OH280938   4.620   5.750   4.118 -0.8216 -0.4368 -0.0477
19816TIP3    H180939   4.672   5.670   4.108 -0.3120 -0.0765 -0.3098
19816TIP3    H280940   4.626   5.770   4.212  1.6159  0.9722 -0.4182
19817TIP3   OH280941   0.581   0.065  11.159 -0.0294  0.7839 -0.1148
19817TIP3    H180942   0.531   0.146  11.153 -1.7290 -0.0746  1.6061
19817TIP3    H280943   0.532   0.001  11.108  0.4775  0.4407 -0.1899
19818TIP3   OH280944   4.289   5.118  14.785 -0.6303  0.3556  0.2186
19818TIP3    H180945   4.339   5.177  14.842 -0.8578  0.2503  0.5289
19818TIP3    H280946   4.340   5.037  14.784 -0.9009  0.1709  0.7161
19819TIP3   OH280947   5.446   2.171   4.649  0.1110 -0.4831 -0.1263
19819TIP3    H180948   5.515   2.124   4.694 -1.0275 -1.1017  1.0253
19819TIP3    H280949   5.411   2.232   4.714 -0.4892 -0.2382 -0.6575
19820TIP3   OH280950   0.022   1.015  15.775 -0.2934 -0.3741  0.1770
19820TIP3    H180951   0.036   0.945  15.840  1.1345 -0.3756 -0.0884
19820TIP3    H280952   0.098   1.008  15.717 -0.2090  1.2976  0.0555
19821TIP3   OH280953   6.512   2.302   0.851 -0.5166 -0.0224  0.4820
19821TIP3    H180954   6.512   2.359   0.927  0.5971 -2.4091  2.3898
19821TIP3    H280955   6.597   2.316   0.810 -0.7034  0.4904  0.2549
19822TIP3   OH280956   6.581   5.992  17.180 -0.0225 -0.1697 -0.3128
19822TIP3    H180957   6.537   5.942  17.248  0.3172  0.1419  0.1453
19822TIP3    H280958   6.670   5.955  17.177 -0.1350 -0.4060 -0.8206
19823TIP3   OH280959   4.878   0.344  15.254 -0.2695  0.3286  0.1468
19823TIP3    H180960   4.959   0.314  15.295  0.1336  0.6291 -0.4118
19823TIP3    H280961   4.887   0.320  15.162 -0.9045  0.1895  0.1162
19824TIP3   OH280962   5.327   0.719   5.801 -0.3147  0.4775 -0.0261
19824TIP3    H180963   5.284   0.799   5.831 -0.5642  0.0109  0.8925
19824TIP3    H280964   5.357   0.677   5.881 -1.7508 -1.2456 -0.3404
19825TIP3   OH280965   6.468   6.115  14.766  0.0568 -0.7114  0.0808
19825TIP3    H180966   6.469   6.174  14.841 -0.5440 -0.3985 -0.1500
19825TIP3    H280967   6.481   6.028  14.803 -1.3942 -0.7019  0.6837
19826TIP3   OH280968   6.544   2.039   0.021 -0.4798  1.0269 -0.2065
19826TIP3    H180969   6.492   1.987  -0.041 -0.9315  0.3208  0.7417
19826TIP3    H280970   6.600   2.093  -0.035 -0.0483 -0.4326 -1.2453
19827TIP3   OH280971   2.730   5.237  13.566  0.1643 -0.1572 -0.3298
19827TIP3    H180972   2.820   5.265  13.553  0.9375 -0.8649  2.7340
19827TIP3    H280973   2.685   5.316  13.599 -0.3770  0.1862 -1.8165
19828TIP3   OH280974   0.279   5.962  10.893  0.2594  0.4077 -0.0407
19828TIP3    H180975   0.320   6.022  10.955 -1.4645  0.4939  1.1009
19828TIP3    H280976   0.348   5.940  10.831  1.6699  1.4158  1.1056
19829TIP3   OH280977   2.248   5.973   2.617  0.0884 -0.2780 -0.0243
19829TIP3    H180978   2.297   5.925   2.684  3.0973 -1.2924 -2.6961
19829TIP3    H280979   2.254   6.064   2.643 -0.9033 -0.7914  2.2457
19830TIP3   OH280980   4.660   3.886   5.079 -0.2534 -0.0247 -0.1453
19830TIP3    H180981   4.657   3.857   4.988  0.8426  1.4648 -0.6897
19830TIP3    H280982   4.694   3.811   5.127  1.1779 -0.1480 -1.2940
19831TIP3   OH280983   0.008   6.513  16.376 -0.0209  0.2750 -0.3961
19831TIP3    H180984   0.057   6.443  16.332  1.1102  0.6538  0.2367
19831TIP3    H280985   0.074   6.577  16.401 -1.0652  1.7209 -1.1905
19832TIP3   OH280986   4.662   2.403   0.958  0.4743 -0.5326 -0.0572
19832TIP3    H180987   4.713   2.483   0.969  0.6535 -0.7686  0.9644
19832TIP3    H280988   4.727   2.333   0.956  0.2462 -0.7581  0.3230
19833TIP3   OH280989   6.802   5.165   5.404  0.4658  0.3714  0.1161
19833TIP3    H180990   6.800   5.259   5.416 -1.1290  0.6231 -1.5893
19833TIP3    H280991   6.739   5.148   5.334 -0.6078 -2.1303  1.5307
19834TIP3   OH280992   5.845   1.614  13.091  0.2544 -0.1081 -0.3656
19834TIP3    H180993   5.830   1.523  13.120 -1.0527 -0.4229 -1.9024
19834TIP3    H280994   5.791   1.666  13.151  0.8230 -0.3500  0.3754
19835TIP3   OH280995   0.211   3.275   1.524  0.2010 -0.3771  0.6694
19835TIP3    H180996   0.161   3.210   1.475 -0.5662 -0.0747  1.0327
19835TIP3    H280997   0.162   3.357   1.511  0.2177 -0.2160  1.6009
19836TIP3   OH280998   2.557   2.268  11.173 -1.0665 -0.6187  0.1366
19836TIP3    H180999   2.639   2.303  11.138 -0.5985 -0.0673  1.6726
19836TIP3    H281000   2.553   2.178  11.143 -0.7870 -0.1383 -1.4113
19837TIP3   OH281001   2.469   6.143  13.462 -0.0883  0.0268 -0.4190
19837TIP3    H181002   2.484   6.049  13.474 -1.0610  0.0031  0.7447
19837TIP3    H281003   2.489   6.182  13.547 -0.3502  0.7850 -0.6962
19838TIP3   OH281004   1.896   4.333   5.332  0.1564  0.4284  0.2202
19838TIP3    H181005   1.878   4.387   5.409 -0.1992  1.2938 -0.4465
19838TIP3    H281006   1.881   4.392   5.258  0.2283 -0.4638 -0.5185
19839TIP3   OH281007   5.371   2.226  15.180 -0.4373 -0.5248  0.8196
19839TIP3    H181008   5.434   2.211  15.110 -1.1080 -0.7794  0.2574
19839TIP3    H281009   5.378   2.320  15.199  0.5593 -0.6742  1.2068
19840TIP3   OH281010   5.143   4.725  12.874 -0.5772 -0.0486 -0.2920
19840TIP3    H181011   5.217   4.681  12.832 -0.4241 -0.8489  0.7560
19840TIP3    H281012   5.140   4.686  12.962  1.0771  3.6506  1.6192
19841TIP3   OH281013   4.290   3.996  16.874 -0.1603 -0.2322 -0.2620
19841TIP3    H181014   4.385   3.988  16.883 -0.2002 -0.6455 -0.2044
19841TIP3    H281015   4.256   3.911  16.901 -0.4741 -0.4873 -1.4012
19842TIP3   OH281016   3.377   5.029   3.197 -0.9361 -0.0472 -0.1174
19842TIP3    H181017   3.351   4.936   3.201  2.1914 -0.9771  1.5474
19842TIP3    H281018   3.372   5.051   3.104 -0.2629 -2.3949 -0.7838
19843TIP3   OH281019   3.951   3.364   2.794 -0.2384 -0.2486  0.0229
19843TIP3    H181020   3.884   3.305   2.828 -2.2118  2.4332  1.1381
19843TIP3    H281021   3.988   3.406   2.872  0.6103  0.5027 -0.7511
19844TIP3   OH281022   0.963   0.175  10.388  0.7793 -0.0230 -0.5007
19844TIP3    H181023   0.913   0.239  10.336  0.4433  0.6166  0.5769
19844TIP3    H281024   0.896   0.126  10.435  1.0364 -1.2305 -1.3569
19845TIP3   OH281025   6.575   0.034  13.292  0.7890 -0.8726  0.0224
19845TIP3    H181026   6.486   0.057  13.268  0.6527  0.0096  1.3029
19845TIP3    H281027   6.571  -0.059  13.313  0.6947 -1.4278 -2.1622
19846TIP3   OH281028   2.341   3.724   2.279 -0.2393  0.4201 -0.0309
19846TIP3    H181029   2.434   3.743   2.289 -0.0450 -0.4908  0.0255
19846TIP3    H281030   2.298   3.774   2.348  0.1021  1.5419 -0.6017
19847TIP3   OH281031   5.894   5.143  14.061 -0.7443 -0.1276 -0.0654
19847TIP3    H181032   5.988   5.146  14.082 -1.1184 -1.0515  1.9010
19847TIP3    H281033   5.853   5.104  14.138 -2.4887 -1.9999 -1.8127
19848TIP3   OH281034   4.257   0.852  14.677  0.1501  0.6937 -0.8146
19848TIP3    H181035   4.180   0.909  14.671  0.0215  0.5171 -0.8511
19848TIP3    H281036   4.227   0.768  14.641 -0.4153 -0.1886  1.5694
19849TIP3   OH281037   2.221   4.082  13.797 -0.4079 -0.0292  0.1083
19849TIP3    H181038   2.215   4.070  13.703 -2.0232 -3.9027  0.5420
19849TIP3    H281039   2.314   4.099  13.813  0.3478 -1.7543 -2.0291
19850TIP3   OH281040   0.811   2.319  11.330  0.0018  0.0011 -0.1144
19850TIP3    H181041   0.807   2.223  11.328  1.5620 -0.1977 -4.5811
19850TIP3    H281042   0.754   2.347  11.258 -1.6019  2.6407  1.9865
19851TIP3   OH281043   5.143   5.342   5.337 -0.4737  0.8011  0.1363
19851TIP3    H181044   5.057   5.320   5.300 -0.1393  1.7812 -1.3195
19851TIP3    H281045   5.205   5.314   5.269  0.4142 -0.2465  1.3315
19852TIP3   OH281046   3.299   0.488   0.039  0.0159 -0.1709  0.4992
19852TIP3    H181047   3.392   0.510   0.042  0.6240 -2.1805 -1.1097
19852TIP3    H281048   3.270   0.493   0.130  1.5053  1.1327  0.9550
19853TIP3   OH281049   5.419   2.408  13.853 -0.5644 -0.4987 -0.3807
19853TIP3    H181050   5.334   2.444  13.827 -1.5142 -1.2783  1.4588
19853TIP3    H281051   5.459   2.380  13.771 -1.6610  0.7286 -1.3877
19854TIP3   OH281052   6.268   2.268  16.494  0.1617 -0.0290  0.0663
19854TIP3    H181053   6.225   2.243  16.413 -1.3043  0.4614  0.6597
19854TIP3    H281054   6.217   2.226  16.563 -0.7506  2.3440  0.9243
19855TIP3   OH281055   2.372   5.952  10.083 -0.2355 -0.0177  0.4695
19855TIP3    H181056   2.308   5.929  10.150  0.3506  1.4951  1.5967
19855TIP3    H281057   2.336   6.030  10.040 -0.5663 -0.9138 -0.9714
19856TIP3   OH281058   4.481   6.112   5.203  0.1706 -0.0664 -0.3570
19856TIP3    H181059   4.422   6.113   5.127 -0.9383  1.5898  0.4760
19856TIP3    H281060   4.494   6.019   5.222 -1.6731 -0.4904 -0.9643
19857TIP3   OH281061   6.613   6.771  16.416  0.1862 -0.0379 -0.6395
19857TIP3    H181062   6.705   6.795  16.423 -0.1257  0.9455  0.4688
19857TIP3    H281063   6.572   6.844  16.368 -0.8422  2.1713  3.1036
19858TIP3   OH281064   6.391   6.776   2.744  0.2256 -0.1685 -0.0323
19858TIP3    H181065   6.312   6.740   2.703 -0.5208  0.8493  0.4586
19858TIP3    H281066   6.381   6.754   2.837 -0.4261  1.5415  0.3403
19859TIP3   OH281067   6.662   0.753  14.945 -0.7169  0.9200  0.1802
19859TIP3    H181068   6.729   0.768  14.879 -1.0195  0.6355 -0.1920
19859TIP3    H281069   6.693   0.801  15.022  0.4848 -0.1005  0.3732
19860TIP3   OH281070   2.661   1.340   4.702  0.0693  0.0056 -0.1381
19860TIP3    H181071   2.641   1.324   4.795  3.1233 -0.3836  0.5502
19860TIP3    H281072   2.577   1.365   4.664 -1.1217  1.2749  2.9558
19861TIP3   OH281073   1.154   0.245   3.049 -0.1715  0.3519  0.4218
19861TIP3    H181074   1.131   0.268   2.959 -2.6803  0.6226  1.0566
19861TIP3    H281075   1.245   0.217   3.044 -0.0499  0.9542 -2.0845
19862TIP3   OH281076   1.488   1.316  10.777  0.6057  0.0182 -0.2622
19862TIP3    H181077   1.581   1.339  10.786  0.1756  1.3083  1.4491
19862TIP3    H281078   1.452   1.324  10.865 -1.5522  1.5275 -1.1731
19863TIP3   OH281079   4.201   5.244  16.785 -0.3123 -0.0482  0.5938
19863TIP3    H181080   4.217   5.338  16.797 -3.4531  0.7120 -0.1456
19863TIP3    H281081   4.136   5.240  16.715  1.0562 -2.9556 -0.6655
19864TIP3   OH281082   1.125   3.520  14.707  0.4795  0.8994  0.0651
19864TIP3    H181083   1.031   3.526  14.693  0.6728  1.0089 -1.3461
19864TIP3    H281084   1.139   3.431  14.741 -0.0637  0.6419 -0.3668
19865TIP3   OH281085   6.459   3.568   3.584  0.3888  0.1046  0.1408
19865TIP3    H181086   6.512   3.646   3.569  0.0021  0.3659  0.1066
19865TIP3    H281087   6.385   3.577   3.523  0.3219 -0.2649  0.1664
19866TIP3   OH281088   0.173   1.108  10.422 -0.5761 -0.3481  0.4048
19866TIP3    H181089   0.267   1.110  10.440 -0.6631 -0.4656  0.8869
19866TIP3    H281090   0.164   1.042  10.353  0.1424  2.3933 -2.5658
19867TIP3   OH281091   1.749   1.075   4.274  0.4470 -0.2541  0.1105
19867TIP3    H181092   1.731   1.140   4.342  1.5371 -0.0158  0.2014
19867TIP3    H281093   1.739   0.990   4.317  2.0543 -0.1021  0.8617
19868TIP3   OH281094   0.663   6.152   1.148 -0.2113 -0.8017  0.1799
19868TIP3    H181095   0.680   6.229   1.202 -2.0070 -0.1687 -0.0813
19868TIP3    H281096   0.573   6.164   1.117 -0.2246 -2.5734 -0.5935
19869TIP3   OH281097   5.130   4.722   0.429 -0.2701 -0.9690  0.0515
19869TIP3    H181098   5.094   4.784   0.365  0.2852 -0.3425  0.3264
19869TIP3    H281099   5.221   4.751   0.441  0.1017 -2.0564 -0.0667
19870TIP3   OH281100   2.464   1.554   2.043 -0.3174  0.1046  0.9829
19870TIP3    H181101   2.449   1.647   2.059 -0.5489  0.4794 -1.1139
19870TIP3    H281102   2.553   1.538   2.072 -0.0710  1.1329  0.8176
19871TIP3   OH281103   1.830   6.031  17.152  0.9051  0.2655 -0.0620
19871TIP3    H181104   1.739   6.005  17.137  0.8130  1.0886 -0.9273
19871TIP3    H281105   1.825   6.095  17.223  0.5025  2.2275 -1.7646
19872TIP3   OH281106   5.171   4.319  13.706  0.1033 -0.1113 -0.2843
19872TIP3    H181107   5.266   4.316  13.709  0.0639 -1.2070  0.3927
19872TIP3    H281108   5.150   4.352  13.618  1.1110  2.7579  0.4384
19873TIP3   OH281109   0.479   5.084   4.210  0.3434 -0.1702 -0.2167
19873TIP3    H181110   0.491   5.076   4.304  1.6710 -0.1426 -0.3534
19873TIP3    H281111   0.392   5.120   4.199  0.6152  0.9487  1.0585
19874TIP3   OH281112   0.116   1.936   2.051  0.0882  0.4284  0.6623
19874TIP3    H181113   0.125   1.841   2.051  0.9074  0.4741 -0.8225
19874TIP3    H281114   0.048   1.954   2.115 -3.3001 -1.5033 -2.0563
19875TIP3   OH281115   1.663   6.556  15.675  0.0239 -0.0645  0.2354
19875TIP3    H181116   1.628   6.533  15.589 -1.4177  1.3147  0.4142
19875TIP3    H281117   1.602   6.517  15.738 -1.0101  1.9622  0.5618
19876TIP3   OH281118   3.499   0.764  15.157 -0.0969 -0.3826 -0.1164
19876TIP3    H181119   3.449   0.685  15.174 -1.1534  0.2328 -0.2836
19876TIP3    H281120   3.437   0.823  15.114 -0.3868  1.8423  3.0343
19877TIP3   OH281121   1.687   4.130   1.152 -0.1914 -0.9686  0.2039
19877TIP3    H181122   1.614   4.182   1.185 -0.9944 -0.0547 -2.6783
19877TIP3    H281123   1.645   4.056   1.107  0.5645 -0.1770 -1.9015
19878TIP3   OH281124   3.337   6.615  11.736  0.4429 -0.3946  0.0871
19878TIP3    H181125   3.294   6.696  11.709  2.3248  0.4650 -0.5018
19878TIP3    H281126   3.296   6.547  11.684 -0.3823  0.3390 -0.2380
19879TIP3   OH281127   6.356   1.490  16.246 -0.2762  0.2915 -0.1988
19879TIP3    H181128   6.418   1.427  16.208  1.9805  2.4752 -0.4359
19879TIP3    H281129   6.380   1.494  16.339 -1.8578 -0.7005  0.2983
19880TIP3   OH281130   6.199   0.002   6.023  0.0719 -0.6469  0.5179
19880TIP3    H181131   6.182   0.059   6.098  0.1763  0.2305 -0.1153
19880TIP3    H281132   6.117  -0.044   6.008  0.2905 -1.4744  1.6932
19881TIP3   OH281133   2.237   3.535  11.313  0.2586 -0.3020  0.4618
19881TIP3    H181134   2.292   3.524  11.390  0.0396  1.5531  0.9189
19881TIP3    H281135   2.267   3.617  11.273 -0.8873 -0.2623 -0.3673
19882TIP3   OH281136   4.866   6.501   2.783 -0.7138 -0.3249 -0.2337
19882TIP3    H181137   4.919   6.422   2.772  0.0894  0.3101 -1.0841
19882TIP3    H281138   4.914   6.569   2.736 -0.9303  0.8991  1.2498
19883TIP3   OH281139   1.050   1.805   2.527 -0.8342 -0.3292 -0.4810
19883TIP3    H181140   0.987   1.795   2.456 -2.0333 -1.1326  0.6619
19883TIP3    H281141   1.001   1.848   2.597  0.2007  0.0436  0.0358
19884TIP3   OH281142   2.829   4.868   1.364 -0.2723  0.2443 -0.8213
19884TIP3    H181143   2.750   4.819   1.386 -0.1224  1.0901  1.9734
19884TIP3    H281144   2.801   4.960   1.366  0.9174  0.6315  1.3214
19885TIP3   OH281145   4.909   5.385  15.141 -0.1458  0.6955 -0.1675
19885TIP3    H181146   4.831   5.439  15.151 -0.8001 -0.5421  1.9655
19885TIP3    H281147   4.982   5.446  15.154 -0.7577  1.6175 -0.8908
19886TIP3   OH281148   4.427   5.273   4.537 -0.1713  0.2989 -0.0103
19886TIP3    H181149   4.516   5.286   4.505  0.8549  1.4090  3.0302
19886TIP3    H281150   4.414   5.178   4.535  1.3074  0.0797  0.1132
19887TIP3   OH281151   1.723   2.253   2.910  0.0874 -0.6774 -0.1253
19887TIP3    H181152   1.713   2.348   2.901 -1.3124 -0.6754  1.1971
19887TIP3    H281153   1.794   2.242   2.973  0.1299 -0.5088 -0.1431
19888TIP3   OH281154   2.707   4.920   3.363  0.0890  0.4934  0.1415
19888TIP3    H181155   2.722   4.842   3.309  0.2096  0.8870 -0.4040
19888TIP3    H281156   2.788   4.970   3.356 -0.4898  1.3593 -0.6885
19889TIP3   OH281157   0.964   2.505  14.642 -0.4424  0.0349 -0.2888
19889TIP3    H181158   1.005   2.588  14.668  1.1390 -0.4090 -1.2557
19889TIP3    H281159   0.919   2.475  14.721  1.3089  0.4245  0.9113
19890TIP3   OH281160   1.428   2.676   3.670  0.3854 -0.0779  0.3015
19890TIP3    H181161   1.358   2.696   3.732  0.8687  0.0793  0.8070
19890TIP3    H281162   1.435   2.580   3.671 -0.8458 -0.2093 -0.9110
19891TIP3   OH281163   1.689   6.626   3.168  0.4854  0.7715  0.1548
19891TIP3    H181164   1.651   6.624   3.256 -0.4701  0.5218 -0.2552
19891TIP3    H281165   1.781   6.603   3.181  0.1594 -0.1264  0.9989
19892TIP3   OH281166   5.775   4.462  16.339  0.7323  0.8883  0.1125
19892TIP3    H181167   5.698   4.512  16.367 -0.3538 -0.9252  0.5469
19892TIP3    H281168   5.746   4.412  16.263  2.4773  2.6084 -1.8235
19893TIP3   OH281169   4.091   1.269  11.253 -0.6517  0.6486  0.7941
19893TIP3    H181170   4.161   1.293  11.193 -0.9598  0.9877  0.5668
19893TIP3    H281171   4.012   1.269  11.199 -0.4307 -3.3681  0.1154
19894TIP3   OH281172   3.689   1.554   1.266  0.4070  0.0402 -0.0294
19894TIP3    H181173   3.623   1.526   1.329  1.8022 -0.9165  1.0770
19894TIP3    H281174   3.757   1.595   1.319  0.7740  0.8870 -1.1187
19895TIP3   OH281175   2.911   6.308  13.982  0.2232  0.3074  0.0633
19895TIP3    H181176   2.905   6.221  13.942 -2.0339  0.4568 -0.0559
19895TIP3    H281177   3.005   6.327  13.984  0.6720 -1.4591 -1.3479
19896TIP3   OH281178   1.349   2.546  16.238 -0.3513  0.3662  0.1847
19896TIP3    H181179   1.407   2.534  16.314 -1.1826  2.3618  1.2140
19896TIP3    H281180   1.276   2.487  16.254 -0.5608  0.8303  1.0260
19897TIP3   OH281181   3.484   2.439   5.663 -0.0777 -0.2424  0.2375
19897TIP3    H181182   3.430   2.407   5.736  0.0529  0.2358  0.5498
19897TIP3    H281183   3.513   2.359   5.618  0.9681 -0.6290  1.5189
19898TIP3   OH281184   0.856   3.762   2.791  0.1280  0.4654  0.9747
19898TIP3    H181185   0.902   3.678   2.788 -0.1295  0.3364  0.2949
19898TIP3    H281186   0.786   3.753   2.726  0.8804  1.6520 -0.0479
19899TIP3   OH281187   2.026   6.484   5.395  0.2989 -0.0375  0.3803
19899TIP3    H181188   2.098   6.474   5.457  2.1415 -0.7564 -1.7532
19899TIP3    H281189   2.068   6.505   5.312 -2.0326  0.4366 -0.7781
19900TIP3   OH281190   0.097   4.642  16.014 -0.1139 -0.2791 -0.4204
19900TIP3    H181191   0.156   4.653  15.940  0.5202 -1.2138 -0.0703
19900TIP3    H281192   0.068   4.551  16.008 -0.1411 -0.3323  0.4207
19901TIP3   OH281193   3.857   4.895   3.279  0.4870 -0.4909  0.3081
19901TIP3    H181194   3.800   4.822   3.254 -1.6642  1.3986 -0.6514
19901TIP3    H281195   3.852   4.898   3.374  0.9116 -1.7851  0.3943
19902TIP3   OH281196   1.579   0.041  11.824  0.2023 -0.1126 -0.3519
19902TIP3    H181197   1.533  -0.007  11.755  0.2591  1.2751 -1.3962
19902TIP3    H281198   1.528   0.024  11.903  0.2001 -1.8289 -0.6894
19903TIP3   OH281199   1.995   5.430  13.135  0.3064 -0.2781  0.3493
19903TIP3    H181200   2.042   5.386  13.205 -0.3187  0.7459  1.4573
19903TIP3    H281201   1.960   5.510  13.175 -3.0747 -1.3368 -0.1374
19904TIP3   OH281202   0.286   3.868   4.194 -0.3253  0.0160 -0.0600
19904TIP3    H181203   0.262   3.897   4.106  0.5929 -1.9797 -1.0510
19904TIP3    H281204   0.367   3.818   4.181  0.1394  0.1487  2.0268
19905TIP3   OH281205   4.805   0.162   0.468  0.1548 -0.0028 -0.8306
19905TIP3    H181206   4.774   0.189   0.382 -1.4045 -1.4570 -0.7779
19905TIP3    H281207   4.857   0.083   0.452  0.3965  0.0824 -0.4914
19906TIP3   OH281208   2.440   2.411   5.434 -0.2070 -0.2713 -0.2698
19906TIP3    H181209   2.365   2.393   5.490  0.3151  2.1934  1.4140
19906TIP3    H281210   2.515   2.377   5.482  0.0265 -0.2310 -0.5982
19907TIP3   OH281211   6.711   6.640   1.493  0.0277 -0.3984  0.0737
19907TIP3    H181212   6.764   6.705   1.539 -1.7492  1.2250  0.0001
19907TIP3    H281213   6.716   6.561   1.547 -0.0619  0.7046  1.7695
19908TIP3   OH281214   6.588   2.548  14.971  0.1457 -0.0594  0.5118
19908TIP3    H181215   6.646   2.611  14.930  1.1349  0.0892  2.0728
19908TIP3    H281216   6.562   2.489  14.899  1.8427  0.1375 -0.3135
19909TIP3   OH281217   0.523   2.969  15.233 -0.0368 -0.3915 -0.6458
19909TIP3    H181218   0.524   2.890  15.180 -0.3793 -2.0978  1.7139
19909TIP3    H281219   0.440   2.966  15.279 -0.5907  2.0164 -1.3489
19910TIP3   OH281220   5.916   2.454  11.728 -0.1273 -0.3347  0.0627
19910TIP3    H181221   5.880   2.375  11.688 -2.7966  0.4409  0.7107
19910TIP3    H281222   5.855   2.475  11.799  2.3324  0.4805  2.0727
19911TIP3   OH281223   4.757   3.639   5.191 -0.0131 -0.1586 -0.4544
19911TIP3    H181224   4.800   3.556   5.211 -0.8851 -0.5088 -0.0124
19911TIP3    H281225   4.732   3.675   5.276  2.5990  1.8367 -0.3907
19912TIP3   OH281226   2.563   6.437   4.296  0.1640  0.5109  0.0159
19912TIP3    H181227   2.574   6.527   4.267  1.3281  0.2885 -0.3206
19912TIP3    H281228   2.499   6.441   4.368  0.6389  1.6774  0.3896
19913TIP3   OH281229   5.182   5.388  13.889  0.0587 -0.1355 -0.0306
19913TIP3    H181230   5.122   5.337  13.835  0.7138 -4.0858  2.5531
19913TIP3    H281231   5.131   5.413  13.965  0.2079  1.7644 -0.5115
19914TIP3   OH281232   0.665   4.723  14.623  0.4631  0.0027 -0.1162
19914TIP3    H181233   0.663   4.657  14.553 -0.0924 -0.6882  0.5245
19914TIP3    H281234   0.727   4.688  14.687 -0.6864 -0.5082  0.7737
19915TIP3   OH281235   5.746   5.980  12.564 -0.1694  0.2151  0.1607
19915TIP3    H181236   5.674   5.917  12.570 -0.4923  0.6682  1.7170
19915TIP3    H281237   5.729   6.029  12.484 -0.6612 -0.7767 -0.3571
19916TIP3   OH281238   5.429   0.838  12.445  0.0554 -0.2939  0.7464
19916TIP3    H181239   5.426   0.918  12.391  1.4268 -0.1460  0.8705
19916TIP3    H281240   5.346   0.839  12.493 -0.6398  0.2298 -0.4171
19917TIP3   OH281241   2.131   2.291   6.073  0.2218 -0.1101 -0.2554
19917TIP3    H181242   2.060   2.352   6.055 -0.0525 -0.6154 -0.9400
19917TIP3    H281243   2.206   2.327   6.026  0.1974 -0.0202 -0.2253
19918TIP3   OH281244   1.257   2.742   3.860 -0.4740 -0.0123  0.4550
19918TIP3    H181245   1.212   2.666   3.898  0.1028 -0.4885  0.2067
19918TIP3    H281246   1.208   2.818   3.892 -0.9856 -0.4847  0.8065
19919TIP3   OH281247   1.099   4.480  13.660 -0.1985 -0.2165 -0.2909
19919TIP3    H181248   1.011   4.516  13.655  0.4325  1.5255  0.3559
19919TIP3    H281249   1.108   4.450  13.750 -0.1719 -0.5264 -0.3950
19920TIP3   OH281250   0.030   1.126   3.441 -0.0159 -0.6658 -0.3095
19920TIP3    H181251   0.088   1.144   3.515 -2.4291 -1.1443  1.8975
19920TIP3    H281252  -0.007   1.212   3.418  0.1786 -0.6147 -0.4254
19921TIP3   OH281253   5.134   4.380  15.913  0.3528  0.1145  0.1182
19921TIP3    H181254   5.153   4.474  15.912  0.7198  0.0457 -0.9773
19921TIP3    H281255   5.173   4.349  15.994  1.2436  0.7171 -0.0620
19922TIP3   OH281256   2.342   0.925   3.294  0.2890 -0.0093  0.2329
19922TIP3    H181257   2.257   0.921   3.338  0.3880 -0.4117  0.3932
19922TIP3    H281258   2.334   0.863   3.221  0.2347  0.4148 -0.1244
19923TIP3   OH281259   2.518   1.267   1.388 -0.3963 -0.0442 -0.3296
19923TIP3    H181260   2.518   1.314   1.471  1.2122 -1.8134  0.7636
19923TIP3    H281261   2.584   1.311   1.334 -0.4232  0.2362 -0.1337
19924TIP3   OH281262   0.445   4.079  17.281  0.1793  0.0913 -0.1215
19924TIP3    H181263   0.436   4.106  17.373  1.7490  0.3274 -0.0129
19924TIP3    H281264   0.501   4.001  17.284 -0.5489 -0.4801 -0.8197
19925TIP3   OH281265   5.121   4.403   1.432 -0.3359  0.1330 -0.1242
19925TIP3    H181266   5.086   4.492   1.436  0.8116  0.5555  1.3500
19925TIP3    H281267   5.075   4.363   1.358 -1.8736  1.5059  0.0235
19926TIP3   OH281268   0.475   2.242   6.288 -0.1017  0.6253 -0.2853
19926TIP3    H181269   0.467   2.204   6.201 -2.8266  2.7492 -1.0832
19926TIP3    H281270   0.450   2.171   6.348  2.8453 -1.1974 -1.0126
19927TIP3   OH281271   0.982   4.168   4.329  0.4319  0.1177  0.1644
19927TIP3    H181272   0.936   4.174   4.413  0.1111  0.7868 -0.0504
19927TIP3    H281273   1.052   4.233   4.335 -0.2039  0.8924 -0.4444
19928TIP3   OH281274   0.746   4.694   6.119 -0.1501  0.9173  0.2033
19928TIP3    H181275   0.660   4.654   6.126  0.2020 -0.5115 -2.3988
19928TIP3    H281276   0.807   4.630   6.156 -0.0571  1.3522  0.8232
19929TIP3   OH281277   3.916   1.148  11.801  0.2952  0.1358  0.1520
19929TIP3    H181278   3.947   1.059  11.816  2.3746  0.3398 -2.2813
19929TIP3    H281279   3.943   1.196  11.879 -2.4778 -1.5876  2.3811
19930TIP3   OH281280   0.151   0.081   4.484  0.2196  0.7373 -0.5759
19930TIP3    H181281   0.233   0.062   4.439  1.7484 -0.5698  2.4907
19930TIP3    H281282   0.162   0.171   4.515  1.0233  0.2134  0.7407
19931TIP3   OH281283   6.189   0.392   4.676 -0.0245  0.1227 -0.5943
19931TIP3    H181284   6.190   0.452   4.751 -0.5861 -1.4583  0.7219
19931TIP3    H281285   6.238   0.439   4.608  3.3005  0.4167  1.7202
19932TIP3   OH281286   0.579   2.104  10.669 -0.1771  0.0676  0.0723
19932TIP3    H181287   0.624   2.035  10.620 -2.6402 -0.1644 -2.0621
19932TIP3    H281288   0.514   2.057  10.722 -1.5989  0.6634 -1.0939
19933TIP3   OH281289   0.768   5.256   3.621 -0.3851 -0.3909 -0.7197
19933TIP3    H181290   0.684   5.283   3.658  0.1818  0.1383  0.1931
19933TIP3    H281291   0.796   5.330   3.567  1.3309  1.1580  2.0462
19934TIP3   OH281292   6.079   4.279  12.806  0.1246 -0.4289 -0.4127
19934TIP3    H181293   6.106   4.356  12.856 -1.0816 -1.9081  2.8002
19934TIP3    H281294   6.152   4.218  12.814  0.1288 -0.4883 -0.8893
19935TIP3   OH281295   6.275   5.965   6.676  0.4343 -0.6714 -0.1755
19935TIP3    H181296   6.351   6.006   6.718 -1.2101 -0.0085  2.4253
19935TIP3    H281297   6.290   5.871   6.688  1.0503 -0.5639 -0.0588
19936TIP3   OH281298   1.329   4.849   3.615  0.6221  0.2423  0.4761
19936TIP3    H181299   1.335   4.896   3.698 -1.3649  1.8402 -0.1832
19936TIP3    H281300   1.372   4.906   3.552 -3.2149  2.2996 -0.6516
19937TIP3   OH281301   1.270   1.966  14.168 -0.1330 -0.1299 -0.2752
19937TIP3    H181302   1.239   2.012  14.090 -0.5417 -0.8261 -0.5329
19937TIP3    H281303   1.244   2.022  14.240 -0.3645  0.1913 -0.6035
19938TIP3   OH281304   0.856   1.723  11.442 -0.6096 -0.1706 -0.1506
19938TIP3    H181305   0.800   1.663  11.394  0.0554  0.0141 -1.2038
19938TIP3    H281306   0.799   1.797  11.464 -0.5250  0.6234 -2.3458
19939TIP3   OH281307   0.670   2.457  15.088 -0.3332 -0.1525 -0.4056
19939TIP3    H181308   0.670   2.507  15.169 -0.4471 -1.0393  0.1494
19939TIP3    H281309   0.638   2.370  15.113 -0.3144 -0.4519 -1.3861
19940TIP3   OH281310   4.723   3.154   3.016  0.0330  0.1401 -0.8069
19940TIP3    H181311   4.708   3.160   3.110  2.1733  0.5318 -0.4530
19940TIP3    H281312   4.679   3.232   2.980  1.0863  1.2160  0.1569
19941TIP3   OH281313   6.472   2.830   5.853  0.5724  0.3889 -0.0675
19941TIP3    H181314   6.395   2.815   5.908  0.8545  0.4089  0.3327
19941TIP3    H281315   6.443   2.807   5.765  0.2742 -0.1438  0.1664
19942TIP3   OH281316   3.539   3.334   1.489  0.0466 -0.1258  0.5231
19942TIP3    H181317   3.479   3.307   1.420 -0.7227 -1.8963  1.8274
19942TIP3    H281318   3.555   3.255   1.540 -0.4382  1.3486  3.1522
19943TIP3   OH281319   4.354   0.615  14.317  0.2734  0.2215  0.3297
19943TIP3    H181320   4.284   0.587  14.376  1.3036  0.0270  1.4966
19943TIP3    H281321   4.313   0.682  14.262 -1.4197 -1.4342 -0.5243
19944TIP3   OH281322   2.460   4.152   0.629 -0.4349  0.3247 -0.0456
19944TIP3    H181323   2.399   4.184   0.696  0.1916  1.2044  0.1214
19944TIP3    H281324   2.546   4.179   0.661  0.1168 -1.3274 -0.0229
19945TIP3   OH281325   4.496   5.048  15.628 -0.2817 -0.6711 -0.2675
19945TIP3    H181326   4.432   5.015  15.565  0.8638 -1.1451 -1.2064
19945TIP3    H281327   4.550   4.972  15.650 -0.1041 -0.3095  0.6201
19946TIP3   OH281328   5.769   0.776  11.471  0.2290 -0.5505  0.4834
19946TIP3    H181329   5.738   0.866  11.482  2.5762  0.2892  0.8467
19946TIP3    H281330   5.715   0.740  11.401 -1.3961  0.8086  0.9765
19947TIP3   OH281331   5.385   2.379   1.683 -0.0720 -0.0153  0.5653
19947TIP3    H181332   5.438   2.416   1.754 -2.2172  1.2210  1.6259
19947TIP3    H281333   5.341   2.455   1.644 -1.5122 -1.0314  0.1368
19948TIP3   OH281334   6.337   5.288   5.530 -0.2953  0.5052  0.6822
19948TIP3    H181335   6.393   5.217   5.561 -0.6657  0.9500  2.4935
19948TIP3    H281336   6.251   5.247   5.517 -0.3012  0.4374  0.9202
19949TIP3   OH281337   3.665   0.174   0.855  0.1749 -0.2536 -0.5368
19949TIP3    H181338   3.692   0.255   0.897  3.7568 -0.3511 -2.2755
19949TIP3    H281339   3.698   0.104   0.912 -2.4032 -0.5984  0.6658
19950TIP3   OH281340   2.905   3.673   0.033 -0.6484  0.3447 -0.2740
19950TIP3    H181341   2.976   3.666   0.096 -1.2416  1.7260  0.5896
19950TIP3    H281342   2.869   3.761   0.047 -2.8452 -0.4833 -0.3333
19951TIP3   OH281343   6.461   5.168  13.198 -0.6346 -0.2367 -0.6104
19951TIP3    H181344   6.454   5.228  13.124  1.2169 -0.6573 -1.1722
19951TIP3    H281345   6.554   5.167  13.220 -1.1163 -0.2513  1.6376
19952TIP3   OH281346   5.806   6.643  14.020 -0.1085  0.2003 -0.4280
19952TIP3    H181347   5.892   6.683  14.007 -0.6830  1.3530 -0.7522
19952TIP3    H281348   5.804   6.570  13.957  1.4694 -1.2564  1.1150
19953TIP3   OH281349   4.523   4.277  14.848  0.5242 -0.0297  0.0508
19953TIP3    H181350   4.534   4.217  14.775  0.6460  0.0934 -0.0338
19953TIP3    H281351   4.574   4.238  14.919  0.2044 -0.2753  0.1465
19954TIP3   OH281352   5.531   0.468  14.150 -0.0905  0.0635  0.0800
19954TIP3    H181353   5.475   0.419  14.209  1.0369 -4.1091 -1.8951
19954TIP3    H281354   5.488   0.461  14.064  1.5223  0.0292 -0.7755
19955TIP3   OH281355   3.455   0.207  10.731 -0.4724 -0.4692  0.0492
19955TIP3    H181356   3.380   0.156  10.698 -0.6021 -0.4106  0.2548
19955TIP3    H281357   3.531   0.168  10.687 -0.6695 -0.2362 -0.5098
19956TIP3   OH281358   6.437   4.243   1.303 -0.1442  0.1474  0.0639
19956TIP3    H181359   6.405   4.331   1.324 -1.9860 -0.6143  0.5902
19956TIP3    H281360   6.488   4.217   1.380 -0.4296  0.3590  0.3248
19957TIP3   OH281361   5.253   5.831  16.663  0.0363  0.7898 -0.1885
19957TIP3    H181362   5.282   5.749  16.703 -1.1098  0.2500 -0.4259
19957TIP3    H281363   5.254   5.894  16.735  1.4351  0.7243 -0.1180
19958TIP3   OH281364   1.148   5.110   5.428 -0.5982  0.3394  0.5327
19958TIP3    H181365   1.072   5.113   5.370  1.3575  1.0604 -2.1854
19958TIP3    H281366   1.216   5.159   5.382  1.6034 -0.4109  2.7371
19959TIP3   OH281367   1.284   2.911  16.936 -0.3287  0.4455 -0.2259
19959TIP3    H181368   1.303   3.001  16.907  1.8675 -0.5975 -2.3879
19959TIP3    H281369   1.218   2.880  16.875  1.3417 -0.4103 -1.7101
19960TIP3   OH281370   0.356   0.730  14.835  0.5017 -0.0647  0.0147
19960TIP3    H181371   0.338   0.662  14.899 -0.8799  2.0118  1.9987
19960TIP3    H281372   0.371   0.809  14.887 -0.6937  1.7395 -2.1924
19961TIP3   OH281373   5.128   0.616  12.807  0.1372 -0.6882  0.8650
19961TIP3    H181374   5.105   0.650  12.893  1.6502 -2.8442  2.2344
19961TIP3    H281375   5.223   0.628  12.801 -0.0764  0.5287 -1.0874
19962TIP3   OH281376   0.928   3.875   4.422 -0.0490  0.2870  0.0999
19962TIP3    H181377   0.881   3.953   4.451 -1.0261  0.0853 -0.8471
19962TIP3    H281378   0.919   3.813   4.495  0.3909  0.9153  0.6928
19963TIP3   OH281379   0.972   5.327  10.523 -0.0240  0.4907 -0.1735
19963TIP3    H181380   0.983   5.367  10.609  0.1585  0.1015 -0.0156
19963TIP3    H281381   0.889   5.279  10.530 -1.2279  2.3260 -0.9410
19964TIP3   OH281382   4.422   6.142  17.255 -0.0708 -0.5223 -0.0858
19964TIP3    H181383   4.368   6.119  17.331  0.8405  1.2377  1.1567
19964TIP3    H281384   4.484   6.207  17.288  0.8340 -0.2313 -2.1906
19965TIP3   OH281385   1.134   4.571  15.561 -0.1069  0.4748  0.5646
19965TIP3    H181386   1.087   4.643  15.519 -0.4893 -0.5393 -0.8235
19965TIP3    H281387   1.070   4.529  15.617 -0.7166 -0.4968 -0.8130
19966TIP3   OH281388   2.361   3.371  10.643  0.0426 -0.0241  0.0536
19966TIP3    H181389   2.296   3.317  10.688 -0.8738 -0.3678 -1.5950
19966TIP3    H281390   2.314   3.406  10.567  1.9880 -0.9750 -1.6762
19967TIP3   OH281391   2.537   1.222   3.286  0.5857 -0.2131  0.0454
19967TIP3    H181392   2.460   1.166   3.277  0.9004 -0.4092 -1.7453
19967TIP3    H281393   2.608   1.162   3.307  0.9457 -0.5652 -1.9848
19968TIP3   OH281394   6.563   4.640  12.872  0.1115  0.3525  0.0456
19968TIP3    H181395   6.640   4.606  12.917  0.6747  1.1221 -0.3037
19968TIP3    H281396   6.582   4.625  12.779 -0.2235  0.4087 -0.0310
19969TIP3   OH281397   5.378   3.467  15.625 -0.3517  0.1772  0.1803
19969TIP3    H181398   5.374   3.548  15.575  1.3253 -0.4707 -1.1086
19969TIP3    H281399   5.310   3.412  15.588 -0.0266  0.2025 -0.4558
19970TIP3   OH281400   1.998   4.646  11.174 -0.7010  0.0145  0.5147
19970TIP3    H181401   1.987   4.639  11.269 -1.4869  1.1135  0.5362
19970TIP3    H281402   1.924   4.701  11.146 -0.4981 -0.3162 -0.7380
19971TIP3   OH281403   0.975   3.714   5.528 -0.1041 -0.4886  0.1667
19971TIP3    H181404   0.930   3.787   5.485 -2.4651 -0.1790  2.8506
19971TIP3    H281405   1.060   3.749   5.554 -1.4114  1.5773  1.8959
19972TIP3   OH281406   5.770   5.632  12.658  0.4047  0.1421  0.0914
19972TIP3    H181407   5.701   5.688  12.692 -0.8741 -1.8136  0.9413
19972TIP3    H281408   5.766   5.643  12.563 -2.1903 -1.0243 -0.0258
19973TIP3   OH281409   5.013   4.200  14.393  0.5197  0.2285  0.0733
19973TIP3    H181410   4.986   4.275  14.340 -0.5286 -1.7544 -2.3904
19973TIP3    H281411   5.100   4.178  14.360 -0.4003 -1.4148 -1.4458
19974TIP3   OH281412   3.758   3.846  15.203 -0.0459 -0.1914  0.3551
19974TIP3    H181413   3.736   3.939  15.191  0.6832  0.1850  1.7154
19974TIP3    H281414   3.772   3.814  15.114 -3.0674  0.2527 -0.3734
19975TIP3   OH281415   2.534   1.413   0.049  0.3698  0.4104 -0.2945
19975TIP3    H181416   2.511   1.502   0.075 -0.0915 -0.0901  1.0818
19975TIP3    H281417   2.455   1.362   0.067  0.9395 -0.4441 -0.1617
19976TIP3   OH281418   4.749   3.741  12.475  0.2111  0.2168 -0.6034
19976TIP3    H181419   4.761   3.684  12.400  1.6212  0.2393 -0.4257
19976TIP3    H281420   4.802   3.700  12.544  0.5652  1.2797 -0.2310
19977TIP3   OH281421   3.741   5.860  10.931 -0.1179  0.5940 -0.4149
19977TIP3    H181422   3.680   5.934  10.929 -0.1683  0.5767  0.2887
19977TIP3    H281423   3.707   5.802  10.999 -0.0462 -0.0552 -0.9229
19978TIP3   OH281424   5.365   1.831   2.927 -0.0416 -0.7260 -0.6731
19978TIP3    H181425   5.325   1.893   2.866 -1.2397 -0.2776  0.5317
19978TIP3    H281426   5.302   1.758   2.931 -0.2396 -0.5077  0.4152
19979TIP3   OH281427   2.208   6.818  12.563 -0.4565 -0.0274 -0.0533
19979TIP3    H181428   2.129   6.797  12.613 -0.9012  2.8248  0.6238
19979TIP3    H281429   2.195   6.909  12.536  2.3043  0.2899 -0.5553
19980TIP3   OH281430   2.543   1.248  13.569  0.2014 -0.3133  0.0940
19980TIP3    H181431   2.575   1.248  13.659  0.8971  0.4545 -0.1400
19980TIP3    H281432   2.570   1.164  13.533 -0.8060 -0.9761  0.8362
19981TIP3   OH281433   5.661   2.641   2.754 -0.6175 -0.3515 -0.3890
19981TIP3    H181434   5.566   2.653   2.757 -0.5440  0.0771  0.8404
19981TIP3    H281435   5.681   2.625   2.662 -1.9074 -0.6763 -0.6204
19982TIP3   OH281436   6.269   3.313   4.950 -0.1731  0.0022 -0.0836
19982TIP3    H181437   6.282   3.408   4.959  1.0532 -0.0583 -0.9930
19982TIP3    H281438   6.243   3.285   5.038  0.1922  1.0743  0.3967
19983TIP3   OH281439   6.479   2.885  16.390  0.6252  0.1141  0.1188
19983TIP3    H181440   6.539   2.872  16.316 -0.8414  0.4084 -1.1918
19983TIP3    H281441   6.461   2.979  16.390  1.2438  0.2442  1.3903
19984TIP3   OH281442   5.309   0.933   4.623 -0.0168  0.1774 -0.0168
19984TIP3    H181443   5.376   0.996   4.599  1.1525 -0.5375  1.2444
19984TIP3    H281444   5.248   0.933   4.549  0.5521  1.9398 -0.5200
19985TIP3   OH281445   6.787   0.358   3.008  0.3015  0.0185  0.4533
19985TIP3    H181446   6.878   0.340   2.984  0.1799 -0.2576  0.1931
19985TIP3    H281447   6.759   0.281   3.056  0.4280  0.4137  1.1692
19986TIP3   OH281448   6.163   1.846  13.414 -0.1802 -0.2703  0.2698
19986TIP3    H181449   6.251   1.809  13.403 -0.1995 -0.6564  1.2870
19986TIP3    H281450   6.177   1.926  13.465 -0.4879 -0.8319  1.2738
19987TIP3   OH281451   0.175   3.619   1.650  0.2572 -0.4878 -0.2060
19987TIP3    H181452   0.105   3.574   1.603  1.7855 -2.7852 -0.4379
19987TIP3    H281453   0.217   3.674   1.584 -0.4672 -0.1354 -0.3840
19988TIP3   OH281454   5.128   6.185  15.580 -0.8090 -0.2141 -0.0702
19988TIP3    H181455   5.206   6.142  15.614 -0.2497  0.6180 -0.2736
19988TIP3    H281456   5.123   6.158  15.489 -1.4053 -1.1698  0.2384
19989TIP3   OH281457   5.839   5.769   2.559  0.3461  0.2125  0.2417
19989TIP3    H181458   5.894   5.717   2.500 -1.1158  2.0970 -3.1039
19989TIP3    H281459   5.791   5.703   2.610  1.4105 -1.5945 -0.9440
19990TIP3   OH281460   6.341   3.970  14.119  1.2115 -0.2301  0.2059
19990TIP3    H181461   6.392   4.003  14.044  1.1933 -1.4065 -0.3412
19990TIP3    H281462   6.396   3.902  14.157  0.9664 -0.0367  0.9302
19991TIP3   OH281463   2.672   0.506   2.389  0.1494  0.0992  0.6097
19991TIP3    H181464   2.764   0.509   2.362  0.3125 -1.2515  0.9258
19991TIP3    H281465   2.623   0.499   2.308  0.2010  2.1687  0.3455
19992TIP3   OH281466   3.619   0.933   2.499  0.3047  0.2655 -0.0771
19992TIP3    H181467   3.560   0.930   2.575 -1.0139  2.3173 -0.9279
19992TIP3    H281468   3.610   1.022   2.465  1.8640 -0.1945 -1.8813
19993TIP3   OH281469   2.068   5.075  12.943 -0.3039 -0.5157  0.6095
19993TIP3    H181470   2.050   5.025  12.864 -0.8587  0.7504 -0.1018
19993TIP3    H281471   2.163   5.086  12.944 -0.4333  1.2034 -1.0291
19994TIP3   OH281472   3.180   4.441  14.700  0.0324  0.0370  0.0016
19994TIP3    H181473   3.258   4.386  14.701  0.5310  0.7187 -0.5625
19994TIP3    H281474   3.211   4.526  14.730 -0.5718  0.2191  0.1238
19995TIP3   OH281475   5.804   1.667  16.845 -0.4772  1.0295 -0.2004
19995TIP3    H181476   5.836   1.692  16.759  1.0034 -0.9638 -0.3035
19995TIP3    H281477   5.725   1.615  16.827 -0.3298  0.8535 -0.3457
19996TIP3   OH281478   6.682   1.731   4.159  0.2397  0.0281 -0.3997
19996TIP3    H181479   6.668   1.798   4.226 -1.2890 -0.4349 -0.2195
19996TIP3    H281480   6.617   1.664   4.179  1.7547 -1.5557 -0.5491
19997TIP3   OH281481   4.677   1.409  13.994  0.8538  0.6115 -0.4810
19997TIP3    H181482   4.686   1.419  13.899 -0.5301  0.7488 -0.6065
19997TIP3    H281483   4.637   1.490  14.023  2.7165  1.2558  0.4800
19998TIP3   OH281484   1.028   6.368  13.129 -0.6131  0.0980  0.1806
19998TIP3    H181485   0.960   6.431  13.104 -0.4786  0.4749  0.7362
19998TIP3    H281486   1.110   6.413  13.108 -0.4804  0.6752  1.8414
19999TIP3   OH281487   0.643   6.745   0.211 -0.3554 -0.2320 -0.2601
19999TIP3    H181488   0.678   6.667   0.166  2.7292  0.4267  0.7428
19999TIP3    H281489   0.631   6.809   0.140 -1.5630 -1.1176 -0.8993
20000TIP3   OH281490   0.192   3.349  14.207 -0.5619  0.3781  0.3770
20000TIP3    H181491   0.225   3.422  14.155  1.5758 -0.3412  0.6237
20000TIP3    H281492   0.263   3.285  14.207 -2.8813 -2.4665 -1.1479
20001TIP3   OH281493   3.423   5.599  14.887 -0.3948 -0.5137  0.6235
20001TIP3    H181494   3.500   5.621  14.834 -0.3362 -0.1752  0.8489
20001TIP3    H281495   3.382   5.683  14.906 -1.2360 -0.7388 -0.1073
20002TIP3   OH281496   3.577   0.257  17.302 -0.9907 -0.5403 -0.2326
20002TIP3    H181497   3.504   0.200  17.279  0.0363 -1.6084 -0.9687
20002TIP3    H281498   3.589   0.244  17.396 -1.4796 -0.6595 -0.1827
20003TIP3   OH281499   2.177   4.498   5.257  0.3359 -0.1300 -0.4237
20003TIP3    H181500   2.204   4.504   5.349  1.2046  0.4928 -0.7053
20003TIP3    H281501   2.142   4.410   5.248  1.8113 -0.8099  0.1035
20004TIP3   OH281502   4.365   6.396  13.992 -0.0835  0.4265  0.5650
20004TIP3    H181503   4.440   6.338  13.978 -1.5805 -1.2917 -0.6541
20004TIP3    H281504   4.361   6.450  13.913 -1.0670 -0.6257 -0.1338
20005TIP3   OH281505   6.469   3.219   4.552 -0.6578  0.4294 -0.3284
20005TIP3    H181506   6.452   3.125   4.556 -0.3512  0.3803 -0.1676
20005TIP3    H281507   6.399   3.259   4.602  0.7483  0.1061  2.0444
20006TIP3   OH281508   1.500   6.699  16.479 -0.1991  0.5772 -0.5538
20006TIP3    H181509   1.425   6.668  16.530  0.3419 -0.6101 -0.4484
20006TIP3    H281510   1.559   6.737  16.545  0.1082 -0.1683 -0.3863
20007TIP3   OH281511   5.958   2.029   2.212  0.4143 -0.3197 -0.1491
20007TIP3    H181512   5.939   2.002   2.302  3.8456 -0.7231  0.6156
20007TIP3    H281513   5.915   1.963   2.158  0.5650 -1.7000  1.3243
20008TIP3   OH281514   5.101   4.277   1.194 -1.1288 -0.2818 -0.6324
20008TIP3    H181515   5.151   4.218   1.251 -1.6282  0.4381  0.5786
20008TIP3    H281516   5.166   4.314   1.135 -0.6670 -1.3625 -0.8280
20009TIP3   OH281517   5.039   2.265   4.391  0.1713 -0.0644 -0.4614
20009TIP3    H181518   4.993   2.324   4.331 -1.2784 -1.9325 -1.3302
20009TIP3    H281519   5.089   2.207   4.333  2.8673  1.2204  0.4381
20010TIP3   OH281520   2.889   0.157   3.938  0.8446  0.1567 -0.0474
20010TIP3    H181521   2.906   0.090   4.003 -1.9487 -1.1343 -0.4826
20010TIP3    H281522   2.814   0.206   3.973  0.4121  0.5650 -1.4710
20011TIP3   OH281523   3.475   2.422   2.331  0.3210  0.2069 -0.0239
20011TIP3    H181524   3.518   2.506   2.347  2.3915 -0.9106  0.7580
20011TIP3    H281525   3.528   2.381   2.263 -0.3703 -0.6595 -0.0587
20012TIP3   OH281526   6.258   4.509   3.829  0.0975  0.2992  0.0488
20012TIP3    H181527   6.325   4.460   3.781  0.2110  0.2191  0.2871
20012TIP3    H281528   6.178   4.498   3.777 -0.3213 -1.6465  1.0064
20013TIP3   OH281529   2.303   0.304   0.520 -0.2982  0.1550 -0.1268
20013TIP3    H181530   2.365   0.244   0.478 -1.5367 -0.3130 -1.3684
20013TIP3    H281531   2.344   0.390   0.510 -0.2489 -0.0195 -1.7967
20014TIP3   OH281532   3.695   6.402   6.442  0.6389  0.1772 -0.0261
20014TIP3    H181533   3.612   6.404   6.396 -0.7128  0.4864  2.2661
20014TIP3    H281534   3.703   6.487   6.484  2.1896  0.1995 -0.2884
20015TIP3   OH281535   0.664   6.591   1.285  0.5174  0.3144 -0.6474
20015TIP3    H181536   0.715   6.532   1.229 -0.6794 -1.1361 -0.2708
20015TIP3    H281537   0.616   6.647   1.223 -0.0890 -0.6632 -1.0892
20016TIP3   OH281538   3.550   1.996   1.057 -0.8157  0.5314 -0.6842
20016TIP3    H181539   3.482   2.003   1.123 -0.6987 -0.4349 -0.4599
20016TIP3    H281540   3.569   1.903   1.050 -0.4903  0.6574 -1.7389
20017TIP3   OH281541   2.371   3.964   2.025  0.9583 -0.3242  0.3809
20017TIP3    H181542   2.334   3.988   1.940 -0.5373  0.6649  1.2552
20017TIP3    H281543   2.454   3.921   2.004  0.8643  0.3252 -1.5472
20018TIP3   OH281544   6.186   2.764  13.588 -0.0805 -0.1806  0.2119
20018TIP3    H181545   6.141   2.835  13.634  0.4695  0.0730  0.3588
20018TIP3    H281546   6.259   2.806  13.543 -1.6874 -0.0702 -2.5448
20019TIP3   OH281547   6.699   2.314  12.317 -0.4776 -0.2120 -0.2823
20019TIP3    H181548   6.743   2.387  12.273  0.0483 -0.9344 -0.9852
20019TIP3    H281549   6.607   2.323  12.292 -1.0040  1.9253  2.0379
20020TIP3   OH281550   5.633   4.945  17.082  0.5161 -0.2525 -0.4023
20020TIP3    H181551   5.670   4.857  17.088  0.5746 -0.1706  0.5485
20020TIP3    H281552   5.696   4.993  17.028  1.6319 -0.2209  0.8681
20021TIP3   OH281553   1.016   1.793   4.598 -0.5539  0.2992  0.6333
20021TIP3    H181554   1.040   1.811   4.507 -0.4148  0.1988  0.6500
20021TIP3    H281555   1.063   1.713   4.620 -0.2116  0.5859  0.9451
20022TIP3   OH281556   6.159   1.547  15.909 -0.7583 -0.3122 -0.2982
20022TIP3    H181557   6.141   1.546  15.815  0.7411 -0.8562 -0.6155
20022TIP3    H281558   6.179   1.456  15.931  0.1128 -0.0065  0.2766
20023TIP3   OH281559   0.084   2.779  14.610 -0.1411 -1.1963 -0.2581
20023TIP3    H181560   0.110   2.736  14.529  1.1914  0.3651 -0.7300
20023TIP3    H281561   0.125   2.866  14.605  0.0563 -1.0802  2.1112
20024TIP3   OH281562   2.610   6.399   6.221 -0.3561  0.1293  0.1000
20024TIP3    H181563   2.518   6.414   6.200 -0.2921  1.0280  0.4135
20024TIP3    H281564   2.646   6.487   6.233  0.0091 -0.2753  2.2921
20025TIP3   OH281565   4.499   4.989   6.292  0.4874 -0.9228 -0.2990
20025TIP3    H181566   4.439   5.016   6.222  0.4146 -3.5315 -1.3618
20025TIP3    H281567   4.496   5.061   6.355 -3.3192 -0.6099 -0.5782
20026TIP3   OH281568   2.659   4.140   1.531 -0.4171 -0.2093  0.1469
20026TIP3    H181569   2.643   4.082   1.606  0.0811  0.1235  0.5126
20026TIP3    H281570   2.679   4.081   1.459 -2.0044 -0.5892 -0.0144
20027TIP3   OH281571   4.900   6.589  14.020  0.0340 -0.3143 -0.0163
20027TIP3    H181572   4.823   6.541  14.050 -1.0391  0.4943 -1.3595
20027TIP3    H281573   4.953   6.600  14.099 -1.2847 -0.7707  0.9751
20028TIP3   OH281574   5.353   5.906  11.218 -0.3838 -0.2539 -0.3999
20028TIP3    H181575   5.281   5.885  11.278 -0.5539  0.2355 -0.4260
20028TIP3    H281576   5.309   5.938  11.140 -0.1753 -1.2441 -0.9371
20029TIP3   OH281577   2.326   2.711  13.285 -0.4152 -0.2518 -0.0987
20029TIP3    H181578   2.236   2.722  13.254 -0.3842  0.6873  0.1319
20029TIP3    H281579   2.317   2.660  13.366 -0.5544 -2.0215 -1.1615
20030TIP3   OH281580   5.094   6.450  13.513 -0.6189 -0.3579  0.3966
20030TIP3    H181581   5.165   6.515  13.511  1.0903 -2.1194  0.8021
20030TIP3    H281582   5.025   6.492  13.563  1.2915  0.3705  2.5857
20031TIP3   OH281583   0.116   6.231  15.084 -0.4416  0.0269 -0.1038
20031TIP3    H181584   0.052   6.163  15.106 -0.2574 -0.0693  0.1346
20031TIP3    H281585   0.091   6.259  14.996 -0.6499 -0.1986 -0.1188
20032TIP3   OH281586   5.441   2.238   5.717  0.2155 -0.3261 -0.5746
20032TIP3    H181587   5.359   2.260   5.674  0.4285  1.0298 -0.3362
20032TIP3    H281588   5.426   2.151   5.755 -0.7305 -0.5538 -1.4380
20033TIP3   OH281589   0.483   2.956   2.698  0.1276  0.4541 -0.2246
20033TIP3    H181590   0.412   2.977   2.758 -0.4477 -0.0288 -0.7241
20033TIP3    H281591   0.460   2.870   2.663  0.7051  0.5112 -0.7563
20034TIP3   OH281592   5.334   6.667   0.293  0.1340  0.9368 -0.1585
20034TIP3    H181593   5.349   6.601   0.225  0.7363  0.0848  0.7677
20034TIP3    H281594   5.402   6.732   0.279 -0.1206  1.0902 -0.7351
20035TIP3   OH281595   4.806   5.379  11.578 -0.0566 -0.2205 -0.0345
20035TIP3    H181596   4.734   5.419  11.530  0.2519  0.6879  0.2300
20035TIP3    H281597   4.785   5.286  11.581 -0.8091 -0.0776 -0.6510
20036TIP3   OH281598   6.572   2.475   3.416  0.0314 -0.3361  0.0568
20036TIP3    H181599   6.578   2.528   3.337 -0.6167  0.2864  0.4154
20036TIP3    H281600   6.546   2.536   3.485 -0.6092 -1.0836  0.5045
20037TIP3   OH281601   6.631   2.890  12.244 -0.2505 -0.1717 -0.0729
20037TIP3    H181602   6.720   2.857  12.258 -0.7764 -1.5903  0.0645
20037TIP3    H281603   6.636   2.983  12.268  0.9893 -0.4316  0.7743
20038TIP3   OH281604   2.067   0.790  12.043 -0.0719 -0.1002  0.1066
20038TIP3    H181605   2.009   0.781  12.119 -0.5743 -0.9033 -0.3583
20038TIP3    H281606   2.022   0.742  11.973  1.0154 -0.4903 -0.3395
20039TIP3   OH281607   0.222   6.322  14.298 -0.6752 -0.5104 -0.5467
20039TIP3    H181608   0.310   6.338  14.263 -0.2521 -0.2948  0.5663
20039TIP3    H281609   0.231   6.242  14.349 -0.4891  0.7666  1.5607
20040TIP3   OH281610   2.176   1.929   3.312 -0.5611 -0.0804 -0.4174
20040TIP3    H181611   2.194   1.914   3.404  0.8691 -1.7384 -0.9063
20040TIP3    H281612   2.191   2.023   3.299  0.8564 -0.1222  0.7069
20041TIP3   OH281613   2.070   2.735  13.202  0.6579  0.2944 -0.1911
20041TIP3    H181614   2.010   2.809  13.204  0.8324  0.5049 -1.4266
20041TIP3    H281615   2.025   2.669  13.149  0.9078 -0.1030  0.0863
20042TIP3   OH281616   0.008   5.887   3.310  0.4597 -0.4102  0.2067
20042TIP3    H181617  -0.065   5.842   3.352  0.2119 -0.2707 -0.0647
20042TIP3    H281618   0.024   5.836   3.230  1.2775 -0.9870  0.7236
20043TIP3   OH281619   4.202   4.412  16.370 -0.0706  0.4579 -0.2662
20043TIP3    H181620   4.196   4.374  16.458 -0.8149  0.4245 -0.3198
20043TIP3    H281621   4.295   4.429  16.357  0.3520 -1.6887 -0.3841
20044TIP3   OH281622   3.020   3.163   0.105 -0.4395 -0.1535 -0.2228
20044TIP3    H181623   3.076   3.101   0.152 -0.2907  0.3482  0.2795
20044TIP3    H281624   2.959   3.109   0.056 -0.6174 -0.6985  0.5806
20045TIP3   OH281625   5.511   4.608  11.999  0.0746  0.2850 -0.2981
20045TIP3    H181626   5.509   4.667  11.924 -2.6112  1.8872  0.8892
20045TIP3    H281627   5.440   4.546  11.983  0.9221 -0.7754 -0.0789
20046TIP3   OH281628   5.471   5.253  14.736  0.3481 -0.1320 -0.1186
20046TIP3    H181629   5.406   5.321  14.720 -0.2792 -0.7520 -0.3006
20046TIP3    H281630   5.547   5.299  14.770 -0.6828  0.4909  1.5098
20047TIP3   OH281631   6.377   4.561   1.665 -0.8061 -0.0349  0.1216
20047TIP3    H181632   6.330   4.540   1.746 -0.9539 -0.1549  0.0036
20047TIP3    H281633   6.449   4.498   1.662 -0.1500  0.6563  0.7162
20048TIP3   OH281634   4.647   4.154  12.180 -0.3923 -0.0508  0.0774
20048TIP3    H181635   4.659   4.080  12.119  1.0820  0.4881 -0.3226
20048TIP3    H281636   4.664   4.117  12.266 -1.1406 -0.5052  0.0429
20049TIP3   OH281637   6.447   6.131   5.902 -0.1095  0.6114  0.0693
20049TIP3    H181638   6.393   6.125   5.981  1.2733  2.1617  1.1894
20049TIP3    H281639   6.535   6.108   5.931  0.1819 -0.2438 -1.3647
20050TIP3   OH281640   1.209   0.551  16.723 -0.0668  0.2327 -0.4413
20050TIP3    H181641   1.137   0.506  16.678  0.0489  0.5700 -0.9753
20050TIP3    H281642   1.203   0.522  16.813 -0.2443 -0.5407 -0.6958
20051TIP3   OH281643   2.053   0.878   2.184 -0.4033  0.1136 -0.1159
20051TIP3    H181644   2.043   0.943   2.254  0.3820  1.5143 -1.2614
20051TIP3    H281645   1.964   0.853   2.162 -0.6641 -0.8390  1.7807
20052TIP3   OH281646   3.269   0.301  15.772  0.0823  0.3789  0.1833
20052TIP3    H181647   3.181   0.322  15.740 -0.1188 -0.9406 -0.2008
20052TIP3    H281648   3.256   0.274  15.863 -0.5864 -3.6025 -0.8932
20053TIP3   OH281649   3.568   6.432   0.979 -0.0101 -0.1716 -0.5154
20053TIP3    H181650   3.599   6.413   0.891  1.4245  0.0682 -0.0838
20053TIP3    H281651   3.496   6.494   0.966  0.9531  0.7979 -1.4652
20054TIP3   OH281652   3.368   6.107   0.478  0.0756  0.5413 -0.3278
20054TIP3    H181653   3.275   6.089   0.489  0.1940  0.6379  1.0708
20054TIP3    H281654   3.374   6.155   0.395 -1.3717  2.1878  0.4530
20055TIP3   OH281655   5.357   5.801  12.411  0.0218  0.3034 -0.5182
20055TIP3    H181656   5.357   5.719  12.361 -0.0177 -0.5203  0.7699
20055TIP3    H281657   5.265   5.814  12.435 -0.0550  1.0362 -1.1905
20056TIP3   OH281658   4.367   0.597  16.974 -0.6835 -0.6318  0.1362
20056TIP3    H181659   4.302   0.666  16.988 -1.1247 -0.9471 -0.3252
20056TIP3    H281660   4.451   0.643  16.972 -1.0488  0.0417 -1.1610
20057TIP3   OH281661   2.735   5.914   1.166  0.1468 -0.0320  0.5202
20057TIP3    H181662   2.709   5.967   1.241  1.3985 -0.3913  1.2550
20057TIP3    H281663   2.720   5.824   1.195 -0.6852 -0.1341 -0.2037
20058TIP3   OH281664   1.764   1.048  12.517 -0.2010  0.3653 -0.3993
20058TIP3    H181665   1.691   1.045  12.578 -0.6635 -0.4221 -0.9817
20058TIP3    H281666   1.758   0.966  12.468  1.6686 -0.1976  0.2321
20059TIP3   OH281667   3.079   1.829   0.186 -0.2916  0.0558  0.0861
20059TIP3    H181668   3.112   1.905   0.138  1.5938 -0.5599  0.3195
20059TIP3    H281669   3.093   1.850   0.278  1.5790 -1.0714  0.1174
20060TIP3   OH281670   6.407   5.684   4.376  0.3668  0.4185  0.0885
20060TIP3    H181671   6.449   5.667   4.292 -0.9667  1.3278 -0.8035
20060TIP3    H281672   6.318   5.648   4.366  0.5899 -0.6409  1.5976
20061TIP3   OH281673   4.895   5.978   5.727  0.4891 -0.4258  0.3413
20061TIP3    H181674   4.866   5.993   5.637 -0.4841 -0.4071  0.6407
20061TIP3    H281675   4.932   5.890   5.725  0.0901 -0.5932  0.0001
20062TIP3   OH281676   6.395   4.851  10.876  0.1519  0.0491 -0.3658
20062TIP3    H181677   6.399   4.924  10.937  2.4437  0.9444 -1.4935
20062TIP3    H281678   6.383   4.774  10.932  0.5428  0.9792  1.0590
20063TIP3   OH281679   0.712   4.423  15.805  0.6533  0.2779  0.4453
20063TIP3    H181680   0.801   4.391  15.793  0.7695  1.1696 -1.5167
20063TIP3    H281681   0.722   4.498  15.864  1.3688  0.9500 -0.4896
20064TIP3   OH281682   2.841   1.555   4.751  0.3744  0.0515  0.2014
20064TIP3    H181683   2.803   1.604   4.824  0.2816  0.7029 -0.2840
20064TIP3    H281684   2.780   1.482   4.737  0.2850  0.0395  0.6341
20065TIP3   OH281685   6.314   6.166   1.696 -0.0321 -0.5050  0.1780
20065TIP3    H181686   6.353   6.169   1.783 -0.8202  0.6727  0.5089
20065TIP3    H281687   6.232   6.119   1.709  1.2495 -3.1284 -0.5466
20066TIP3   OH281688   0.342   5.566  13.359 -0.2730 -0.2613  0.5650
20066TIP3    H181689   0.392   5.578  13.439  0.2608 -0.1481  0.2230
20066TIP3    H281690   0.322   5.472  13.357 -1.9556  0.0389  1.7883
20067TIP3   OH281691   5.415   5.447  15.088  0.1106  0.1902 -0.2248
20067TIP3    H181692   5.481   5.427  15.154  0.3584 -0.2970 -0.6121
20067TIP3    H281693   5.464   5.485  15.015 -0.1097  0.3440 -0.2955
20068TIP3   OH281694   2.968   0.821  14.647 -0.1075  0.4448  0.0324
20068TIP3    H181695   2.893   0.769  14.618 -0.8180  0.3672  1.8904
20068TIP3    H281696   2.929   0.894  14.695  0.9958 -0.3197  2.2019
20069TIP3   OH281697   2.895   4.141  15.994 -0.3472 -0.4176  0.1501
20069TIP3    H181698   2.866   4.226  15.961 -1.0300 -0.5312  0.4229
20069TIP3    H281699   2.945   4.162  16.073 -0.9097 -0.2874  0.4794
20070TIP3   OH281700   3.332   6.681  12.442  0.2905  0.0130 -0.7610
20070TIP3    H181701   3.306   6.631  12.365 -2.1975  0.2598 -0.1829
20070TIP3    H281702   3.294   6.767  12.428  2.3545  1.0037 -0.5689
20071TIP3   OH281703   0.008   3.688   5.028  0.0775 -0.1047  0.3187
20071TIP3    H181704  -0.015   3.772   4.987  0.3725  0.8428  2.0033
20071TIP3    H281705   0.094   3.667   4.992 -0.8345 -0.7577 -1.6430
20072TIP3   OH281706   2.412   2.667   5.558 -0.5589  0.1182 -0.0068
20072TIP3    H181707   2.392   2.581   5.521  2.1696 -0.8742  0.5874
20072TIP3    H281708   2.408   2.654   5.653 -1.1452  0.9469  0.0954
20073TIP3   OH281709   4.864   6.251   3.712 -0.0014 -0.5609  0.0570
20073TIP3    H181710   4.936   6.230   3.652  1.5360  0.9531  1.2782
20073TIP3    H281711   4.905   6.253   3.798 -1.4675  0.6159  0.7651
20074TIP3   OH281712   4.379   6.320   3.622  0.7491 -0.1086  0.3715
20074TIP3    H181713   4.366   6.414   3.632  0.3307 -0.2910  1.8317
20074TIP3    H281714   4.469   6.305   3.649  0.8362 -0.1247  0.0767
20075TIP3   OH281715   6.636   0.854   2.448 -0.0793  0.1162  0.4333
20075TIP3    H181716   6.620   0.773   2.400  0.8677  0.5912 -0.7286
20075TIP3    H281717   6.570   0.853   2.518 -1.6616 -0.4922 -0.9911
20076TIP3   OH281718   0.522   3.934  14.234 -0.1243 -0.1204 -0.9559
20076TIP3    H181719   0.435   3.898  14.222  0.2385 -1.2621 -0.3541
20076TIP3    H281720   0.510   4.007  14.295 -0.8197  0.5601 -1.8823
20077TIP3   OH281721   1.946   1.996   3.595 -0.7150  0.1376  0.1397
20077TIP3    H181722   2.025   2.050   3.584  0.3951 -1.6005 -0.8982
20077TIP3    H281723   1.873   2.057   3.585  0.4825  1.5998  0.0051
20078TIP3   OH281724   4.255   3.284  14.513  0.3305  0.3094 -0.3711
20078TIP3    H181725   4.242   3.245  14.427  0.4621  1.3538 -0.8827
20078TIP3    H281726   4.316   3.225  14.558  0.8514  0.1502 -1.2719
20079TIP3   OH281727   2.262   2.961   5.730  0.0124  0.3164  0.0260
20079TIP3    H181728   2.323   2.960   5.804 -0.1017 -1.0264  0.1308
20079TIP3    H281729   2.225   3.049   5.731  1.1027  0.7928  0.6613
20080TIP3   OH281730   1.612   6.309   2.662 -0.1468 -0.7109 -0.0916
20080TIP3    H181731   1.657   6.225   2.672 -0.4447 -0.7912  0.6546
20080TIP3    H281732   1.543   6.307   2.728 -0.4821 -0.0903 -0.4177
20081TIP3   OH281733   5.492   3.337  15.152 -0.3100 -0.3352  0.0265
20081TIP3    H181734   5.542   3.371  15.078 -1.4122 -2.3797 -1.7614
20081TIP3    H281735   5.554   3.334  15.224  0.8842  1.4220 -0.8676
20082TIP3   OH281736   1.651   2.256   1.676 -0.2427  0.8238  0.3418
20082TIP3    H181737   1.712   2.305   1.732  0.6431 -0.3946  0.4827
20082TIP3    H281738   1.665   2.164   1.700 -0.7856  0.3784 -0.9703
20083TIP3   OH281739   0.190   2.083   4.780 -0.2750 -0.1302 -0.0682
20083TIP3    H181740   0.269   2.039   4.748 -1.0283 -1.4622 -0.1733
20083TIP3    H281741   0.175   2.043   4.866  0.3199  1.6153  0.8953
20084TIP3   OH281742   1.544   2.326   1.940 -0.3210 -0.6905  0.6986
20084TIP3    H181743   1.538   2.282   1.855 -2.3165  0.3894  0.2280
20084TIP3    H281744   1.545   2.419   1.919 -0.4667 -0.4062  1.8615
20085TIP3   OH281745   2.201   4.364  15.655 -0.2993  0.4787  0.3015
20085TIP3    H181746   2.192   4.269  15.658 -0.2809  0.3979 -1.1912
20085TIP3    H281747   2.250   4.381  15.574  0.0415  1.7404  0.7410
20086TIP3   OH281748   3.779   2.975   2.015 -0.3128  0.0497  0.4230
20086TIP3    H181749   3.804   3.013   2.099  1.0421  0.5541 -0.1826
20086TIP3    H281750   3.851   2.997   1.956 -0.3793 -1.8459 -0.4343
20087TIP3   OH281751   2.257   1.371  13.867 -0.1388  0.2750 -0.9088
20087TIP3    H181752   2.294   1.398  13.951 -1.7005  0.4640 -0.2434
20087TIP3    H281753   2.309   1.418  13.802  0.9908  0.2608 -0.0614
20088TIP3   OH281754   2.548   4.788  13.692  0.0560  0.1599  0.2996
20088TIP3    H181755   2.533   4.875  13.729  0.7818 -0.2547  1.6661
20088TIP3    H281756   2.574   4.804  13.602  0.1350  1.3628  0.5182
20089TIP3   OH281757   4.664   2.719  14.538  0.2168 -0.2422  0.4960
20089TIP3    H181758   4.584   2.750  14.496  0.4164  3.3001  2.3249
20089TIP3    H281759   4.730   2.783  14.512  1.3687 -0.5258  2.5637
20090TIP3   OH281760   6.633   6.143  15.367  0.1425 -0.5329  0.0752
20090TIP3    H181761   6.689   6.180  15.436  0.1679  0.1342 -0.3011
20090TIP3    H281762   6.636   6.207  15.296  0.4889 -1.4367 -0.7416
20091TIP3   OH281763   1.504   3.321   4.340 -0.3339  0.1788 -0.3853
20091TIP3    H181764   1.428   3.377   4.356 -1.8987 -2.0257  0.3270
20091TIP3    H281765   1.485   3.240   4.388  2.5799 -0.3956 -0.0252
20092TIP3   OH281766   0.383   3.893   5.585  0.2687  0.0551 -0.1571
20092TIP3    H181767   0.338   3.812   5.609  0.5056 -0.8264 -2.3984
20092TIP3    H281768   0.465   3.890   5.635  0.1032 -0.9044  0.0861
20093TIP3   OH281769   5.081   5.148   4.941  0.4226 -0.5781  0.2477
20093TIP3    H181770   5.019   5.217   4.966  1.3829 -0.3048  2.0493
20093TIP3    H281771   5.027   5.085   4.893 -0.4774  1.3996 -1.5437
20094TIP3   OH281772   4.957   1.625  16.035 -0.3486 -0.2372 -0.1756
20094TIP3    H181773   4.870   1.662  16.018 -0.4441 -0.9181 -1.2995
20094TIP3    H281774   5.018   1.690  16.000 -0.4550 -0.3395 -0.5558
20095TIP3   OH281775   6.371   2.137   5.484 -0.2132  0.4807  0.0812
20095TIP3    H181776   6.399   2.102   5.569 -0.6387  0.7838  0.3508
20095TIP3    H281777   6.308   2.205   5.506 -1.5919 -0.5461 -0.5132
20096TIP3   OH281778   1.124   6.472   1.111  0.1925 -0.7288 -0.1687
20096TIP3    H181779   1.198   6.431   1.157  2.1262  1.7178 -0.8910
20096TIP3    H281780   1.105   6.551   1.162 -1.9978 -1.2961 -0.0131
20097TIP3   OH281781   6.780   5.658   3.780 -0.1102  0.0344  0.4276
20097TIP3    H181782   6.829   5.583   3.816  1.8827 -0.0936 -2.2733
20097TIP3    H281783   6.839   5.733   3.793 -1.9527  1.2144  2.8120
20098TIP3   OH281784   2.107   3.634  15.418  0.2054 -0.1592  0.3058
20098TIP3    H181785   2.171   3.591  15.361  0.0522 -0.1689  0.1413
20098TIP3    H281786   2.149   3.717  15.442 -0.0730  0.2277 -0.4956
20099TIP3   OH281787   6.585   3.572   0.233  0.4378  0.1686  0.2888
20099TIP3    H181788   6.654   3.510   0.210  2.0869  1.8556  0.4772
20099TIP3    H281789   6.606   3.599   0.323  0.2284  1.5979 -0.0737
20100TIP3   OH281790   6.738   3.145  16.566 -0.0363  0.0137  0.0399
20100TIP3    H181791   6.822   3.154  16.612 -0.9349 -1.1622  2.0754
20100TIP3    H281792   6.681   3.209  16.608 -0.3664  0.3271 -0.8608
20101TIP3   OH281793   1.998   0.978  15.551  0.5681 -1.1511 -0.2073
20101TIP3    H181794   1.945   0.951  15.476 -0.5647  1.3675 -0.4149
20101TIP3    H281795   1.943   0.963  15.627  0.1494 -0.0411 -0.2751
20102TIP3   OH281796   6.235   6.489  13.095  0.3044  0.7472  0.1266
20102TIP3    H181797   6.230   6.581  13.121 -0.5645  0.7377  0.0061
20102TIP3    H281798   6.174   6.445  13.154  1.6188  0.0472  1.0154
20103TIP3   OH281799   3.202   2.874  15.035 -0.1666 -0.3770  0.3195
20103TIP3    H181800   3.188   2.787  14.997  0.6676 -0.1177 -0.6028
20103TIP3    H281801   3.164   2.868  15.122 -0.1397 -1.6660  0.2583
20104TIP3   OH281802   6.504   2.030   6.638 -0.3415 -0.3429  0.2570
20104TIP3    H181803   6.446   2.103   6.657  0.4006  0.5860 -0.8611
20104TIP3    H281804   6.586   2.052   6.683 -0.0831 -0.4168 -0.1624
20105TIP3   OH281805   4.472   4.919   0.042 -0.3825  0.6877 -0.1127
20105TIP3    H181806   4.546   4.965   0.002  1.1021 -1.6562 -0.2205
20105TIP3    H281807   4.506   4.885   0.124 -1.9792  1.2838  0.8432
20106TIP3   OH281808   1.342   0.409   3.220  0.0540  0.1788  0.4657
20106TIP3    H181809   1.254   0.418   3.257  0.8969  1.2615  2.3789
20106TIP3    H281810   1.329   0.409   3.126 -2.1708 -1.7552  0.6862
20107TIP3   OH281811   0.382   6.006   4.855  0.0380 -0.3556  0.3980
20107TIP3    H181812   0.475   6.028   4.861  0.1191 -1.0779  2.5968
20107TIP3    H281813   0.364   6.005   4.761  2.5487 -1.3887 -0.1697
20108TIP3   OH281814   3.317   1.226   0.955 -0.3707 -0.5875 -0.6098
20108TIP3    H181815   3.262   1.293   0.915  0.4230  0.8335  0.5821
20108TIP3    H281816   3.406   1.263   0.953 -0.3110 -0.3031  2.6128
20109TIP3   OH281817   1.219   0.972  17.153  0.1593 -0.6317 -0.0939
20109TIP3    H181818   1.195   0.924  17.074 -0.0855  0.2295 -0.5572
20109TIP3    H281819   1.186   1.061  17.138  1.2129 -0.1279  0.4312
20110TIP3   OH281820   4.289   5.293   1.187 -0.4351 -0.3325  0.6021
20110TIP3    H181821   4.205   5.300   1.233 -1.2999 -0.1737 -0.9482
20110TIP3    H281822   4.284   5.358   1.117  0.7646 -0.7068  0.1400
20111TIP3   OH281823   1.605   0.293   3.096  0.6660  0.4914  0.1480
20111TIP3    H181824   1.609   0.199   3.078  0.1260  0.6179 -0.6677
20111TIP3    H281825   1.514   0.317   3.081  0.7628  1.1163  0.5250
20112TIP3   OH281826   0.901   0.821   4.835 -0.0803 -0.5834  0.1112
20112TIP3    H181827   0.866   0.887   4.895 -1.6102 -1.5660  0.3475
20112TIP3    H281828   0.983   0.793   4.875 -0.6106 -0.5346  1.2540
20113TIP3   OH281829   2.142   4.638  15.587  0.6610 -0.3112 -0.0758
20113TIP3    H181830   2.091   4.608  15.511  1.0457  0.8557 -0.8141
20113TIP3    H281831   2.193   4.561  15.613 -0.1839 -0.9990 -0.3949
20114TIP3   OH281832   6.647   1.988   4.275  0.1241 -0.4750 -0.1343
20114TIP3    H181833   6.552   1.992   4.290  0.1344  1.1302 -0.3490
20114TIP3    H281834   6.685   2.000   4.362  0.1191  1.9147 -0.3973
20115TIP3   OH281835   4.188   4.300   1.926 -0.5384  0.3271 -0.2973
20115TIP3    H181836   4.113   4.241   1.934 -0.5626  0.5137  1.1301
20115TIP3    H281837   4.254   4.264   1.985 -0.1462  1.1227 -0.2259
20116TIP3   OH281838   1.269   6.026   5.698 -0.1699 -0.0118 -0.5146
20116TIP3    H181839   1.279   5.968   5.774  0.7362  0.4354 -0.2760
20116TIP3    H281840   1.227   6.104   5.734 -1.6210 -0.5768 -0.8822
20117TIP3   OH281841   2.508   0.268  16.899 -0.3663 -0.0777  0.5353
20117TIP3    H181842   2.580   0.246  16.958 -0.0108 -0.6949 -0.1113
20117TIP3    H281843   2.452   0.191  16.900 -0.9380  0.3286  0.8901
20118TIP3   OH281844   6.624   5.401   0.491  0.2039 -0.4858 -0.1206
20118TIP3    H181845   6.697   5.414   0.431  1.3075 -0.2069  1.2393
20118TIP3    H281846   6.641   5.460   0.564 -0.1966 -1.9908  1.2731
20119TIP3   OH281847   6.578   4.556  16.174 -0.3130 -0.1209  0.6189
20119TIP3    H181848   6.551   4.565  16.083 -0.9150 -0.5529  0.7500
20119TIP3    H281849   6.571   4.645  16.210 -1.0988 -0.1437  0.5252
20120TIP3   OH281850   2.351   4.386   1.891  0.5925 -0.5648  0.8695
20120TIP3    H181851   2.398   4.438   1.956  0.3566  1.0925 -0.2257
20120TIP3    H281852   2.417   4.364   1.825 -0.0802  1.7985 -0.6905
20121TIP3   OH281853   2.323   1.844   3.578  0.0405  0.4331 -0.6543
20121TIP3    H181854   2.302   1.752   3.596 -0.3514  0.9356  1.8487
20121TIP3    H281855   2.418   1.849   3.587  0.0268  0.3344 -0.4562
20122TIP3   OH281856   2.082   0.027   6.580 -0.1533 -0.1880 -0.5200
20122TIP3    H181857   2.087   0.116   6.615 -0.8043  0.3296 -1.6757
20122TIP3    H281858   1.998   0.024   6.534  0.4461 -0.9901 -1.6025
20123TIP3   OH281859   1.557   4.168  14.162  0.4143  0.1165 -0.2011
20123TIP3    H181860   1.545   4.191  14.070 -2.2207 -0.3427 -0.0388
20123TIP3    H281861   1.495   4.223  14.209  0.8518 -0.5408  1.1962
20124TIP3   OH281862   1.975   2.403  12.492  0.0655 -0.0882  0.5396
20124TIP3    H181863   1.919   2.469  12.450 -0.8070  0.1014  1.9587
20124TIP3    H281864   1.918   2.358  12.554  0.5834 -2.3758 -0.5389
20125TIP3   OH281865   1.066   2.865  16.772  0.0656 -0.4236 -0.4926
20125TIP3    H181866   1.026   2.919  16.840 -0.3622 -1.1813 -0.1225
20125TIP3    H281867   1.056   2.775  16.805  0.6159 -0.7341 -1.1628
20126TIP3   OH281868   6.261   3.098   2.320 -0.1319  0.1301 -0.6615
20126TIP3    H181869   6.203   3.058   2.254 -0.8790  0.3096 -0.1326
20126TIP3    H281870   6.254   3.040   2.396 -0.1647  0.5373 -0.3534
20127TIP3   OH281871   5.257   3.887   6.449 -0.1012  0.6203  0.2418
20127TIP3    H181872   5.336   3.895   6.503 -0.3383 -2.2969  1.2095
20127TIP3    H281873   5.232   3.794   6.456 -3.3209  1.3036 -0.4586
20128TIP3   OH281874   5.895   0.261  16.046  0.6184 -0.0144 -0.0357
20128TIP3    H181875   5.963   0.196  16.056 -0.7990 -2.0147 -2.3567
20128TIP3    H281876   5.827   0.218  15.995 -1.2290  2.7179 -0.1353
20129TIP3   OH281877   5.254   4.132  12.041  0.8197  0.2516 -0.1707
20129TIP3    H181878   5.270   4.099  11.953  0.4101  1.1038 -0.5870
20129TIP3    H281879   5.279   4.225  12.037  1.2599  0.1872  0.7455
20130TIP3   OH281880   4.299   2.036   2.519  0.3867  0.0892 -0.1825
20130TIP3    H181881   4.244   1.986   2.579 -1.8080  1.0638 -1.2610
20130TIP3    H281882   4.388   2.024   2.552 -0.5192 -0.9870  2.0843
20131TIP3   OH281883   1.276   0.407   2.674  0.4073 -0.4709 -0.4334
20131TIP3    H181884   1.324   0.480   2.635  0.7133 -0.1493  0.5202
20131TIP3    H281885   1.219   0.376   2.604 -0.4274  1.2886 -0.6023
20132TIP3   OH281886   1.926   0.400   4.670  0.7902  0.2319 -0.1610
20132TIP3    H181887   1.965   0.448   4.743  0.5954  1.0350 -0.5824
20132TIP3    H281888   1.934   0.458   4.595  1.9677 -1.0113 -1.0446
20133TIP3   OH281889   0.381   1.621  17.279  0.3284 -0.2160  0.4390
20133TIP3    H181890   0.397   1.571  17.359  1.2115 -0.9334 -0.1614
20133TIP3    H281891   0.297   1.589  17.247  0.6504 -0.9606  0.3273
20134TIP3   OH281892   2.939   2.032   3.841  0.0614 -0.2730  0.2777
20134TIP3    H181893   2.907   2.104   3.895 -0.5524  0.1822 -0.6773
20134TIP3    H281894   2.876   1.962   3.855  0.5469 -0.5789  1.0455
20135TIP3   OH281895   1.144   5.456   1.147  0.0050  0.2770 -0.2185
20135TIP3    H181896   1.051   5.438   1.131  0.4970 -2.3672 -0.4157
20135TIP3    H281897   1.145   5.547   1.178 -2.7490  0.0790  0.7331
20136TIP3   OH281898   0.320   4.214  10.352  0.1622 -0.3939 -0.5575
20136TIP3    H181899   0.266   4.276  10.400  0.8935 -0.0617 -0.1396
20136TIP3    H281900   0.267   4.134  10.346 -0.7564  0.2412 -1.0394
20137TIP3   OH281901   0.728   4.207   0.160 -0.0065 -0.6869 -0.2037
20137TIP3    H181902   0.761   4.155   0.086 -0.4420  2.0993 -2.5294
20137TIP3    H281903   0.633   4.195   0.156  0.0238 -1.2380  0.5215
20138TIP3   OH281904   0.552   0.682   0.114 -0.2806 -0.1212 -0.2112
20138TIP3    H181905   0.634   0.728   0.133 -0.6705  0.6282 -0.3077
20138TIP3    H281906   0.568   0.592   0.141  1.5545 -0.6864 -2.8185
20139TIP3   OH281907   2.008   3.296  11.823 -0.2543 -0.5107 -0.0521
20139TIP3    H181908   2.039   3.320  11.736 -1.6284  0.7993 -0.2211
20139TIP3    H281909   1.924   3.341  11.832  0.4863  0.5098  2.4751
20140TIP3   OH281910   4.330   3.803  16.239 -0.0959 -0.0296  0.6319
20140TIP3    H181911   4.393   3.875  16.233  2.4110 -2.1655 -0.4689
20140TIP3    H281912   4.378   3.726  16.209 -3.7299 -1.5473 -2.1323
20141TIP3   OH281913   1.799   2.839   1.020  0.1812  0.4691  0.6483
20141TIP3    H181914   1.864   2.856   0.952 -0.2041 -1.9449 -0.4332
20141TIP3    H281915   1.844   2.782   1.082 -0.8372 -1.3343 -0.1740
20142TIP3   OH281916   5.964   5.923  15.153  0.2090  0.3771  0.0994
20142TIP3    H181917   6.058   5.938  15.152  0.4726 -0.4224  3.1327
20142TIP3    H281918   5.954   5.834  15.119  0.4320  0.7182 -0.8997
20143TIP3   OH281919   3.592   4.776  11.850  0.6290 -0.3460 -0.2514
20143TIP3    H181920   3.653   4.785  11.923  1.6527 -0.4536 -1.0876
20143TIP3    H281921   3.535   4.703  11.876  2.9561 -2.5183 -0.8854
20144TIP3   OH281922   6.438   5.208   0.023 -0.1287 -0.1037  0.0396
20144TIP3    H181923   6.437   5.180  -0.068  1.8064 -2.1748  0.5545
20144TIP3    H281924   6.490   5.288   0.023  0.1926 -0.3056 -0.6549
20145TIP3   OH281925   1.836   4.973   2.447  0.2788  0.9009  0.0109
20145TIP3    H181926   1.754   4.929   2.425 -0.0575  1.9156 -0.8637
20145TIP3    H281927   1.902   4.925   2.398 -0.0553  1.2233 -0.7716
20146TIP3   OH281928   3.140   4.725  10.269 -0.1471 -0.2442  0.7335
20146TIP3    H181929   3.106   4.808  10.301 -0.7572 -0.8486  1.7099
20146TIP3    H281930   3.231   4.724  10.296  0.7055  1.3067 -1.7389
20147TIP3   OH281931   3.664   4.652  14.020 -0.2928  0.0696 -0.0361
20147TIP3    H181932   3.599   4.628  13.955  0.7781 -1.2437 -0.6903
20147TIP3    H281933   3.698   4.737  13.990 -0.3753 -0.1392 -0.7353
20148TIP3   OH281934   6.373   5.926   4.770 -0.6602  0.0208 -0.4629
20148TIP3    H181935   6.358   6.019   4.754 -0.2932  0.2135  0.2660
20148TIP3    H281936   6.465   5.921   4.795 -1.1339 -0.2659  1.3773
20149TIP3   OH281937   0.523   3.711  15.691  0.1309 -0.8264 -0.1551
20149TIP3    H181938   0.556   3.795  15.722 -2.3444  1.3566 -2.8421
20149TIP3    H281939   0.598   3.669  15.649  1.1346  0.6300  0.1046
20150TIP3   OH281940   2.237   1.582   3.541 -0.0651  0.0008  0.0220
20150TIP3    H181941   2.226   1.514   3.608  0.2603  0.3793  0.4679
20150TIP3    H281942   2.161   1.572   3.483 -0.0245 -0.7396  0.0817
20151TIP3   OH281943   3.356   0.083  13.091  0.4455  0.2798 -0.3545
20151TIP3    H181944   3.306   0.131  13.157  0.9328  0.2345  0.0541
20151TIP3    H281945   3.420   0.033  13.142  1.6063  1.1544 -0.9409
20152TIP3   OH281946   2.341   5.382  14.493  0.1088  0.6978 -0.1850
20152TIP3    H181947   2.248   5.405  14.492 -0.0097  0.2581 -1.8456
20152TIP3    H281948   2.372   5.412  14.579 -1.1595  2.4353 -0.2702
20153TIP3   OH281949   2.493   3.895  13.160 -0.3640 -0.1952  0.2237
20153TIP3    H181950   2.537   3.917  13.242 -0.7440 -1.4541  0.7868
20153TIP3    H281951   2.416   3.951  13.159 -0.1486  0.1130  0.5253
20154TIP3   OH281952   4.479   5.792  12.356  0.1020 -0.1716 -0.3381
20154TIP3    H181953   4.409   5.829  12.410  0.0732 -0.2778 -0.3033
20154TIP3    H281954   4.546   5.860  12.354  0.1152 -0.1783 -0.1452
20155TIP3   OH281955   1.564   0.307   1.447  0.4268  0.0618  0.4751
20155TIP3    H181956   1.469   0.296   1.452  0.4379  0.1839  1.0760
20155TIP3    H281957   1.600   0.220   1.462  0.4278  0.2100  1.4213
20156TIP3   OH281958   2.581   6.141  16.249 -0.1665  0.1507 -0.3101
20156TIP3    H181959   2.675   6.144  16.229 -0.2438 -0.6493 -0.8184
20156TIP3    H281960   2.541   6.098  16.174 -0.5647 -2.2163  1.1606
20157TIP3   OH281961   0.754   6.751  12.045  0.5126  0.4959 -0.5641
20157TIP3    H181962   0.713   6.741  11.960  0.0276 -2.1795 -0.1165
20157TIP3    H281963   0.690   6.798  12.098 -1.9147 -3.0353 -0.0596
20158TIP3   OH281964   5.452   1.488   2.833  0.0772  0.4552 -0.2248
20158TIP3    H181965   5.462   1.482   2.738 -1.2287 -0.1900 -0.3339
20158TIP3    H281966   5.541   1.474   2.867  0.6713  1.3376 -1.3568
20159TIP3   OH281967   0.239   0.027  13.741 -0.5408  0.6817 -0.1066
20159TIP3    H181968   0.150   0.046  13.773 -1.3529  0.1351 -1.9079
20159TIP3    H281969   0.236  -0.065  13.715  1.0315  0.2227  1.1894
20160TIP3   OH281970   0.493   6.765   3.013 -0.0895 -0.4151  0.8243
20160TIP3    H181971   0.465   6.697   3.074 -1.2177 -1.0432 -0.3298
20160TIP3    H281972   0.527   6.836   3.069  1.6895 -2.1185  2.0428
20161TIP3   OH281973   2.873   6.092  12.128  0.0954  0.2750  0.1365
20161TIP3    H181974   2.937   6.048  12.071  1.0431  1.4625  0.2557
20161TIP3    H281975   2.870   6.182  12.096 -2.0567  0.1061 -0.3014
20162TIP3   OH281976   2.396   5.766   2.065  0.0065 -0.1054  0.3726
20162TIP3    H181977   2.333   5.755   1.993  1.9579  0.2652 -1.4697
20162TIP3    H281978   2.393   5.859   2.086  0.8721  0.1695 -0.6493
20163TIP3   OH281979   5.633   5.029   4.461 -0.0362 -0.3301  0.5192
20163TIP3    H181980   5.667   5.104   4.510  1.1041  1.2023 -2.3948
20163TIP3    H281981   5.711   4.977   4.440 -0.4149 -0.6794 -0.0472
20164TIP3   OH281982   4.632   1.676  14.342  0.1419 -0.3755 -0.0253
20164TIP3    H181983   4.705   1.620  14.369 -0.6770 -1.5621 -0.2308
20164TIP3    H281984   4.565   1.616  14.311 -0.8559  0.7147 -0.0536
20165TIP3   OH281985   1.459   5.388   0.186 -0.3312 -0.0026  0.9517
20165TIP3    H181986   1.435   5.457   0.123 -0.6024 -0.1259  0.9183
20165TIP3    H281987   1.553   5.376   0.173 -0.8836 -2.4149 -1.8772
20166TIP3   OH281988   2.721   3.331   1.113  0.5669 -0.6632 -0.2002
20166TIP3    H181989   2.717   3.341   1.018 -0.7389  3.2300  0.0689
20166TIP3    H281990   2.631   3.314   1.140  0.3186  1.4112  0.4560
20167TIP3   OH281991   6.427   1.503   2.859  0.5447  0.4099  0.5459
20167TIP3    H181992   6.449   1.424   2.809  1.6561 -0.4233  2.2448
20167TIP3    H281993   6.381   1.559   2.797  3.8743  0.4537 -2.1223
20168TIP3   OH281994   4.792   2.695   3.272 -0.3591 -0.0148 -0.1903
20168TIP3    H181995   4.827   2.644   3.344 -0.1166 -0.7089 -0.7847
20168TIP3    H281996   4.698   2.702   3.289 -0.1308  0.8911  0.8267
20169TIP3   OH281997   6.023   6.689  15.846 -0.1933  0.2909 -0.0912
20169TIP3    H181998   6.012   6.663  15.938  1.2809  0.5712  0.1937
20169TIP3    H281999   6.063   6.776  15.850  0.9071 -0.1500 -0.9739
20170TIP3   OH282000   4.229   4.919   0.984 -0.1503  0.0616  0.8190
20170TIP3    H182001   4.134   4.921   0.997 -0.7728 -3.7078 -1.5186
20170TIP3    H282002   4.240   4.916   0.889  2.2238 -0.9595  1.0548
20171TIP3   OH282003   1.557   4.988  11.190  0.0469  0.3602 -0.5926
20171TIP3    H182004   1.550   4.934  11.112  2.9521  0.2313 -0.8651
20171TIP3    H282005   1.578   5.076  11.156  1.0870  0.3540 -0.0189
20172TIP3   OH282006   5.229   2.223  16.926  0.4902  0.2200  0.1462
20172TIP3    H182007   5.306   2.247  16.978  2.1841  0.3395 -2.2836
20172TIP3    H282008   5.180   2.305  16.917 -0.5897 -0.0557  2.5676
20173TIP3   OH282009   3.389   5.683   3.863 -0.4621  0.2401  0.9623
20173TIP3    H182010   3.470   5.671   3.913 -0.2929 -0.8845  0.4691
20173TIP3    H282011   3.320   5.689   3.929 -0.2636 -1.3787  1.3609
20174TIP3   OH282012   2.950   2.147   1.927 -0.4101  0.3934 -0.3038
20174TIP3    H182013   2.901   2.214   1.878  1.0330 -1.0068 -4.0163
20174TIP3    H282014   3.040   2.156   1.897  0.4723 -1.0709  1.6765
20175TIP3   OH282015   6.808   3.112  12.087  0.4250  0.1347 -0.2303
20175TIP3    H182016   6.837   3.029  12.124 -2.4158 -1.4575 -1.2126
20175TIP3    H282017   6.723   3.129  12.129  0.1609  1.6407 -1.2668
20176TIP3   OH282018   0.499   1.105  13.594  0.3195 -0.4112 -0.1157
20176TIP3    H182019   0.414   1.118  13.553  0.2061 -0.5663  0.0675
20176TIP3    H282020   0.515   1.186  13.642  0.0689 -0.5497  0.2108
20177TIP3   OH282021   3.650   3.292  14.466 -0.4688 -0.4941 -0.1952
20177TIP3    H182022   3.698   3.210  14.474 -0.7075 -0.6379 -0.2278
20177TIP3    H282023   3.565   3.275  14.507  0.7295  0.7952  3.1703
20178TIP3   OH282024   3.360   1.992   1.257  0.3485  0.0865  0.8406
20178TIP3    H182025   3.267   1.974   1.243  0.5160 -0.4063  0.2911
20178TIP3    H282026   3.374   1.976   1.351 -0.1277  0.2207  0.9369
20179TIP3   OH282027   4.409   1.736   1.113  0.3023  0.4170 -0.2115
20179TIP3    H182028   4.358   1.757   1.035  0.8976  0.9311 -0.4724
20179TIP3    H282029   4.364   1.782   1.184  0.7997  1.4646 -0.5572
20180TIP3   OH282030   5.474   6.768  14.842 -0.4451 -0.4818  0.2391
20180TIP3    H182031   5.452   6.688  14.889 -0.4098 -0.3048  0.5611
20180TIP3    H282032   5.568   6.760  14.823 -0.4517 -0.5371  0.2299
20181TIP3   OH282033   3.285   1.163   2.664 -0.0027 -0.3477 -0.2206
20181TIP3    H182034   3.263   1.195   2.751  0.1172 -0.4362 -0.1581
20181TIP3    H282035   3.237   1.081   2.656  1.3574 -1.2472  0.4438
20182TIP3   OH282036   3.533   2.793  16.594 -0.0374  0.3084  0.4778
20182TIP3    H182037   3.590   2.739  16.539  0.2404  0.2625  0.7986
20182TIP3    H282038   3.464   2.824  16.536 -0.2202 -0.4244  0.2985
20183TIP3   OH282039   3.206   0.355  14.998 -0.3374  0.2202 -0.1150
20183TIP3    H182040   3.196   0.300  14.920 -1.1046  0.4874 -0.2188
20183TIP3    H282041   3.117   0.387  15.016 -0.0779  0.5844  0.5577
20184TIP3   OH282042   5.134   0.279   6.110  0.5266 -0.2457 -0.0208
20184TIP3    H182043   5.080   0.221   6.055  1.7482  1.1031 -2.8452
20184TIP3    H282044   5.218   0.234   6.116  0.9564  0.4225 -0.8230
20185TIP3   OH282045   2.137   3.130   5.149  0.2002  0.2330  0.6358
20185TIP3    H182046   2.120   3.042   5.115 -1.0299  0.3765  0.8276
20185TIP3    H282047   2.168   3.179   5.073  0.6563 -0.2943  0.4719
20186TIP3   OH282048   2.100   1.326   3.398  0.3900  0.5232 -0.1703
20186TIP3    H182049   2.162   1.297   3.466 -1.1404 -0.9808  0.6579
20186TIP3    H282050   2.077   1.415   3.424 -0.0607  0.0213  1.2287
20187TIP3   OH282051   2.976   1.673  12.504 -0.6276  0.5109  0.4480
20187TIP3    H182052   2.999   1.726  12.427 -3.1718  2.0859  0.6466
20187TIP3    H282053   2.920   1.603  12.468 -0.3580  0.1821  0.6628
20188TIP3   OH282054   0.544   0.510  14.713 -0.0877 -0.2248  0.0541
20188TIP3    H182055   0.527   0.590  14.663 -1.6007 -0.6070 -0.0842
20188TIP3    H282056   0.586   0.541  14.793 -0.3438  0.6821 -0.1422
20189TIP3   OH282057   6.202   6.095  17.089 -0.6439 -0.1649 -0.6352
20189TIP3    H182058   6.216   6.175  17.140  0.1615  0.0719 -1.1869
20189TIP3    H282059   6.272   6.098  17.023 -2.6290  0.4222 -2.8355
20190TIP3   OH282060   0.244   1.776   4.660  0.0188 -0.6762  0.3238
20190TIP3    H182061   0.230   1.681   4.651  0.0920 -0.5541 -1.3539
20190TIP3    H282062   0.156   1.813   4.663 -0.0562 -0.6509 -1.2052
20191TIP3   OH282063   2.510   3.012  11.854 -0.0464 -0.0859 -0.1264
20191TIP3    H182064   2.530   2.973  11.769 -0.6277 -0.3735 -0.1384
20191TIP3    H282065   2.533   3.105  11.844 -1.1472  0.1213 -0.9761
20192TIP3   OH282066   3.871   2.879   6.314  0.2976  0.2529  0.2735
20192TIP3    H182067   3.958   2.851   6.344  0.9800  2.1003  0.1615
20192TIP3    H282068   3.847   2.951   6.373 -1.0482 -0.0353  0.1148
20193TIP3   OH282069   4.261   2.056   4.628 -0.0369  0.0397 -0.4662
20193TIP3    H182070   4.263   2.078   4.722 -0.8111  0.6877 -0.5910
20193TIP3    H282071   4.326   2.115   4.589 -0.7447  0.8026 -0.5277
20194TIP3   OH282072   4.997   5.509  14.801 -0.0711  0.4041  0.0006
20194TIP3    H182073   5.052   5.491  14.877 -2.4600 -1.3275  1.4512
20194TIP3    H282074   5.054   5.494  14.725  1.9548  0.7310  1.3908
20195TIP3   OH282075   0.411   0.797   3.082 -0.0153 -0.6512 -0.3564
20195TIP3    H182076   0.338   0.859   3.088 -0.5617 -1.2677 -0.4374
20195TIP3    H282077   0.437   0.799   2.991  0.7242  0.2897 -0.1376
20196TIP3   OH282078   6.336   2.101  11.594  0.2977 -0.0877 -0.0333
20196TIP3    H182079   6.357   2.010  11.615  1.4130 -0.0098 -0.7237
20196TIP3    H282080   6.243   2.098  11.568  0.5660 -1.2188 -0.9862
20197TIP3   OH282081   0.967   2.120  16.263  0.9483 -0.6857  0.0797
20197TIP3    H182082   0.924   2.078  16.189 -1.1053  0.4275  0.5423
20197TIP3    H282083   0.985   2.049  16.325 -0.6350 -1.1926  0.0124
20198TIP3   OH282084   6.440   0.560   1.989  0.4725 -0.0194 -0.3207
20198TIP3    H182085   6.390   0.529   1.914  1.3597 -2.2070 -0.0902
20198TIP3    H282086   6.396   0.520   2.065 -1.4007  3.4377  0.6070
20199TIP3   OH282087   5.191   2.511   5.048  0.0460 -0.3617 -0.2296
20199TIP3    H182088   5.279   2.521   5.085 -0.4654  0.0052  0.9185
20199TIP3    H282089   5.165   2.422   5.070  0.1387 -0.4921 -0.6247
20200TIP3   OH282090   6.319   1.948  16.747  0.0203  0.3227  0.5319
20200TIP3    H182091   6.390   1.978  16.690  0.0006 -3.5430 -1.9034
20200TIP3    H282092   6.239   1.970  16.699 -0.1137 -0.5072  0.3526
20201TIP3   OH282093   3.128   4.203  12.329 -0.1035  0.5349 -0.6788
20201TIP3    H182094   3.095   4.164  12.410  0.1907 -0.2289 -0.9223
20201TIP3    H282095   3.218   4.174  12.323  0.7416  2.7733  0.0813
20202TIP3   OH282096   0.575   4.428  14.973 -0.5445  0.0698  0.1796
20202TIP3    H182097   0.545   4.458  15.059 -1.3270  0.5050 -0.2381
20202TIP3    H282098   0.498   4.433  14.917 -0.1465 -0.6258 -0.4522
20203TIP3   OH282099   5.333   2.595  17.149  0.3596 -0.3644  0.1343
20203TIP3    H182100   5.388   2.666  17.116 -0.9381  0.5217 -0.1907
20203TIP3    H282101   5.316   2.618  17.241 -0.0206 -0.2703  0.0442
20204TIP3   OH282102   0.003   5.104  16.252 -0.0611  0.1012  0.7724
20204TIP3    H182103   0.087   5.139  16.283  0.6301  1.1866 -2.0010
20204TIP3    H282104   0.015   5.009  16.250  1.3489  0.2771 -0.1479
20205TIP3   OH282105   1.513   3.675  12.456  0.2043 -0.4032 -0.5135
20205TIP3    H182106   1.588   3.676  12.515 -1.1250  0.2939  1.2623
20205TIP3    H282107   1.550   3.694  12.370  2.3104 -2.1191 -0.0681
20206TIP3   OH282108   3.171   3.836   5.746  0.2951  0.4019 -0.0602
20206TIP3    H182109   3.152   3.859   5.837 -0.7262 -0.1782 -0.1078
20206TIP3    H282110   3.212   3.915   5.710 -0.7115  1.2139  0.4891
20207TIP3   OH282111   3.406   3.919   3.100  0.0861 -0.6449 -0.1706
20207TIP3    H182112   3.397   3.981   3.172  2.9230 -0.7595  0.4055
20207TIP3    H282113   3.329   3.934   3.045 -0.0344  2.4381  0.6482
20208TIP3   OH282114   4.910   5.054   5.908  0.3210 -0.1412 -0.1500
20208TIP3    H182115   4.876   4.987   5.967  0.1697 -1.2092 -1.4049
20208TIP3    H282116   4.994   5.019   5.878  0.7332  0.7198 -0.0273
20209TIP3   OH282117   2.753   6.699  15.107  0.4644 -0.5410 -0.9446
20209TIP3    H182118   2.716   6.749  15.180  0.0873 -0.2649 -1.3181
20209TIP3    H282119   2.812   6.761  15.063 -0.5720 -0.1588 -1.8545
20210TIP3   OH282120   6.060   6.794   6.958 -0.0530 -0.0099 -0.3220
20210TIP3    H182121   5.968   6.786   6.983 -0.3285  2.0023 -0.5315
20210TIP3    H282122   6.058   6.827   6.868  0.7161  3.4579  0.7535
20211TIP3   OH282123   3.708   4.265  13.475  0.1550  0.7538  0.1173
20211TIP3    H182124   3.710   4.310  13.560 -0.1730  2.8407 -0.9096
20211TIP3    H282125   3.654   4.321  13.420 -0.1668 -0.8877 -1.3119
20212TIP3   OH282126   4.009   1.913   1.285  0.2725  0.1561 -0.4474
20212TIP3    H182127   4.050   1.831   1.258  0.2280  0.1359 -0.4529
20212TIP3    H282128   4.032   1.922   1.377 -0.1553 -0.1206 -0.3113
20213TIP3   OH282129   4.674   2.300   2.247  0.5783 -0.5423 -0.1416
20213TIP3    H182130   4.731   2.366   2.287  1.4744 -1.7748  0.6899
20213TIP3    H282131   4.643   2.341   2.166  1.0325  0.9204  0.3912
20214TIP3   OH282132   2.463   0.349  13.198 -0.0531  0.2417  0.4170
20214TIP3    H182133   2.549   0.334  13.159 -0.0679 -1.5664  0.9849
20214TIP3    H282134   2.404   0.358  13.123  0.4987  0.6428  0.0248
20215TIP3   OH282135   6.774   4.215  14.733  0.1376  0.0088  0.5226
20215TIP3    H182136   6.766   4.246  14.643  1.2193 -1.2420 -0.0329
20215TIP3    H282137   6.868   4.213  14.749  0.0779 -1.9386  0.8826
20216TIP3   OH282138   5.113   2.938  12.939 -0.0391 -0.0365 -0.3124
20216TIP3    H182139   5.032   2.927  12.888  0.2418 -0.0066 -0.7673
20216TIP3    H282140   5.099   3.019  12.988 -1.1010 -1.0364  1.1578
20217TIP3   OH282141   1.850   2.380  14.841  0.2564  0.6196  0.0398
20217TIP3    H182142   1.924   2.326  14.817 -1.0687 -0.6703 -1.3149
20217TIP3    H282143   1.873   2.468  14.811  0.7561  0.0105 -1.4172
20218TIP3   OH282144   1.117   2.699  10.866  0.1354 -0.4002 -0.3686
20218TIP3    H182145   1.212   2.698  10.873  0.1151  0.3491  0.1438
20218TIP3    H282146   1.098   2.770  10.805 -0.0881 -0.7396 -0.6996
20219TIP3   OH282147   3.590   5.806  15.967 -0.3407 -0.1275  0.0680
20219TIP3    H182148   3.507   5.817  15.921 -0.7272 -0.1160  0.7442
20219TIP3    H282149   3.603   5.889  16.013 -0.1750 -0.2824  0.3042
20220TIP3   OH282150   1.144   1.860   0.311  0.9322 -0.4289  0.0843
20220TIP3    H182151   1.180   1.917   0.243  0.3934 -0.1503  0.0344
20220TIP3    H282152   1.087   1.800   0.264 -1.4182  1.3237  0.5381
20221TIP3   OH282153   5.505   3.468   2.482 -0.9204  0.4799  0.5865
20221TIP3    H182154   5.496   3.378   2.449 -0.2200  0.7993 -0.5282
20221TIP3    H282155   5.540   3.517   2.408  0.1606  1.3583  1.6514
20222TIP3   OH282156   1.295   5.175   3.632 -0.2245 -0.3704 -0.1900
20222TIP3    H182157   1.243   5.217   3.702 -0.2708 -0.1713 -0.3417
20222TIP3    H282158   1.363   5.126   3.678 -0.9102 -1.1283  0.0379
20223TIP3   OH282159   4.090   2.106  16.219 -0.7314 -0.0679 -0.5295
20223TIP3    H182160   4.027   2.106  16.291  1.4061  0.1687  1.4366
20223TIP3    H282161   4.155   2.171  16.244 -0.3181  0.6215 -3.1092
20224TIP3   OH282162   4.748   1.028   2.604  0.2260  0.2565  0.5759
20224TIP3    H182163   4.725   1.098   2.543  0.8158 -0.7817 -0.9313
20224TIP3    H282164   4.843   1.021   2.598  0.1163 -1.3088 -0.1388
20225TIP3   OH282165   5.879   3.163  16.310 -0.7570  0.1989 -0.0071
20225TIP3    H182166   5.824   3.198  16.380 -0.3397 -0.1236  0.4960
20225TIP3    H282167   5.967   3.162  16.349 -0.8197 -1.7867  0.1504
20226TIP3   OH282168   2.412   3.035   3.425  0.8057 -0.4975 -0.0444
20226TIP3    H182169   2.456   3.028   3.340  0.0535 -0.1208 -0.4727
20226TIP3    H282170   2.321   3.012   3.408  0.0568  2.0888  0.1112
20227TIP3   OH282171   0.214   5.572   3.904 -0.0046  0.0601  0.6808
20227TIP3    H182172   0.189   5.605   3.990 -0.1744  0.1165  0.6097
20227TIP3    H282173   0.309   5.583   3.901  0.2798 -1.6826  1.6152
20228TIP3   OH282174   0.316   6.016  11.911 -0.5764 -0.6778  0.7848
20228TIP3    H182175   0.246   6.080  11.898 -0.4947 -0.6280  0.5839
20228TIP3    H282176   0.306   5.954  11.838 -0.0102 -0.3020  0.3721
20229TIP3   OH282177   5.971   0.890  10.665 -0.2898  0.2663  0.3743
20229TIP3    H182178   5.918   0.891  10.745 -0.0563 -1.4936  0.5898
20229TIP3    H282179   6.049   0.940  10.688 -1.0978  1.4730  0.5843
20230TIP3   OH282180   3.473   0.988  16.670 -0.0948 -0.3717 -0.3818
20230TIP3    H182181   3.568   0.994  16.686  0.2922 -4.5546  0.0737
20230TIP3    H282182   3.433   1.017  16.751  1.0277 -1.8782  0.7761
20231TIP3   OH282183   3.174   3.808  15.155  0.2480  0.1362  0.2913
20231TIP3    H182184   3.097   3.863  15.170  0.2525  0.3260 -0.3815
20231TIP3    H282185   3.237   3.838  15.221 -0.1781  0.1038  0.7268
20232TIP3   OH282186   0.631   5.596   0.836 -0.0083  0.8476 -0.0446
20232TIP3    H182187   0.683   5.533   0.785 -0.6379  1.2688 -1.2652
20232TIP3    H282188   0.584   5.543   0.899  0.9327  0.3206  0.2290
20233TIP3   OH282189   3.925   5.971  15.925 -0.2262  0.0412 -0.3404
20233TIP3    H182190   3.995   6.009  15.977 -1.3983 -0.4253  1.7253
20233TIP3    H282191   3.964   5.894  15.885  1.2158  1.4294 -1.7292
20234TIP3   OH282192   4.197   1.655  13.453 -0.4165  0.4892  0.3105
20234TIP3    H182193   4.190   1.714  13.378  1.0961 -0.2802 -0.4814
20234TIP3    H282194   4.272   1.687  13.502  1.3254 -1.4991 -0.8898
20235TIP3   OH282195   2.745   5.669  12.700 -0.1018 -0.0625 -0.3602
20235TIP3    H182196   2.699   5.692  12.620 -1.7361  1.2619  0.8846
20235TIP3    H282197   2.696   5.596  12.737 -0.1538  0.1934  0.0897
20236TIP3   OH282198   2.011   5.185  15.399 -0.1809 -0.0911 -0.1379
20236TIP3    H182199   1.998   5.119  15.467 -1.2785  0.6626  0.4218
20236TIP3    H282200   1.956   5.157  15.327  0.6874 -0.6854 -0.5899
20237TIP3   OH282201   5.560   4.380   4.134  0.5006 -0.2876  0.0796
20237TIP3    H182202   5.495   4.376   4.064  1.4598 -1.8888 -0.7906
20237TIP3    H282203   5.512   4.358   4.214 -0.4591  0.8458 -0.1648
20238TIP3   OH282204   1.199   4.893   4.747  0.5539  0.2128 -0.4279
20238TIP3    H182205   1.167   4.983   4.740  0.5738  0.2343 -0.2345
20238TIP3    H282206   1.248   4.890   4.829  0.9468  0.1465 -0.6650
20239TIP3   OH282207   0.976   3.754  13.863 -0.1464  0.0264 -0.2005
20239TIP3    H182208   0.893   3.792  13.893  0.5075  0.1958  1.4771
20239TIP3    H282209   1.000   3.808  13.788 -0.3178  1.6007  0.8138
20240TIP3   OH282210   2.275   0.441   1.512 -0.5288 -0.0870 -0.1732
20240TIP3    H182211   2.197   0.428   1.458  0.6182  0.2617 -1.9844
20240TIP3    H282212   2.333   0.494   1.459  2.1541 -2.6891 -0.0995
20241TIP3   OH282213   5.675   4.874   2.366 -0.0413 -0.2978  0.5799
20241TIP3    H182214   5.658   4.842   2.277 -0.4655 -0.2510  0.6390
20241TIP3    H282215   5.735   4.948   2.354 -1.0789  0.5168  0.2122
20242TIP3   OH282216   5.931   4.116   0.044  0.3423 -0.2521 -0.2243
20242TIP3    H182217   5.917   4.039  -0.011 -1.3069 -0.5846  0.6133
20242TIP3    H282218   5.888   4.095   0.126  1.4536  0.8579  0.6793
20243TIP3   OH282219   1.191   6.587   5.107  0.3990  0.1796 -0.3713
20243TIP3    H182220   1.262   6.639   5.068  1.1267 -1.0641 -0.7622
20243TIP3    H282221   1.194   6.608   5.200  1.2274  0.2025 -0.3995
20244TIP3   OH282222   5.149   0.555  15.135 -0.0117  0.2117 -0.0159
20244TIP3    H182223   5.230   0.582  15.092 -0.4599  2.3093  0.3393
20244TIP3    H282224   5.090   0.535  15.063 -0.1747  1.8880 -0.3902
20245TIP3   OH282225   0.497   0.622   2.047  0.4844  0.0423  0.2176
20245TIP3    H182226   0.591   0.610   2.061  0.4362 -0.0407  0.4748
20245TIP3    H282227   0.489   0.637   1.953  0.8524  0.9787  0.3315
20246TIP3   OH282228   3.139   4.281  17.208 -0.3449 -0.4540 -0.6749
20246TIP3    H182229   3.123   4.285  17.302 -0.3642  0.7729 -0.7175
20246TIP3    H282230   3.058   4.247  17.171 -0.2967 -1.0556 -0.2460
20247TIP3   OH282231   6.218   0.304  15.296  0.4182  0.0268 -0.1983
20247TIP3    H182232   6.185   0.217  15.320 -1.6905  1.3175  2.0157
20247TIP3    H282233   6.175   0.325  15.214 -1.5508  0.1806  0.8197
20248TIP3   OH282234   4.092   6.612  16.668 -0.2525 -0.3608  0.1089
20248TIP3    H182235   4.047   6.553  16.729  0.2557 -1.3389 -0.4446
20248TIP3    H282236   4.171   6.565  16.643 -0.8945 -0.4113 -2.0348
20249TIP3   OH282237   5.749   3.038  15.949  0.4566 -0.5085  0.2682
20249TIP3    H182238   5.814   3.014  16.016  1.0942 -1.1032 -0.5309
20249TIP3    H282239   5.726   3.129  15.969  1.8792 -0.1318  0.3278
20250TIP3   OH282240   0.001   6.466  14.332 -0.2416  0.1568  0.2233
20250TIP3    H182241   0.000   6.524  14.255 -2.3640 -1.7728 -1.3173
20250TIP3    H282242   0.071   6.403  14.314 -2.2097 -1.7087 -1.3717
20251TIP3   OH282243   4.187   0.438   2.388 -0.0213 -0.1685  0.1493
20251TIP3    H182244   4.169   0.531   2.401 -0.8322 -0.4081  0.8552
20251TIP3    H282245   4.187   0.401   2.477  3.1387 -0.3785  0.1608
20252TIP3   OH282246   5.400   2.037  15.464 -0.3627 -0.1980  0.3522
20252TIP3    H182247   5.447   2.096  15.523 -0.7708 -0.1503  0.6321
20252TIP3    H282248   5.464   2.014  15.397 -0.3521  0.9486 -0.0330
20253TIP3   OH282249   1.519   4.870  10.951  0.3335 -0.1839  0.2039
20253TIP3    H182250   1.462   4.938  10.915 -0.5690 -0.1852  1.5855
20253TIP3    H282251   1.460   4.798  10.971  0.8078 -0.2134  1.5920
20254TIP3   OH282252   6.329   4.618  11.053 -0.3420  0.2779  0.3955
20254TIP3    H182253   6.314   4.552  10.985 -1.6488  0.4406  0.4947
20254TIP3    H282254   6.423   4.613  11.071 -0.2988 -1.0985 -0.0609
20255TIP3   OH282255   6.606   0.726  16.329  0.0087 -0.3495 -0.0374
20255TIP3    H182256   6.693   0.711  16.290  0.8305  0.7342  1.2947
20255TIP3    H282257   6.624   0.748  16.420 -1.5463  1.3888 -0.0891
20256TIP3   OH282258   2.468   6.228   2.971 -0.4215 -0.1504 -1.1737
20256TIP3    H182259   2.556   6.196   2.989 -0.4642  0.4129  0.2461
20256TIP3    H282260   2.478   6.323   2.962 -0.8741 -0.0824 -1.0109
20257TIP3   OH282261   0.837   1.575   0.937 -0.5034  0.1071  0.3546
20257TIP3    H182262   0.854   1.651   0.993  1.6024  1.2561 -1.6807
20257TIP3    H282263   0.811   1.613   0.853 -2.3890 -1.5475  0.1101
20258TIP3   OH282264   2.022   2.676  12.737 -0.5221 -0.0637 -0.1704
20258TIP3    H182265   2.099   2.635  12.697 -2.1539 -0.0109 -3.7385
20258TIP3    H282266   1.959   2.604  12.745 -1.0477  0.4301  0.1547
20259TIP3   OH282267   2.446   1.700  10.766 -0.1971 -0.0660  0.0406
20259TIP3    H182268   2.532   1.674  10.733  0.9405  0.7464  2.1746
20259TIP3    H282269   2.457   1.791  10.792 -1.5798 -0.0851  0.7606
20260LIG      O82270   3.154   4.276   9.586  0.1007 -0.3292  0.4089
20260LIG      N82271   3.133   4.120   9.357  1.0728  0.9381  0.7405
20260LIG     C182272   3.092   4.213   9.806  0.1582 -0.2849  0.1747
20260LIG     C282273   3.136   4.159   9.666 -0.0283  0.8745  0.0550
20260LIG     C382274   3.188   4.316   9.871  0.6358 -0.8921  0.8320
20260LIG     C482275   2.953   4.287   9.806 -0.1862 -0.4827  0.5661
20260LIG     C582276   3.044   4.058   9.594 -0.3129  0.3643  0.9518
20260LIG     C682277   3.165   4.352  10.012 -0.3114 -0.0337 -0.6113
20260LIG     C782278   2.917   4.323   9.951  0.3859  0.2565  0.3207
20260LIG     C882279   3.023   4.414  10.019 -0.5787  1.0097 -0.6735
20260LIG     C982280   3.094   4.011   9.452 -0.1370  0.1454 -0.1821
20260LIG    C1082281   3.279   4.083   9.689  0.0221 -0.1400  0.0530
20260LIG    C1182282   3.237   4.073   9.259  0.7586  0.1949 -0.1069
20260LIG    C1282283   3.017   4.194   9.307  0.3812 -0.4284  0.1552
20260LIG    C1382284   3.169   3.979   9.161 -0.1842 -0.3385 -0.3606
20260LIG    C1482285   2.948   4.107   9.205  0.2799  0.3636  0.2086
20260LIG    C1582286   3.046   4.056   9.101 -0.5345  0.1604 -0.4461
20260LIG    C1682287   3.289   3.962   9.755 -0.9198  0.0406  0.7818
20260LIG    C1782288   3.399   4.139   9.632  0.2930  0.0168  0.2283
20260LIG    C1882289   3.408   3.896   9.763 -0.3367 -0.0005  0.2616
20260LIG    C1982290   3.520   4.071   9.644  0.5030  0.1259  0.6947
20260LIG    C2082291   3.524   3.948   9.704 -0.5693 -0.4974  0.4269
20260LIG     H182292   3.078   4.129   9.877 -1.9539 -1.6639 -1.7392
20260LIG     H282293   3.175   4.411   9.815  0.6814 -0.8104  0.9596
20260LIG     H382294   3.291   4.282   9.847  0.9690  0.3688  0.4038
20260LIG     H482295   2.875   4.221   9.762  0.4088 -0.3303 -0.7859
20260LIG     H582296   2.967   4.379   9.744 -1.9799 -0.9623 -0.6376
20260LIG     H682297   2.939   4.094   9.588 -1.3887 -2.5328  0.4811
20260LIG     H782298   3.035   3.962   9.651  0.2858 -1.2126 -1.4702
20260LIG     H882299   3.243   4.424  10.044  0.3047  1.6176 -5.0320
20260LIG     H982300   3.174   4.256  10.066  0.7073  0.6026  0.3691
20260LIG    H1082301   2.907   4.223   9.998 -0.6439 -0.4535 -1.3031
20260LIG    H1182302   2.819   4.374   9.961  0.2065  0.3073 -1.3691
20260LIG    H1282303   3.016   4.508   9.961 -0.6257 -0.2148 -2.7197
20260LIG    H1382304   3.001   4.434  10.126  0.5055  0.9753 -0.4255
20260LIG    H1482305   3.193   3.970   9.483 -0.5261 -1.0821 -0.5202
20260LIG    H1582306   3.032   3.930   9.409 -0.4761  0.3323 -0.0528
20260LIG    H1682307   3.320   4.021   9.312  0.7602  1.3449  1.0869
20260LIG    H1782308   3.271   4.166   9.209  0.0416  0.1780 -0.6330
20260LIG    H1882309   3.056   4.289   9.266 -1.0361 -0.2811 -0.9555
20260LIG    H1982310   2.947   4.210   9.392  0.5819  1.4449 -0.0070
20260LIG    H2082311   3.149   4.224   9.506 -0.0800 -0.4374  0.4895
20260LIG    H2182312   3.143   3.885   9.213  2.3618 -0.1488  1.4360
20260LIG    H2282313   3.240   3.954   9.078 -1.5615 -1.7612 -1.1612
20260LIG    H2382314   2.861   4.151   9.152 -1.0077 -2.3994 -0.1326
20260LIG    H2482315   2.909   4.019   9.259 -0.7788  0.2363 -0.7327
20260LIG    H2582316   2.997   3.987   9.029  1.6275  0.6265 -2.4502
20260LIG    H2682317   3.093   4.142   9.050  2.6881 -1.9939 -1.4590
20260LIG    H2782318   3.201   3.922   9.803  0.1539  0.5665  3.3350
20260LIG    H2882319   3.396   4.235   9.583 -1.6527 -0.5899 -0.9712
20260LIG    H2982320   3.406   3.797   9.804  0.6704 -0.0300  0.2693
20260LIG    H3082321   3.613   4.108   9.603 -0.1920  0.1856 -0.8766
20260LIG    H3182322   3.617   3.893   9.716  0.0484  0.4634  0.1486
   6.82568   6.82568  17.31578
